; ITP file created by ByteFF-ML, 2026-02-21 07:38:46.143392

[ atomtypes ]
;name           bonded.type        at.num        mass        charge   ptype           sigma         epsilon
 c0bf                                   6      0.0000       0.00000       A     3.39828e-01     4.48488e-01
 n1bf                                   7      0.0000       0.00000       A     2.67231e-01     7.08236e+00
 c2bf                                   6      0.0000       0.00000       A     3.39891e-01     4.48109e-01
 c3bf                                   6      0.0000       0.00000       A     3.39681e-01     4.49622e-01
 c4bf                                   6      0.0000       0.00000       A     3.39753e-01     4.52720e-01
 c5bf                                   6      0.0000       0.00000       A     3.39899e-01     4.52709e-01
 c6bf                                   6      0.0000       0.00000       A     3.40218e-01     4.51818e-01
 c7bf                                   6      0.0000       0.00000       A     3.39362e-01     4.50304e-01
 c8bf                                   6      0.0000       0.00000       A     3.31416e-01     4.11566e-01
 c9bf                                   6      0.0000       0.00000       A     3.31559e-01     4.13032e-01
 c10bf                                  6      0.0000       0.00000       A     3.31517e-01     4.13352e-01
 c11bf                                  6      0.0000       0.00000       A     3.31506e-01     4.12857e-01
 c12bf                                  6      0.0000       0.00000       A     3.31517e-01     4.13352e-01
 c13bf                                  6      0.0000       0.00000       A     3.31559e-01     4.13032e-01
 n14bf                                  7      0.0000       0.00000       A     3.28297e-01     6.42817e-01
 c15bf                                  6      0.0000       0.00000       A     3.31314e-01     4.12539e-01
 c16bf                                  6      0.0000       0.00000       A     3.31682e-01     4.13783e-01
 f17bf                                  9      0.0000       0.00000       A     3.03470e-01     3.47222e-01
 c18bf                                  6      0.0000       0.00000       A     3.31490e-01     4.12643e-01
 c19bf                                  6      0.0000       0.00000       A     3.31567e-01     4.13471e-01
 br20bf                                35      0.0000       0.00000       A     3.61255e-01     1.64448e+00
 c21bf                                  6      0.0000       0.00000       A     3.31438e-01     4.12156e-01
 c22bf                                  6      0.0000       0.00000       A     3.31317e-01     4.10926e-01
 c23bf                                  6      0.0000       0.00000       A     3.39703e-01     4.53188e-01
 o24bf                                  8      0.0000       0.00000       A     3.16041e-01     3.06723e-01
 h25bf                                  1      0.0000       0.00000       A     1.88028e-01     8.70799e-02
 h26bf                                  1      0.0000       0.00000       A     1.88028e-01     8.70799e-02
 h27bf                                  1      0.0000       0.00000       A     1.88028e-01     8.70799e-02
 h28bf                                  1      0.0000       0.00000       A     1.10814e-01     4.12951e-02
 h29bf                                  1      0.0000       0.00000       A     1.87691e-01     8.61032e-02
 h30bf                                  1      0.0000       0.00000       A     1.87691e-01     8.61032e-02
 h31bf                                  1      0.0000       0.00000       A     2.42371e-01     8.77264e-02
 h32bf                                  1      0.0000       0.00000       A     2.60071e-01     8.65692e-02
 h33bf                                  1      0.0000       0.00000       A     2.60071e-01     8.65692e-02
 h34bf                                  1      0.0000       0.00000       A     2.60017e-01     8.63234e-02
 h35bf                                  1      0.0000       0.00000       A     2.60017e-01     8.63234e-02
 h36bf                                  1      0.0000       0.00000       A     2.59608e-01     8.66043e-02
 h37bf                                  1      0.0000       0.00000       A     2.42675e-01     8.80520e-02
 h38bf                                  1      0.0000       0.00000       A     2.62512e-01     6.76287e-02
 h39bf                                  1      0.0000       0.00000       A     2.62458e-01     6.72647e-02
 h40bf                                  1      0.0000       0.00000       A     2.62457e-01     6.73477e-02
 h41bf                                  1      0.0000       0.00000       A     2.62458e-01     6.72647e-02
 h42bf                                  1      0.0000       0.00000       A     2.62512e-01     6.76287e-02
 h43bf                                  1      0.0000       0.00000       A     1.10859e-01     4.14068e-02
 h44bf                                  1      0.0000       0.00000       A     2.62498e-01     6.73573e-02
 h45bf                                  1      0.0000       0.00000       A     2.62450e-01     6.70493e-02
 h46bf                                  1      0.0000       0.00000       A     2.42774e-01     8.84398e-02
 h47bf                                  1      0.0000       0.00000       A     1.10814e-01     4.12951e-02

[ moleculetype ]
;name             nrexcl
 CHEMBL1082248         3

[ atoms ]
;       nr            type      resi   res      atom      cgnr      charge          mass ; qtot
         1            c0bf         1   UNL        c0         1     0.09470       12.0110 ; qtot    0.095
         2            n1bf         1   UNL        n1         2    -0.83582       14.0070 ; qtot   -0.741
         3            c2bf         1   UNL        c2         3     0.09252       12.0110 ; qtot   -0.649
         4            c3bf         1   UNL        c3         4     0.14946       12.0110 ; qtot   -0.499
         5            c4bf         1   UNL        c4         5    -0.09709       12.0110 ; qtot   -0.596
         6            c5bf         1   UNL        c5         6    -0.06571       12.0110 ; qtot   -0.662
         7            c6bf         1   UNL        c6         7    -0.09916       12.0110 ; qtot   -0.761
         8            c7bf         1   UNL        c7         8     0.26317       12.0110 ; qtot   -0.498
         9            c8bf         1   UNL        c8         9    -0.10797       12.0110 ; qtot   -0.606
        10            c9bf         1   UNL        c9        10    -0.09640       12.0110 ; qtot   -0.702
        11           c10bf         1   UNL       c10        11    -0.11334       12.0110 ; qtot   -0.816
        12           c11bf         1   UNL       c11        12    -0.10684       12.0110 ; qtot   -0.922
        13           c12bf         1   UNL       c12        13    -0.11334       12.0110 ; qtot   -1.036
        14           c13bf         1   UNL       c13        14    -0.09640       12.0110 ; qtot   -1.132
        15           n14bf         1   UNL       n14        15    -0.91914       14.0070 ; qtot   -2.051
        16           c15bf         1   UNL       c15        16     0.28508       12.0110 ; qtot   -1.766
        17           c16bf         1   UNL       c16        17     0.09693       12.0110 ; qtot   -1.669
        18           f17bf         1   UNL       f17        18    -0.18119       18.9980 ; qtot   -1.851
        19           c18bf         1   UNL       c18        19    -0.06639       12.0110 ; qtot   -1.917
        20           c19bf         1   UNL       c19        20    -0.03967       12.0110 ; qtot   -1.957
        21          br20bf         1   UNL      br20        21    -0.08814       79.9040 ; qtot   -2.045
        22           c21bf         1   UNL       c21        22    -0.02729       12.0110 ; qtot   -2.072
        23           c22bf         1   UNL       c22        23    -0.15326       12.0110 ; qtot   -2.225
        24           c23bf         1   UNL       c23        24     0.23962       12.0110 ; qtot   -1.986
        25           o24bf         1   UNL       o24        25    -0.46152       15.9990 ; qtot   -2.447
        26           h25bf         1   UNL       h25        26     0.10802        1.0080 ; qtot   -2.339
        27           h26bf         1   UNL       h26        27     0.10802        1.0080 ; qtot   -2.231
        28           h27bf         1   UNL       h27        28     0.10802        1.0080 ; qtot   -2.123
        29           h28bf         1   UNL       h28        29     0.51632        1.0080 ; qtot   -1.607
        30           h29bf         1   UNL       h29        30     0.11656        1.0080 ; qtot   -1.490
        31           h30bf         1   UNL       h30        31     0.11656        1.0080 ; qtot   -1.374
        32           h31bf         1   UNL       h31        32     0.08641        1.0080 ; qtot   -1.287
        33           h32bf         1   UNL       h32        33     0.06631        1.0080 ; qtot   -1.221
        34           h33bf         1   UNL       h33        34     0.06631        1.0080 ; qtot   -1.155
        35           h34bf         1   UNL       h34        35     0.05432        1.0080 ; qtot   -1.100
        36           h35bf         1   UNL       h35        36     0.05432        1.0080 ; qtot   -1.046
        37           h36bf         1   UNL       h36        37     0.06779        1.0080 ; qtot   -0.978
        38           h37bf         1   UNL       h37        38     0.05724        1.0080 ; qtot   -0.921
        39           h38bf         1   UNL       h38        39     0.11749        1.0080 ; qtot   -0.804
        40           h39bf         1   UNL       h39        40     0.11433        1.0080 ; qtot   -0.689
        41           h40bf         1   UNL       h40        41     0.11376        1.0080 ; qtot   -0.575
        42           h41bf         1   UNL       h41        42     0.11433        1.0080 ; qtot   -0.461
        43           h42bf         1   UNL       h42        43     0.11749        1.0080 ; qtot   -0.344
        44           h43bf         1   UNL       h43        44     0.47232        1.0080 ; qtot    0.129
        45           h44bf         1   UNL       h44        45     0.14955        1.0080 ; qtot    0.278
        46           h45bf         1   UNL       h45        46     0.13932        1.0080 ; qtot    0.418
        47           h46bf         1   UNL       h46        47     0.06610        1.0080 ; qtot    0.484
        48           h47bf         1   UNL       h47        48     0.51630        1.0080 ; qtot    1.000

[ bonds ]
;       ai        aj funct               r               k
         1         2     1        0.150678   160703.433228
         1        26     1        0.108854   320317.529980
         1        27     1        0.108854   320317.529980
         1        28     1        0.108854   320317.529980
         2         3     1        0.151399   142318.795752
         2        29     1        0.102819   378731.216113
         2        48     1        0.102819   378731.216113
         3         4     1        0.153307   175832.931982
         3        30     1        0.109027   314180.400781
         3        31     1        0.109027   314180.400781
         4         5     1        0.153737   171222.717627
         4        25     1        0.142798   186894.586279
         4        32     1        0.109778   291513.585889
         5         6     1        0.153730   182168.050391
         5        33     1        0.109433   298905.659717
         5        34     1        0.109433   298905.659717
         6         7     1        0.153672   177369.653076
         6        35     1        0.109414   298482.535352
         6        36     1        0.109414   298482.535352
         7         8     1        0.154208   163102.248828
         7        24     1        0.153655   168141.818604
         7        37     1        0.109661   296507.444238
         8         9     1        0.151991   180812.068188
         8        15     1        0.146717   193240.366431
         8        38     1        0.109885   282868.406104
         9        10     1        0.140235   288447.651611
         9        14     1        0.140235   288447.626074
        10        11     1        0.139815   313021.067090
        10        39     1        0.108668   316228.298193
        11        12     1        0.139918   306554.075049
        11        40     1        0.108647   318864.672754
        12        13     1        0.139918   306554.075049
        12        41     1        0.108625   319984.475000
        13        14     1        0.139815   313021.067090
        13        42     1        0.108647   318864.647217
        14        43     1        0.108668   316228.298193
        15        16     1        0.139128   284249.452979
        15        44     1        0.101360   410557.247266
        16        17     1        0.140398   269232.406885
        16        23     1        0.141006   266914.020410
        17        18     1        0.136434   278589.305908
        17        19     1        0.138397   325358.095703
        19        20     1        0.139757   301771.357520
        19        45     1        0.108380   328183.802393
        20        21     1        0.191440   125833.965991
        20        22     1        0.139308   306767.412061
        22        23     1        0.139748   301577.096729
        22        46     1        0.108453   322949.665381
        23        24     1        0.151024   191340.699170
        24        25     1        0.144752   165053.322290
        24        47     1        0.109916   283286.576270

[ angles ]
;       ai        aj        ak funct           theta             cth
         1         2         3     1      115.187744      598.576820
         1         2        29     1      109.700928      498.669519
         1         2        48     1      109.700928      498.669583
         2         1        26     1      108.587814      556.078792
         2         1        27     1      108.587814      556.078792
         2         1        28     1      108.587814      556.078792
         2         3         4     1      109.782944      666.941322
         2         3        30     1      107.335121      541.874094
         2         3        31     1      107.335121      541.874094
         3         2        29     1      107.926857      485.947378
         3         2        48     1      107.926857      485.947378
         3         4         5     1      113.556824      579.916471
         3         4        25     1      104.664413      644.269029
         3         4        32     1      108.838211      491.167067
         4         3        30     1      111.428970      470.995113
         4         3        31     1      111.428970      470.995113
         4         5         6     1      110.426315      651.287457
         4         5        33     1      109.441452      484.410810
         4         5        34     1      109.441452      484.410810
         4        25        24     1      113.866684      591.739642
         5         4        25     1      112.597496      554.383639
         5         4        32     1      109.474503      457.415436
         5         6         7     1      111.060867      623.724488
         5         6        35     1      109.777687      504.865492
         5         6        36     1      109.777687      504.865492
         6         5        33     1      110.383827      503.331382
         6         5        34     1      110.383827      503.331382
         6         7         8     1      113.348862      594.596223
         6         7        24     1      110.145691      599.071346
         6         7        37     1      108.813293      484.520077
         7         6        35     1      109.690323      493.512396
         7         6        36     1      109.690323      493.512396
         7         8         9     1      112.843285      538.257338
         7         8        15     1      108.766685      598.620105
         7         8        38     1      107.243668      478.689221
         7        24        23     1      112.191299      575.414087
         7        24        25     1      111.271362      594.826695
         7        24        47     1      108.558182      465.207542
         8         7        24     1      109.588989      678.825143
         8         7        37     1      107.093895      495.501704
         8         9        10     1      120.673706      479.725229
         8         9        14     1      120.673706      479.725229
         8        15        16     1      118.272751      525.595911
         8        15        44     1      114.178909      453.510972
         9         8        15     1      111.071960      594.254409
         9         8        38     1      107.675270      485.216729
         9        10        11     1      120.662560      709.918234
         9        10        39     1      119.614578      400.532036
         9        14        13     1      120.662560      709.918234
         9        14        43     1      119.614578      400.532036
        10         9        14     1      118.740906      679.590873
        10        11        12     1      120.153175      705.714506
        10        11        40     1      119.816544      429.696851
        11        10        39     1      119.686012      431.264766
        11        12        13     1      119.511429      689.005895
        11        12        41     1      120.255783      430.416551
        12        11        40     1      120.079079      431.521669
        12        13        14     1      120.153175      705.714506
        12        13        42     1      120.079079      431.521669
        13        12        41     1      120.255783      430.416551
        13        14        43     1      119.686012      431.264766
        14        13        42     1      119.816544      429.696851
        15         8        38     1      109.091698      442.116409
        15        16        17     1      120.468979      403.982418
        15        16        23     1      121.498253      577.648903
        16        15        44     1      114.261597      478.633007
        16        17        18     1      117.523033      420.936218
        16        17        19     1      123.632797      708.702923
        16        23        22     1      119.969955      772.690619
        16        23        24     1      119.148697      567.741143
        17        16        23     1      117.164291      634.869266
        17        19        20     1      117.811768      643.912914
        17        19        45     1      119.943581      422.076865
        18        17        19     1      118.833458      552.955221
        19        20        21     1      119.136879      328.575452
        19        20        22     1      120.930321      624.029529
        20        19        45     1      122.219482      411.326827
        20        22        23     1      120.218948      608.892663
        20        22        46     1      120.488724      410.546605
        21        20        22     1      119.680527      317.181177
        22        23        24     1      120.673668      479.185566
        23        22        46     1      119.532715      397.268265
        23        24        25     1      109.374954      628.634253
        23        24        47     1      108.700821      463.126140
        24         7        37     1      107.220901      504.413773
        25         4        32     1      108.373062      453.719610
        25        24        47     1      106.480202      485.369441
        26         1        27     1      110.439980      348.692534
        26         1        28     1      110.439980      348.692534
        27         1        28     1      110.439980      348.692534
        29         2        48     1      106.186768      403.175637
        30         3        31     1      109.253494      345.162060
        33         5        34     1      107.026955      357.757824
        35         6        36     1      106.531815      361.918011

[ dihedrals ] ; propers for gromacs 4.5 or higher, use funct 9
;       ai        aj        ak        al funct           phase               k        pn
         1         2         3         4     9        0.000000       -0.148125         1
         1         2         3         4     9      180.000000       -0.408852         2
         1         2         3         4     9        0.000000        0.731077         3
         1         2         3         4     9      180.000000        0.103734         4
         1         2         3        30     9        0.000000       -0.129659         1
         1         2         3        30     9      180.000000        0.160150         2
         1         2         3        30     9        0.000000        0.778493         3
         1         2         3        30     9      180.000000        0.001367         4
         1         2         3        31     9        0.000000       -0.129659         1
         1         2         3        31     9      180.000000        0.160150         2
         1         2         3        31     9        0.000000        0.778493         3
         1         2         3        31     9      180.000000        0.001367         4
         2         3         4         5     9        0.000000        2.014708         1
         2         3         4         5     9      180.000000        1.223700         2
         2         3         4         5     9        0.000000        0.738295         3
         2         3         4         5     9      180.000000        0.029904         4
         2         3         4        25     9        0.000000        7.418826         1
         2         3         4        25     9      180.000000       -1.892051         2
         2         3         4        25     9        0.000000        0.625270         3
         2         3         4        25     9      180.000000        0.231430         4
         2         3         4        32     9        0.000000       -0.850898         1
         2         3         4        32     9      180.000000       -1.223401         2
         2         3         4        32     9        0.000000        0.896097         3
         2         3         4        32     9      180.000000        0.031154         4
         3         2         1        26     9        0.000000       -0.025776         1
         3         2         1        26     9      180.000000        0.084967         2
         3         2         1        26     9        0.000000        0.554715         3
         3         2         1        26     9      180.000000       -0.036747         4
         3         2         1        27     9        0.000000       -0.025776         1
         3         2         1        27     9      180.000000        0.084967         2
         3         2         1        27     9        0.000000        0.554715         3
         3         2         1        27     9      180.000000       -0.036747         4
         3         2         1        28     9        0.000000       -0.025776         1
         3         2         1        28     9      180.000000        0.084967         2
         3         2         1        28     9        0.000000        0.554715         3
         3         2         1        28     9      180.000000       -0.036747         4
         3         4         5         6     9        0.000000        0.974052         1
         3         4         5         6     9      180.000000        0.565821         2
         3         4         5         6     9        0.000000        0.417842         3
         3         4         5         6     9      180.000000        0.001361         4
         3         4         5        33     9        0.000000       -0.365848         1
         3         4         5        33     9      180.000000       -0.037095         2
         3         4         5        33     9        0.000000        0.432078         3
         3         4         5        33     9      180.000000        0.049548         4
         3         4         5        34     9        0.000000       -0.365848         1
         3         4         5        34     9      180.000000       -0.037095         2
         3         4         5        34     9        0.000000        0.432078         3
         3         4         5        34     9      180.000000        0.049548         4
         3         4        25        24     9        0.000000       -1.360254         1
         3         4        25        24     9      180.000000       -0.432899         2
         3         4        25        24     9        0.000000        0.609519         3
         3         4        25        24     9      180.000000       -0.030359         4
         4         3         2        29     9        0.000000        0.737996         1
         4         3         2        29     9      180.000000        0.138845         2
         4         3         2        29     9        0.000000        0.428803         3
         4         3         2        29     9      180.000000       -0.076223         4
         4         3         2        48     9        0.000000        0.737996         1
         4         3         2        48     9      180.000000        0.138845         2
         4         3         2        48     9        0.000000        0.428803         3
         4         3         2        48     9      180.000000       -0.076223         4
         4         5         6         7     9        0.000000        0.540228         1
         4         5         6         7     9      180.000000       -0.840758         2
         4         5         6         7     9        0.000000        0.214074         3
         4         5         6         7     9      180.000000        0.001396         4
         4         5         6        35     9        0.000000       -0.067366         1
         4         5         6        35     9      180.000000        0.005620         2
         4         5         6        35     9        0.000000        0.242890         3
         4         5         6        35     9      180.000000        0.001881         4
         4         5         6        36     9        0.000000       -0.067366         1
         4         5         6        36     9      180.000000        0.005620         2
         4         5         6        36     9        0.000000        0.242890         3
         4         5         6        36     9      180.000000        0.001881         4
         4        25        24         7     9        0.000000        7.026974         1
         4        25        24         7     9      180.000000       -2.965439         2
         4        25        24         7     9        0.000000        0.060950         3
         4        25        24         7     9      180.000000        0.244178         4
         4        25        24        23     9        0.000000        0.120309         1
         4        25        24        23     9      180.000000       -1.185215         2
         4        25        24        23     9        0.000000        0.642211         3
         4        25        24        23     9      180.000000        0.094918         4
         4        25        24        47     9        0.000000       -0.206159         1
         4        25        24        47     9      180.000000       -0.050737         2
         4        25        24        47     9        0.000000        0.848428         3
         4        25        24        47     9      180.000000       -0.038780         4
         5         4         3        30     9        0.000000       -0.227143         1
         5         4         3        30     9      180.000000        0.093726         2
         5         4         3        30     9        0.000000        0.703277         3
         5         4         3        30     9      180.000000        0.086746         4
         5         4         3        31     9        0.000000       -0.227143         1
         5         4         3        31     9      180.000000        0.093726         2
         5         4         3        31     9        0.000000        0.703277         3
         5         4         3        31     9      180.000000        0.086746         4
         5         4        25        24     9        0.000000        5.665498         1
         5         4        25        24     9      180.000000       -1.437909         2
         5         4        25        24     9        0.000000       -0.005989         3
         5         4        25        24     9      180.000000        0.093240         4
         5         6         7         8     9        0.000000        0.040921         1
         5         6         7         8     9      180.000000       -0.375935         2
         5         6         7         8     9        0.000000        0.339815         3
         5         6         7         8     9      180.000000        0.032878         4
         5         6         7        24     9        0.000000        0.827304         1
         5         6         7        24     9      180.000000       -0.717589         2
         5         6         7        24     9        0.000000        0.105405         3
         5         6         7        24     9      180.000000        0.092794         4
         5         6         7        37     9        0.000000       -0.906563         1
         5         6         7        37     9      180.000000       -0.034068         2
         5         6         7        37     9        0.000000        0.210362         3
         5         6         7        37     9      180.000000        0.132300         4
         6         5         4        25     9        0.000000       -0.474681         1
         6         5         4        25     9      180.000000       -0.105879         2
         6         5         4        25     9        0.000000        0.296819         3
         6         5         4        25     9      180.000000       -0.049557         4
         6         5         4        32     9        0.000000       -0.459414         1
         6         5         4        32     9      180.000000       -0.018794         2
         6         5         4        32     9        0.000000        0.414334         3
         6         5         4        32     9      180.000000        0.036888         4
         6         7         8         9     9        0.000000        1.378455         1
         6         7         8         9     9      180.000000       -0.526107         2
         6         7         8         9     9        0.000000        0.883958         3
         6         7         8         9     9      180.000000        0.103738         4
         6         7         8        15     9        0.000000       -1.818601         1
         6         7         8        15     9      180.000000        0.764856         2
         6         7         8        15     9        0.000000        0.326289         3
         6         7         8        15     9      180.000000       -0.106874         4
         6         7         8        38     9        0.000000       -0.315065         1
         6         7         8        38     9      180.000000        0.177821         2
         6         7         8        38     9        0.000000        0.515660         3
         6         7         8        38     9      180.000000       -0.014151         4
         6         7        24        23     9        0.000000        0.644230         1
         6         7        24        23     9      180.000000       -1.339642         2
         6         7        24        23     9        0.000000        0.282978         3
         6         7        24        23     9      180.000000        0.043834         4
         6         7        24        25     9        0.000000        0.206837         1
         6         7        24        25     9      180.000000       -1.689365         2
         6         7        24        25     9        0.000000        0.254037         3
         6         7        24        25     9      180.000000        0.166458         4
         6         7        24        47     9        0.000000       -0.086680         1
         6         7        24        47     9      180.000000        0.180536         2
         6         7        24        47     9        0.000000        0.279177         3
         6         7        24        47     9      180.000000        0.085841         4
         7         6         5        33     9        0.000000       -0.087810         1
         7         6         5        33     9      180.000000        0.053871         2
         7         6         5        33     9        0.000000        0.216392         3
         7         6         5        33     9      180.000000        0.010328         4
         7         6         5        34     9        0.000000       -0.087810         1
         7         6         5        34     9      180.000000        0.053871         2
         7         6         5        34     9        0.000000        0.216392         3
         7         6         5        34     9      180.000000        0.010328         4
         7         8         9        10     9        0.000000       -0.370684         1
         7         8         9        10     9      180.000000       -0.121357         2
         7         8         9        10     9        0.000000        0.103495         3
         7         8         9        10     9      180.000000        0.008068         4
         7         8         9        14     9        0.000000       -0.370684         1
         7         8         9        14     9      180.000000       -0.121357         2
         7         8         9        14     9        0.000000        0.103495         3
         7         8         9        14     9      180.000000        0.008068         4
         7         8        15        16     9        0.000000        6.152469         1
         7         8        15        16     9      180.000000       -3.277935         2
         7         8        15        16     9        0.000000       -0.104402         3
         7         8        15        16     9      180.000000        0.689222         4
         7         8        15        44     9        0.000000        3.368913         1
         7         8        15        44     9      180.000000       -3.021058         2
         7         8        15        44     9        0.000000        0.143701         3
         7         8        15        44     9      180.000000        0.376102         4
         7        24        23        16     9        0.000000        3.524203         1
         7        24        23        16     9      180.000000       -3.569332         2
         7        24        23        16     9        0.000000       -0.204580         3
         7        24        23        16     9      180.000000        0.750684         4
         7        24        23        22     9        0.000000       -0.412629         1
         7        24        23        22     9      180.000000       -0.917520         2
         7        24        23        22     9        0.000000       -0.543439         3
         7        24        23        22     9      180.000000        0.283794         4
         8         7         6        35     9        0.000000       -0.013419         1
         8         7         6        35     9      180.000000        0.026169         2
         8         7         6        35     9        0.000000        0.301710         3
         8         7         6        35     9      180.000000       -0.001373         4
         8         7         6        36     9        0.000000       -0.013419         1
         8         7         6        36     9      180.000000        0.026169         2
         8         7         6        36     9        0.000000        0.301710         3
         8         7         6        36     9      180.000000       -0.001373         4
         8         7        24        23     9        0.000000        2.436443         1
         8         7        24        23     9      180.000000       -2.734267         2
         8         7        24        23     9        0.000000       -0.011400         3
         8         7        24        23     9      180.000000        0.187286         4
         8         7        24        25     9        0.000000        1.034014         1
         8         7        24        25     9      180.000000       -4.226484         2
         8         7        24        25     9        0.000000        0.139052         3
         8         7        24        25     9      180.000000        0.459368         4
         8         7        24        47     9        0.000000       -0.349555         1
         8         7        24        47     9      180.000000        0.117515         2
         8         7        24        47     9        0.000000        0.066771         3
         8         7        24        47     9      180.000000        0.152250         4
         8         9        10        11     9        0.000000        0.091853         1
         8         9        10        11     9      180.000000       14.677092         2
         8         9        10        11     9        0.000000       -0.133576         3
         8         9        10        11     9      180.000000       -0.085438         4
         8         9        10        39     9        0.000000       -0.043395         1
         8         9        10        39     9      180.000000       12.777157         2
         8         9        10        39     9        0.000000       -0.359360         3
         8         9        10        39     9      180.000000        0.187324         4
         8         9        14        13     9        0.000000        0.091853         1
         8         9        14        13     9      180.000000       14.677092         2
         8         9        14        13     9        0.000000       -0.133576         3
         8         9        14        13     9      180.000000       -0.085438         4
         8         9        14        43     9        0.000000       -0.043395         1
         8         9        14        43     9      180.000000       12.777157         2
         8         9        14        43     9        0.000000       -0.359360         3
         8         9        14        43     9      180.000000        0.187324         4
         8        15        16        17     9        0.000000        1.944444         1
         8        15        16        17     9      180.000000        0.918943         2
         8        15        16        17     9        0.000000        0.630628         3
         8        15        16        17     9      180.000000        0.345632         4
         8        15        16        23     9        0.000000        1.860276         1
         8        15        16        23     9      180.000000        1.354599         2
         8        15        16        23     9        0.000000       -0.317517         3
         8        15        16        23     9      180.000000        0.763917         4
         9         8         7        24     9        0.000000       -0.153399         1
         9         8         7        24     9      180.000000       -0.304813         2
         9         8         7        24     9        0.000000        0.329568         3
         9         8         7        24     9      180.000000        0.074883         4
         9         8         7        37     9        0.000000        0.084158         1
         9         8         7        37     9      180.000000       -0.049815         2
         9         8         7        37     9        0.000000        0.449041         3
         9         8         7        37     9      180.000000       -0.057460         4
         9         8        15        16     9        0.000000        1.014975         1
         9         8        15        16     9      180.000000       -0.699765         2
         9         8        15        16     9        0.000000        0.757986         3
         9         8        15        16     9      180.000000        0.039718         4
         9         8        15        44     9        0.000000        2.971056         1
         9         8        15        44     9      180.000000       -1.086297         2
         9         8        15        44     9        0.000000        0.133229         3
         9         8        15        44     9      180.000000       -0.155301         4
         9        10        11        12     9        0.000000        0.027332         1
         9        10        11        12     9      180.000000       18.735526         2
         9        10        11        12     9        0.000000       -1.491713         3
         9        10        11        12     9      180.000000       -0.406339         4
         9        10        11        40     9        0.000000        0.060410         1
         9        10        11        40     9      180.000000       14.990249         2
         9        10        11        40     9        0.000000       -0.580982         3
         9        10        11        40     9      180.000000        0.057213         4
         9        14        13        12     9        0.000000        0.027332         1
         9        14        13        12     9      180.000000       18.735526         2
         9        14        13        12     9        0.000000       -1.491713         3
         9        14        13        12     9      180.000000       -0.406339         4
         9        14        13        42     9        0.000000        0.060410         1
         9        14        13        42     9      180.000000       14.990249         2
         9        14        13        42     9        0.000000       -0.580982         3
         9        14        13        42     9      180.000000        0.057213         4
        10         9         8        15     9        0.000000       -0.200700         1
        10         9         8        15     9      180.000000        0.868726         2
        10         9         8        15     9        0.000000       -0.009400         3
        10         9         8        15     9      180.000000        0.236591         4
        10         9         8        38     9        0.000000        0.164796         1
        10         9         8        38     9      180.000000        0.637916         2
        10         9         8        38     9        0.000000        0.052389         3
        10         9         8        38     9      180.000000       -0.143521         4
        10         9        14        13     9        0.000000       -0.144446         1
        10         9        14        13     9      180.000000       19.062213         2
        10         9        14        13     9        0.000000       -1.504557         3
        10         9        14        13     9      180.000000       -0.477342         4
        10         9        14        43     9        0.000000       -0.069577         1
        10         9        14        43     9      180.000000       14.508781         2
        10         9        14        43     9        0.000000       -0.591210         3
        10         9        14        43     9      180.000000       -0.002966         4
        10        11        12        13     9        0.000000       -0.058928         1
        10        11        12        13     9      180.000000       18.660778         2
        10        11        12        13     9        0.000000       -1.621207         3
        10        11        12        13     9      180.000000       -0.382782         4
        10        11        12        41     9        0.000000        0.016777         1
        10        11        12        41     9      180.000000       14.282109         2
        10        11        12        41     9        0.000000       -0.780702         3
        10        11        12        41     9      180.000000        0.125906         4
        11        10         9        14     9        0.000000       -0.144446         1
        11        10         9        14     9      180.000000       19.062213         2
        11        10         9        14     9        0.000000       -1.504557         3
        11        10         9        14     9      180.000000       -0.477342         4
        11        12        13        14     9        0.000000       -0.058928         1
        11        12        13        14     9      180.000000       18.660778         2
        11        12        13        14     9        0.000000       -1.621207         3
        11        12        13        14     9      180.000000       -0.382782         4
        11        12        13        42     9        0.000000        0.010660         1
        11        12        13        42     9      180.000000       14.271862         2
        11        12        13        42     9        0.000000       -0.794146         3
        11        12        13        42     9      180.000000        0.157356         4
        12        11        10        39     9        0.000000        0.060923         1
        12        11        10        39     9      180.000000       14.800027         2
        12        11        10        39     9        0.000000       -0.680405         3
        12        11        10        39     9      180.000000        0.105082         4
        12        13        14        43     9        0.000000        0.060923         1
        12        13        14        43     9      180.000000       14.800027         2
        12        13        14        43     9        0.000000       -0.680405         3
        12        13        14        43     9      180.000000        0.105082         4
        13        12        11        40     9        0.000000        0.010660         1
        13        12        11        40     9      180.000000       14.271862         2
        13        12        11        40     9        0.000000       -0.794146         3
        13        12        11        40     9      180.000000        0.157356         4
        14         9         8        15     9        0.000000       -0.200700         1
        14         9         8        15     9      180.000000        0.868726         2
        14         9         8        15     9        0.000000       -0.009400         3
        14         9         8        15     9      180.000000        0.236591         4
        14         9         8        38     9        0.000000        0.164796         1
        14         9         8        38     9      180.000000        0.637916         2
        14         9         8        38     9        0.000000        0.052389         3
        14         9         8        38     9      180.000000       -0.143521         4
        14         9        10        39     9        0.000000       -0.069577         1
        14         9        10        39     9      180.000000       14.508781         2
        14         9        10        39     9        0.000000       -0.591210         3
        14         9        10        39     9      180.000000       -0.002966         4
        14        13        12        41     9        0.000000        0.016777         1
        14        13        12        41     9      180.000000       14.282109         2
        14        13        12        41     9        0.000000       -0.780702         3
        14        13        12        41     9      180.000000        0.125906         4
        15         8         7        24     9        0.000000       -0.172615         1
        15         8         7        24     9      180.000000       -1.528768         2
        15         8         7        24     9        0.000000       -0.223222         3
        15         8         7        24     9      180.000000        0.165379         4
        15         8         7        37     9        0.000000       -0.132359         1
        15         8         7        37     9      180.000000       -0.128847         2
        15         8         7        37     9        0.000000        0.112706         3
        15         8         7        37     9      180.000000        0.255319         4
        15        16        17        18     9        0.000000       -0.591693         1
        15        16        17        18     9      180.000000       21.222699         2
        15        16        17        18     9        0.000000        0.141001         3
        15        16        17        18     9      180.000000       -0.799612         4
        15        16        17        19     9        0.000000        0.211434         1
        15        16        17        19     9      180.000000       15.186544         2
        15        16        17        19     9        0.000000        0.100586         3
        15        16        17        19     9      180.000000       -0.077565         4
        15        16        23        22     9        0.000000        0.169268         1
        15        16        23        22     9      180.000000       17.029641         2
        15        16        23        22     9        0.000000        0.222215         3
        15        16        23        22     9      180.000000       -0.606628         4
        15        16        23        24     9        0.000000        0.079343         1
        15        16        23        24     9      180.000000       15.437971         2
        15        16        23        24     9        0.000000        0.331146         3
        15        16        23        24     9      180.000000       -0.572137         4
        16        15         8        38     9        0.000000       -0.088418         1
        16        15         8        38     9      180.000000       -0.374105         2
        16        15         8        38     9        0.000000        0.631899         3
        16        15         8        38     9      180.000000       -0.040100         4
        16        17        19        20     9        0.000000        0.008460         1
        16        17        19        20     9      180.000000       16.590205         2
        16        17        19        20     9        0.000000       -1.509034         3
        16        17        19        20     9      180.000000       -0.342866         4
        16        17        19        45     9        0.000000        0.051836         1
        16        17        19        45     9      180.000000       12.548510         2
        16        17        19        45     9        0.000000       -0.578329         3
        16        17        19        45     9      180.000000        0.141959         4
        16        23        22        20     9        0.000000       -0.056626         1
        16        23        22        20     9      180.000000       18.750341         2
        16        23        22        20     9        0.000000       -1.521217         3
        16        23        22        20     9      180.000000       -0.357562         4
        16        23        22        46     9        0.000000        0.130393         1
        16        23        22        46     9      180.000000       14.174817         2
        16        23        22        46     9        0.000000       -0.320428         3
        16        23        22        46     9      180.000000        0.181591         4
        16        23        24        25     9        0.000000       -2.736889         1
        16        23        24        25     9      180.000000       -1.649804         2
        16        23        24        25     9        0.000000        0.688093         3
        16        23        24        25     9      180.000000       -0.209660         4
        16        23        24        47     9        0.000000        0.128106         1
        16        23        24        47     9      180.000000        0.386077         2
        16        23        24        47     9        0.000000        0.014096         3
        16        23        24        47     9      180.000000        0.020468         4
        17        16        15        44     9        0.000000        2.516106         1
        17        16        15        44     9      180.000000        3.440209         2
        17        16        15        44     9        0.000000        0.216481         3
        17        16        15        44     9      180.000000        0.066096         4
        17        16        23        22     9        0.000000        0.084554         1
        17        16        23        22     9      180.000000       15.237610         2
        17        16        23        22     9        0.000000       -0.795633         3
        17        16        23        22     9      180.000000       -0.301335         4
        17        16        23        24     9        0.000000       -0.029772         1
        17        16        23        24     9      180.000000       12.955001         2
        17        16        23        24     9        0.000000       -0.260664         3
        17        16        23        24     9      180.000000       -0.209537         4
        17        19        20        21     9        0.000000        0.402886         1
        17        19        20        21     9      180.000000       17.285265         2
        17        19        20        21     9        0.000000        0.323074         3
        17        19        20        21     9      180.000000       -0.585240         4
        17        19        20        22     9        0.000000       -0.153853         1
        17        19        20        22     9      180.000000       17.851625         2
        17        19        20        22     9        0.000000       -1.438677         3
        17        19        20        22     9      180.000000       -0.409432         4
        18        17        16        23     9        0.000000        0.117331         1
        18        17        16        23     9      180.000000       16.817439         2
        18        17        16        23     9        0.000000        0.418994         3
        18        17        16        23     9      180.000000       -0.310774         4
        18        17        19        20     9        0.000000        0.701954         1
        18        17        19        20     9      180.000000       23.243039         2
        18        17        19        20     9        0.000000        0.438534         3
        18        17        19        20     9      180.000000       -0.460011         4
        18        17        19        45     9        0.000000        0.304181         1
        18        17        19        45     9      180.000000       16.065946         2
        18        17        19        45     9        0.000000        0.188158         3
        18        17        19        45     9      180.000000        0.390660         4
        19        17        16        23     9        0.000000        0.004839         1
        19        17        16        23     9      180.000000       12.580535         2
        19        17        16        23     9        0.000000       -0.250425         3
        19        17        16        23     9      180.000000       -0.141692         4
        19        20        22        23     9        0.000000       -0.090664         1
        19        20        22        23     9      180.000000       17.737559         2
        19        20        22        23     9        0.000000       -1.543234         3
        19        20        22        23     9      180.000000       -0.406932         4
        19        20        22        46     9        0.000000        0.023885         1
        19        20        22        46     9      180.000000       13.862561         2
        19        20        22        46     9        0.000000       -0.633839         3
        19        20        22        46     9      180.000000        0.079809         4
        20        22        23        24     9        0.000000        0.026081         1
        20        22        23        24     9      180.000000       16.933013         2
        20        22        23        24     9        0.000000       -0.292480         3
        20        22        23        24     9      180.000000       -0.357354         4
        21        20        19        45     9        0.000000        0.209467         1
        21        20        19        45     9      180.000000       12.454861         2
        21        20        19        45     9        0.000000       -0.062914         3
        21        20        19        45     9      180.000000        0.154045         4
        21        20        22        23     9        0.000000        0.291202         1
        21        20        22        23     9      180.000000       17.818825         2
        21        20        22        23     9        0.000000        0.219746         3
        21        20        22        23     9      180.000000       -0.642698         4
        21        20        22        46     9        0.000000        0.113238         1
        21        20        22        46     9      180.000000       12.678024         2
        21        20        22        46     9        0.000000       -0.120456         3
        21        20        22        46     9      180.000000        0.176198         4
        22        20        19        45     9        0.000000        0.095687         1
        22        20        19        45     9      180.000000       12.980202         2
        22        20        19        45     9        0.000000       -0.621807         3
        22        20        19        45     9      180.000000        0.116493         4
        22        23        24        25     9        0.000000        0.312264         1
        22        23        24        25     9      180.000000        0.338887         2
        22        23        24        25     9        0.000000       -0.712652         3
        22        23        24        25     9      180.000000        0.182553         4
        22        23        24        47     9        0.000000       -0.137169         1
        22        23        24        47     9      180.000000       -0.045083         2
        22        23        24        47     9        0.000000       -0.573738         3
        22        23        24        47     9      180.000000       -0.030864         4
        23        16        15        44     9        0.000000        4.556579         1
        23        16        15        44     9      180.000000        4.208907         2
        23        16        15        44     9        0.000000       -0.555926         3
        23        16        15        44     9      180.000000        0.366071         4
        23        24         7        37     9        0.000000       -0.122983         1
        23        24         7        37     9      180.000000        0.035947         2
        23        24         7        37     9        0.000000        0.126665         3
        23        24         7        37     9      180.000000        0.253149         4
        24         7         6        35     9        0.000000       -0.094208         1
        24         7         6        35     9      180.000000        0.065568         2
        24         7         6        35     9        0.000000        0.165131         3
        24         7         6        35     9      180.000000        0.031905         4
        24         7         6        36     9        0.000000       -0.094208         1
        24         7         6        36     9      180.000000        0.065568         2
        24         7         6        36     9        0.000000        0.165131         3
        24         7         6        36     9      180.000000        0.031905         4
        24         7         8        38     9        0.000000       -0.277922         1
        24         7         8        38     9      180.000000       -0.006105         2
        24         7         8        38     9        0.000000        0.105379         3
        24         7         8        38     9      180.000000        0.135758         4
        24        23        22        46     9        0.000000       -0.027968         1
        24        23        22        46     9      180.000000       12.824942         2
        24        23        22        46     9        0.000000       -0.242188         3
        24        23        22        46     9      180.000000        0.161262         4
        24        25         4        32     9        0.000000       -0.925142         1
        24        25         4        32     9      180.000000        0.144596         2
        24        25         4        32     9        0.000000        0.594811         3
        24        25         4        32     9      180.000000        0.151442         4
        25         4         3        30     9        0.000000       -0.213767         1
        25         4         3        30     9      180.000000        0.108410         2
        25         4         3        30     9        0.000000        0.614433         3
        25         4         3        30     9      180.000000        0.027969         4
        25         4         3        31     9        0.000000       -0.213767         1
        25         4         3        31     9      180.000000        0.108410         2
        25         4         3        31     9        0.000000        0.614433         3
        25         4         3        31     9      180.000000        0.027969         4
        25         4         5        33     9        0.000000        0.055975         1
        25         4         5        33     9      180.000000        0.036487         2
        25         4         5        33     9        0.000000        0.326521         3
        25         4         5        33     9      180.000000        0.017483         4
        25         4         5        34     9        0.000000        0.055975         1
        25         4         5        34     9      180.000000        0.036487         2
        25         4         5        34     9        0.000000        0.326521         3
        25         4         5        34     9      180.000000        0.017483         4
        25        24         7        37     9        0.000000       -0.713271         1
        25        24         7        37     9      180.000000       -0.026812         2
        25        24         7        37     9        0.000000        0.048477         3
        25        24         7        37     9      180.000000        0.155774         4
        26         1         2        29     9        0.000000       -0.209413         1
        26         1         2        29     9      180.000000        0.092758         2
        26         1         2        29     9        0.000000        0.403926         3
        26         1         2        29     9      180.000000        0.036922         4
        26         1         2        48     9        0.000000       -0.209413         1
        26         1         2        48     9      180.000000        0.092756         2
        26         1         2        48     9        0.000000        0.403926         3
        26         1         2        48     9      180.000000        0.036922         4
        27         1         2        29     9        0.000000       -0.209413         1
        27         1         2        29     9      180.000000        0.092758         2
        27         1         2        29     9        0.000000        0.403926         3
        27         1         2        29     9      180.000000        0.036922         4
        27         1         2        48     9        0.000000       -0.209413         1
        27         1         2        48     9      180.000000        0.092756         2
        27         1         2        48     9        0.000000        0.403926         3
        27         1         2        48     9      180.000000        0.036922         4
        28         1         2        29     9        0.000000       -0.209413         1
        28         1         2        29     9      180.000000        0.092758         2
        28         1         2        29     9        0.000000        0.403926         3
        28         1         2        29     9      180.000000        0.036922         4
        28         1         2        48     9        0.000000       -0.209413         1
        28         1         2        48     9      180.000000        0.092756         2
        28         1         2        48     9        0.000000        0.403926         3
        28         1         2        48     9      180.000000        0.036922         4
        29         2         3        30     9        0.000000       -0.010031         1
        29         2         3        30     9      180.000000       -0.011853         2
        29         2         3        30     9        0.000000        0.447966         3
        29         2         3        30     9      180.000000        0.047175         4
        29         2         3        31     9        0.000000       -0.010031         1
        29         2         3        31     9      180.000000       -0.011853         2
        29         2         3        31     9        0.000000        0.447966         3
        29         2         3        31     9      180.000000        0.047175         4
        30         3         2        48     9        0.000000       -0.010032         1
        30         3         2        48     9      180.000000       -0.011852         2
        30         3         2        48     9        0.000000        0.447966         3
        30         3         2        48     9      180.000000        0.047175         4
        30         3         4        32     9        0.000000       -0.147414         1
        30         3         4        32     9      180.000000        0.142584         2
        30         3         4        32     9        0.000000        0.671232         3
        30         3         4        32     9      180.000000       -0.039688         4
        31         3         2        48     9        0.000000       -0.010032         1
        31         3         2        48     9      180.000000       -0.011852         2
        31         3         2        48     9        0.000000        0.447966         3
        31         3         2        48     9      180.000000        0.047175         4
        31         3         4        32     9        0.000000       -0.147414         1
        31         3         4        32     9      180.000000        0.142584         2
        31         3         4        32     9        0.000000        0.671232         3
        31         3         4        32     9      180.000000       -0.039688         4
        32         4         5        33     9        0.000000        0.101066         1
        32         4         5        33     9      180.000000       -0.004487         2
        32         4         5        33     9        0.000000        0.497701         3
        32         4         5        33     9      180.000000       -0.076082         4
        32         4         5        34     9        0.000000        0.101066         1
        32         4         5        34     9      180.000000       -0.004487         2
        32         4         5        34     9        0.000000        0.497701         3
        32         4         5        34     9      180.000000       -0.076082         4
        33         5         6        35     9        0.000000        0.002806         1
        33         5         6        35     9      180.000000        0.000718         2
        33         5         6        35     9        0.000000        0.291687         3
        33         5         6        35     9      180.000000        0.023503         4
        33         5         6        36     9        0.000000        0.002806         1
        33         5         6        36     9      180.000000        0.000718         2
        33         5         6        36     9        0.000000        0.291687         3
        33         5         6        36     9      180.000000        0.023503         4
        34         5         6        35     9        0.000000        0.002806         1
        34         5         6        35     9      180.000000        0.000718         2
        34         5         6        35     9        0.000000        0.291687         3
        34         5         6        35     9      180.000000        0.023503         4
        34         5         6        36     9        0.000000        0.002806         1
        34         5         6        36     9      180.000000        0.000718         2
        34         5         6        36     9        0.000000        0.291687         3
        34         5         6        36     9      180.000000        0.023503         4
        35         6         7        37     9        0.000000        0.300281         1
        35         6         7        37     9      180.000000        0.083329         2
        35         6         7        37     9        0.000000        0.383292         3
        35         6         7        37     9      180.000000       -0.056411         4
        36         6         7        37     9        0.000000        0.300281         1
        36         6         7        37     9      180.000000        0.083329         2
        36         6         7        37     9        0.000000        0.383292         3
        36         6         7        37     9      180.000000       -0.056411         4
        37         7         8        38     9        0.000000        0.583554         1
        37         7         8        38     9      180.000000        0.096562         2
        37         7         8        38     9        0.000000        0.457936         3
        37         7         8        38     9      180.000000       -0.279237         4
        37         7        24        47     9        0.000000        0.058615         1
        37         7        24        47     9      180.000000        0.077304         2
        37         7        24        47     9        0.000000        0.272934         3
        37         7        24        47     9      180.000000       -0.084568         4
        38         8        15        44     9        0.000000       -0.771406         1
        38         8        15        44     9      180.000000       -0.244059         2
        38         8        15        44     9        0.000000        0.458117         3
        38         8        15        44     9      180.000000       -0.163048         4
        39        10        11        40     9        0.000000       -0.180341         1
        39        10        11        40     9      180.000000       11.789161         2
        39        10        11        40     9        0.000000       -0.659630         3
        39        10        11        40     9      180.000000        0.310085         4
        40        11        12        41     9        0.000000       -0.084557         1
        40        11        12        41     9      180.000000       11.520938         2
        40        11        12        41     9        0.000000       -0.587926         3
        40        11        12        41     9      180.000000        0.263272         4
        41        12        13        42     9        0.000000       -0.084557         1
        41        12        13        42     9      180.000000       11.520938         2
        41        12        13        42     9        0.000000       -0.587926         3
        41        12        13        42     9      180.000000        0.263272         4
        42        13        14        43     9        0.000000       -0.180341         1
        42        13        14        43     9      180.000000       11.789161         2
        42        13        14        43     9        0.000000       -0.659630         3
        42        13        14        43     9      180.000000        0.310085         4

[ dihedrals ] ; impropers
;       ai        aj        ak        al funct           phase               k        pn
        10         9        11        39     4      180.000000        0.182436         2
        10        11        39         9     4      180.000000        0.182436         2
        10        39         9        11     4      180.000000        0.182436         2
        11        10        12        40     4      180.000000        0.258179         2
        11        12        40        10     4      180.000000        0.258179         2
        11        40        10        12     4      180.000000        0.258179         2
        12        11        13        41     4      180.000000        0.333131         2
        12        13        41        11     4      180.000000        0.333131         2
        12        41        11        13     4      180.000000        0.333131         2
        13        12        14        42     4      180.000000        0.258179         2
        13        14        42        12     4      180.000000        0.258179         2
        13        42        12        14     4      180.000000        0.258179         2
        14         9        13        43     4      180.000000        0.182436         2
        14        13        43         9     4      180.000000        0.182436         2
        14        43         9        13     4      180.000000        0.182436         2

[ pairs ]
;       ai        aj funct
         1         4     1
         1        30     1
         1        31     1
         2         5     1
         2        25     1
         2        32     1
         3         6     1
         3        24     1
         3        26     1
         3        27     1
         3        28     1
         3        33     1
         3        34     1
         4         7     1
         4        23     1
         4        29     1
         4        35     1
         4        36     1
         4        47     1
         4        48     1
         5         8     1
         5        24     1
         5        30     1
         5        31     1
         5        37     1
         6         9     1
         6        15     1
         6        23     1
         6        25     1
         6        32     1
         6        38     1
         6        47     1
         7        10     1
         7        14     1
         7        16     1
         7        22     1
         7        33     1
         7        34     1
         7        44     1
         8        11     1
         8        13     1
         8        17     1
         8        23     1
         8        25     1
         8        35     1
         8        36     1
         8        39     1
         8        43     1
         8        47     1
         9        12     1
         9        16     1
         9        24     1
         9        37     1
         9        40     1
         9        42     1
         9        44     1
        10        13     1
        10        15     1
        10        38     1
        10        41     1
        10        43     1
        11        14     1
        11        42     1
        12        39     1
        12        43     1
        13        40     1
        14        15     1
        14        38     1
        14        39     1
        14        41     1
        15        18     1
        15        19     1
        15        22     1
        15        24     1
        15        37     1
        16        20     1
        16        25     1
        16        38     1
        16        45     1
        16        46     1
        16        47     1
        17        21     1
        17        22     1
        17        24     1
        17        44     1
        18        20     1
        18        23     1
        18        45     1
        19        23     1
        19        46     1
        20        24     1
        21        23     1
        21        45     1
        21        46     1
        22        25     1
        22        45     1
        22        47     1
        23        37     1
        23        44     1
        24        32     1
        24        35     1
        24        36     1
        24        38     1
        24        46     1
        25        30     1
        25        31     1
        25        33     1
        25        34     1
        25        37     1
        26        29     1
        26        48     1
        27        29     1
        27        48     1
        28        29     1
        28        48     1
        29        30     1
        29        31     1
        30        32     1
        30        48     1
        31        32     1
        31        48     1
        32        33     1
        32        34     1
        33        35     1
        33        36     1
        34        35     1
        34        36     1
        35        37     1
        36        37     1
        37        38     1
        37        47     1
        38        44     1
        39        40     1
        40        41     1
        41        42     1
        42        43     1
