; ITP file created by ByteFF-ML, 2026-02-21 07:39:09.243344

[ atomtypes ]
;name           bonded.type        at.num        mass        charge   ptype           sigma         epsilon
 c0bf                                   6      0.0000       0.00000       A     3.39765e-01     4.49855e-01
 c1bf                                   6      0.0000       0.00000       A     3.31723e-01     4.13077e-01
 o2bf                                   8      0.0000       0.00000       A     3.04744e-01     6.12622e-01
 n3bf                                   7      0.0000       0.00000       A     3.27737e-01     4.93974e-01
 c4bf                                   6      0.0000       0.00000       A     3.39369e-01     4.51461e-01
 c5bf                                   6      0.0000       0.00000       A     3.39726e-01     4.48850e-01
 n6bf                                   7      0.0000       0.00000       A     2.67714e-01     7.07358e+00
 c7bf                                   6      0.0000       0.00000       A     3.39904e-01     4.48981e-01
 c8bf                                   6      0.0000       0.00000       A     3.39678e-01     4.49657e-01
 c9bf                                   6      0.0000       0.00000       A     3.39753e-01     4.52720e-01
 c10bf                                  6      0.0000       0.00000       A     3.39899e-01     4.52709e-01
 c11bf                                  6      0.0000       0.00000       A     3.40218e-01     4.51818e-01
 c12bf                                  6      0.0000       0.00000       A     3.39362e-01     4.50304e-01
 c13bf                                  6      0.0000       0.00000       A     3.31416e-01     4.11566e-01
 c14bf                                  6      0.0000       0.00000       A     3.31559e-01     4.13032e-01
 c15bf                                  6      0.0000       0.00000       A     3.31517e-01     4.13352e-01
 c16bf                                  6      0.0000       0.00000       A     3.31506e-01     4.12857e-01
 c17bf                                  6      0.0000       0.00000       A     3.31517e-01     4.13352e-01
 c18bf                                  6      0.0000       0.00000       A     3.31559e-01     4.13032e-01
 n19bf                                  7      0.0000       0.00000       A     3.28297e-01     6.42817e-01
 c20bf                                  6      0.0000       0.00000       A     3.31314e-01     4.12539e-01
 c21bf                                  6      0.0000       0.00000       A     3.31682e-01     4.13783e-01
 f22bf                                  9      0.0000       0.00000       A     3.03470e-01     3.47222e-01
 c23bf                                  6      0.0000       0.00000       A     3.31490e-01     4.12643e-01
 c24bf                                  6      0.0000       0.00000       A     3.31567e-01     4.13471e-01
 br25bf                                35      0.0000       0.00000       A     3.61255e-01     1.64448e+00
 c26bf                                  6      0.0000       0.00000       A     3.31438e-01     4.12156e-01
 c27bf                                  6      0.0000       0.00000       A     3.31317e-01     4.10926e-01
 c28bf                                  6      0.0000       0.00000       A     3.39703e-01     4.53188e-01
 o29bf                                  8      0.0000       0.00000       A     3.16041e-01     3.06723e-01
 h30bf                                  1      0.0000       0.00000       A     2.60016e-01     8.70704e-02
 h31bf                                  1      0.0000       0.00000       A     2.60016e-01     8.70704e-02
 h32bf                                  1      0.0000       0.00000       A     2.60016e-01     8.70704e-02
 h33bf                                  1      0.0000       0.00000       A     1.10527e-01     4.26486e-02
 h34bf                                  1      0.0000       0.00000       A     2.41802e-01     8.49460e-02
 h35bf                                  1      0.0000       0.00000       A     2.41802e-01     8.49460e-02
 h36bf                                  1      0.0000       0.00000       A     1.87672e-01     8.43140e-02
 h37bf                                  1      0.0000       0.00000       A     1.87672e-01     8.43140e-02
 h38bf                                  1      0.0000       0.00000       A     1.10729e-01     4.21267e-02
 h39bf                                  1      0.0000       0.00000       A     1.87676e-01     8.61558e-02
 h40bf                                  1      0.0000       0.00000       A     1.87676e-01     8.61558e-02
 h41bf                                  1      0.0000       0.00000       A     2.42371e-01     8.77264e-02
 h42bf                                  1      0.0000       0.00000       A     2.60071e-01     8.65692e-02
 h43bf                                  1      0.0000       0.00000       A     2.60071e-01     8.65692e-02
 h44bf                                  1      0.0000       0.00000       A     2.60017e-01     8.63234e-02
 h45bf                                  1      0.0000       0.00000       A     2.60017e-01     8.63234e-02
 h46bf                                  1      0.0000       0.00000       A     2.59608e-01     8.66043e-02
 h47bf                                  1      0.0000       0.00000       A     2.42675e-01     8.80520e-02
 h48bf                                  1      0.0000       0.00000       A     2.62512e-01     6.76287e-02
 h49bf                                  1      0.0000       0.00000       A     2.62458e-01     6.72647e-02
 h50bf                                  1      0.0000       0.00000       A     2.62457e-01     6.73477e-02
 h51bf                                  1      0.0000       0.00000       A     2.62458e-01     6.72647e-02
 h52bf                                  1      0.0000       0.00000       A     2.62512e-01     6.76287e-02
 h53bf                                  1      0.0000       0.00000       A     1.10859e-01     4.14068e-02
 h54bf                                  1      0.0000       0.00000       A     2.62498e-01     6.73573e-02
 h55bf                                  1      0.0000       0.00000       A     2.62450e-01     6.70493e-02
 h56bf                                  1      0.0000       0.00000       A     2.42774e-01     8.84398e-02
 h57bf                                  1      0.0000       0.00000       A     1.10729e-01     4.21267e-02

[ moleculetype ]
;name             nrexcl
 CHEMBL1082249         3

[ atoms ]
;       nr            type      resi   res      atom      cgnr      charge          mass ; qtot
         1            c0bf         1   UNL        c0         1    -0.16399       12.0110 ; qtot   -0.164
         2            c1bf         1   UNL        c1         2     0.61472       12.0110 ; qtot    0.451
         3            o2bf         1   UNL        o2         3    -0.63860       15.9990 ; qtot   -0.188
         4            n3bf         1   UNL        n3         4    -0.51163       14.0070 ; qtot   -0.699
         5            c4bf         1   UNL        c4         5     0.08380       12.0110 ; qtot   -0.616
         6            c5bf         1   UNL        c5         6     0.09633       12.0110 ; qtot   -0.519
         7            n6bf         1   UNL        n6         7    -0.82736       14.0070 ; qtot   -1.347
         8            c7bf         1   UNL        c7         8     0.09610       12.0110 ; qtot   -1.251
         9            c8bf         1   UNL        c8         9     0.14885       12.0110 ; qtot   -1.102
        10            c9bf         1   UNL        c9        10    -0.09711       12.0110 ; qtot   -1.199
        11           c10bf         1   UNL       c10        11    -0.06571       12.0110 ; qtot   -1.265
        12           c11bf         1   UNL       c11        12    -0.09916       12.0110 ; qtot   -1.364
        13           c12bf         1   UNL       c12        13     0.26317       12.0110 ; qtot   -1.101
        14           c13bf         1   UNL       c13        14    -0.10797       12.0110 ; qtot   -1.209
        15           c14bf         1   UNL       c14        15    -0.09640       12.0110 ; qtot   -1.305
        16           c15bf         1   UNL       c15        16    -0.11334       12.0110 ; qtot   -1.418
        17           c16bf         1   UNL       c16        17    -0.10684       12.0110 ; qtot   -1.525
        18           c17bf         1   UNL       c17        18    -0.11334       12.0110 ; qtot   -1.638
        19           c18bf         1   UNL       c18        19    -0.09640       12.0110 ; qtot   -1.735
        20           n19bf         1   UNL       n19        20    -0.91914       14.0070 ; qtot   -2.654
        21           c20bf         1   UNL       c20        21     0.28508       12.0110 ; qtot   -2.369
        22           c21bf         1   UNL       c21        22     0.09693       12.0110 ; qtot   -2.272
        23           f22bf         1   UNL       f22        23    -0.18119       18.9980 ; qtot   -2.453
        24           c23bf         1   UNL       c23        24    -0.06639       12.0110 ; qtot   -2.520
        25           c24bf         1   UNL       c24        25    -0.03967       12.0110 ; qtot   -2.559
        26          br25bf         1   UNL      br25        26    -0.08814       79.9040 ; qtot   -2.647
        27           c26bf         1   UNL       c26        27    -0.02729       12.0110 ; qtot   -2.675
        28           c27bf         1   UNL       c27        28    -0.15326       12.0110 ; qtot   -2.828
        29           c28bf         1   UNL       c28        29     0.23962       12.0110 ; qtot   -2.588
        30           o29bf         1   UNL       o29        30    -0.46153       15.9990 ; qtot   -3.050
        31           h30bf         1   UNL       h30        31     0.06198        1.0080 ; qtot   -2.988
        32           h31bf         1   UNL       h31        32     0.06198        1.0080 ; qtot   -2.926
        33           h32bf         1   UNL       h32        33     0.06198        1.0080 ; qtot   -2.864
        34           h33bf         1   UNL       h33        34     0.34861        1.0080 ; qtot   -2.515
        35           h34bf         1   UNL       h34        35     0.07753        1.0080 ; qtot   -2.438
        36           h35bf         1   UNL       h35        36     0.07753        1.0080 ; qtot   -2.360
        37           h36bf         1   UNL       h36        37     0.10944        1.0080 ; qtot   -2.251
        38           h37bf         1   UNL       h37        38     0.10944        1.0080 ; qtot   -2.141
        39           h38bf         1   UNL       h38        39     0.52614        1.0080 ; qtot   -1.615
        40           h39bf         1   UNL       h39        40     0.11578        1.0080 ; qtot   -1.499
        41           h40bf         1   UNL       h40        41     0.11578        1.0080 ; qtot   -1.384
        42           h41bf         1   UNL       h41        42     0.08654        1.0080 ; qtot   -1.297
        43           h42bf         1   UNL       h42        43     0.06631        1.0080 ; qtot   -1.231
        44           h43bf         1   UNL       h43        44     0.06631        1.0080 ; qtot   -1.165
        45           h44bf         1   UNL       h44        45     0.05432        1.0080 ; qtot   -1.110
        46           h45bf         1   UNL       h45        46     0.05432        1.0080 ; qtot   -1.056
        47           h46bf         1   UNL       h46        47     0.06779        1.0080 ; qtot   -0.988
        48           h47bf         1   UNL       h47        48     0.05724        1.0080 ; qtot   -0.931
        49           h48bf         1   UNL       h48        49     0.11749        1.0080 ; qtot   -0.813
        50           h49bf         1   UNL       h49        50     0.11433        1.0080 ; qtot   -0.699
        51           h50bf         1   UNL       h50        51     0.11376        1.0080 ; qtot   -0.585
        52           h51bf         1   UNL       h51        52     0.11433        1.0080 ; qtot   -0.471
        53           h52bf         1   UNL       h52        53     0.11749        1.0080 ; qtot   -0.353
        54           h53bf         1   UNL       h53        54     0.47232        1.0080 ; qtot    0.119
        55           h54bf         1   UNL       h54        55     0.14955        1.0080 ; qtot    0.268
        56           h55bf         1   UNL       h55        56     0.13932        1.0080 ; qtot    0.408
        57           h56bf         1   UNL       h56        57     0.06610        1.0080 ; qtot    0.474
        58           h57bf         1   UNL       h57        58     0.52615        1.0080 ; qtot    1.000

[ bonds ]
;       ai        aj funct               r               k
         1         2     1        0.150691   193216.157251
         1        31     1        0.109282   307195.694922
         1        32     1        0.109282   307195.694922
         1        33     1        0.109282   307195.694922
         2         3     1        0.124079   564246.517578
         2         4     1        0.136728   295982.656641
         4         5     1        0.145879   206632.907617
         4        34     1        0.101195   422281.564014
         5         6     1        0.153711   178428.230103
         5        35     1        0.109272   304384.774219
         5        36     1        0.109272   304384.774219
         6         7     1        0.151154   143894.818457
         6        37     1        0.109030   314043.011133
         6        38     1        0.109030   314043.011133
         7         8     1        0.151024   146092.631470
         7        39     1        0.103648   353850.078467
         7        58     1        0.103648   353850.078467
         8         9     1        0.153339   175656.419482
         8        40     1        0.109029   313904.957520
         8        41     1        0.109029   313904.957520
         9        10     1        0.153741   171174.299268
         9        30     1        0.142797   186907.980493
         9        42     1        0.109778   291547.550244
        10        11     1        0.153730   182168.050391
        10        43     1        0.109433   298905.659717
        10        44     1        0.109433   298905.659717
        11        12     1        0.153672   177369.653076
        11        45     1        0.109414   298482.535352
        11        46     1        0.109414   298482.535352
        12        13     1        0.154208   163102.248828
        12        29     1        0.153655   168141.818604
        12        47     1        0.109661   296507.444238
        13        14     1        0.151991   180812.068188
        13        20     1        0.146717   193240.366431
        13        48     1        0.109885   282868.406104
        14        15     1        0.140235   288447.626074
        14        19     1        0.140235   288447.626074
        15        16     1        0.139815   313021.067090
        15        49     1        0.108668   316228.298193
        16        17     1        0.139918   306554.126123
        16        50     1        0.108647   318864.647217
        17        18     1        0.139918   306554.126123
        17        51     1        0.108625   319984.475000
        18        19     1        0.139815   313021.067090
        18        52     1        0.108647   318864.647217
        19        53     1        0.108668   316228.298193
        20        21     1        0.139128   284249.452979
        20        54     1        0.101360   410557.298340
        21        22     1        0.140398   269232.406885
        21        28     1        0.141006   266914.020410
        22        23     1        0.136434   278589.305908
        22        24     1        0.138397   325358.095703
        24        25     1        0.139757   301771.357520
        24        55     1        0.108380   328183.802393
        25        26     1        0.191440   125833.965991
        25        27     1        0.139308   306767.412061
        27        28     1        0.139748   301577.096729
        27        56     1        0.108453   322949.665381
        28        29     1        0.151024   191340.699170
        29        30     1        0.144752   165053.309521
        29        57     1        0.109916   283286.576270

[ angles ]
;       ai        aj        ak funct           theta             cth
         1         2         3     1      122.176331      505.197475
         1         2         4     1      117.165054      539.440919
         2         1        31     1      110.218979      532.259500
         2         1        32     1      110.218979      532.259500
         2         1        33     1      110.218979      532.259500
         2         4         5     1      122.164917      518.274869
         2         4        34     1      118.744347      436.628899
         3         2         4     1      120.497276      643.264846
         4         5         6     1      113.433838      519.942123
         4         5        35     1      108.752213      495.861873
         4         5        36     1      108.752213      495.861873
         5         4        34     1      117.611343      400.324834
         5         6         7     1      111.231583      675.894313
         5         6        37     1      111.014206      473.234718
         5         6        38     1      111.014206      473.234718
         6         5        35     1      109.551903      481.677126
         6         5        36     1      109.551903      481.677126
         6         7         8     1      115.949875      569.627570
         6         7        39     1      107.821640      493.466141
         6         7        58     1      107.821640      493.466141
         7         6        37     1      107.442039      552.029948
         7         6        38     1      107.442039      552.029948
         7         8         9     1      109.937271      662.030152
         7         8        40     1      107.547913      540.857909
         7         8        41     1      107.547913      540.857909
         8         7        39     1      108.178238      480.816590
         8         7        58     1      108.178238      480.816622
         8         9        10     1      113.540260      579.351335
         8         9        30     1      104.701157      643.943367
         8         9        42     1      108.848732      491.008450
         9         8        40     1      111.341270      469.402300
         9         8        41     1      111.341270      469.402300
         9        10        11     1      110.427002      651.629207
         9        10        43     1      109.443031      484.319643
         9        10        44     1      109.443031      484.319643
         9        30        29     1      113.866676      591.747495
        10         9        30     1      112.599510      553.916757
        10         9        42     1      109.477539      457.296657
        10        11        12     1      111.060867      623.724488
        10        11        45     1      109.777687      504.865492
        10        11        46     1      109.777687      504.865492
        11        10        43     1      110.383827      503.331382
        11        10        44     1      110.383827      503.331382
        11        12        13     1      113.348862      594.596223
        11        12        29     1      110.145691      599.071346
        11        12        47     1      108.813293      484.520077
        12        11        45     1      109.690323      493.512396
        12        11        46     1      109.690323      493.512396
        12        13        14     1      112.843285      538.257338
        12        13        20     1      108.766685      598.620105
        12        13        48     1      107.243668      478.689221
        12        29        28     1      112.191299      575.414087
        12        29        30     1      111.271362      594.826695
        12        29        57     1      108.558182      465.207542
        13        12        29     1      109.588989      678.825143
        13        12        47     1      107.093895      495.501704
        13        14        15     1      120.673706      479.725229
        13        14        19     1      120.673706      479.725229
        13        20        21     1      118.272751      525.595911
        13        20        54     1      114.178909      453.510972
        14        13        20     1      111.071960      594.254409
        14        13        48     1      107.675270      485.216729
        14        15        16     1      120.662560      709.918234
        14        15        49     1      119.614578      400.532036
        14        19        18     1      120.662560      709.918234
        14        19        53     1      119.614578      400.532036
        15        14        19     1      118.740906      679.590873
        15        16        17     1      120.153175      705.714506
        15        16        50     1      119.816544      429.696851
        16        15        49     1      119.686012      431.264766
        16        17        18     1      119.511429      689.005895
        16        17        51     1      120.255783      430.416551
        17        16        50     1      120.079079      431.521669
        17        18        19     1      120.153175      705.714506
        17        18        52     1      120.079079      431.521669
        18        17        51     1      120.255783      430.416551
        18        19        53     1      119.686012      431.264766
        19        18        52     1      119.816544      429.696851
        20        13        48     1      109.091698      442.116409
        20        21        22     1      120.468979      403.982418
        20        21        28     1      121.498253      577.648903
        21        20        54     1      114.261612      478.633007
        21        22        23     1      117.523033      420.936250
        21        22        24     1      123.632797      708.702923
        21        28        27     1      119.969955      772.690619
        21        28        29     1      119.148705      567.741143
        22        21        28     1      117.164291      634.869266
        22        24        25     1      117.811783      643.912914
        22        24        55     1      119.943588      422.076897
        23        22        24     1      118.833458      552.955221
        24        25        26     1      119.136879      328.575452
        24        25        27     1      120.930321      624.029529
        25        24        55     1      122.219482      411.326795
        25        27        28     1      120.218933      608.892663
        25        27        56     1      120.488724      410.546605
        26        25        27     1      119.680527      317.181145
        27        28        29     1      120.673668      479.185566
        28        27        56     1      119.532715      397.268265
        28        29        30     1      109.374954      628.634253
        28        29        57     1      108.700821      463.126140
        29        12        47     1      107.220901      504.413773
        30         9        42     1      108.374672      453.568494
        30        29        57     1      106.480202      485.369441
        31         1        32     1      108.604759      361.248907
        31         1        33     1      108.604759      361.248907
        32         1        33     1      108.604759      361.248907
        35         5        36     1      107.665756      353.016764
        37         6        38     1      109.143654      345.823216
        39         7        58     1      106.880997      386.196652
        40         8        41     1      109.212608      345.362846
        43        10        44     1      107.026955      357.757824
        45        11        46     1      106.531815      361.918011

[ dihedrals ] ; propers for gromacs 4.5 or higher, use funct 9
;       ai        aj        ak        al funct           phase               k        pn
         1         2         4         5     9        0.000000        3.329693         1
         1         2         4         5     9      180.000000       12.016572         2
         1         2         4         5     9        0.000000        2.388800         3
         1         2         4         5     9      180.000000       -0.085012         4
         1         2         4        34     9        0.000000       -0.815781         1
         1         2         4        34     9      180.000000       10.235685         2
         1         2         4        34     9        0.000000        0.358589         3
         1         2         4        34     9      180.000000        0.531220         4
         2         4         5         6     9        0.000000       12.492776         1
         2         4         5         6     9      180.000000       -1.745045         2
         2         4         5         6     9        0.000000        0.282587         3
         2         4         5         6     9      180.000000        0.111407         4
         2         4         5        35     9        0.000000       -3.336904         1
         2         4         5        35     9      180.000000        0.731207         2
         2         4         5        35     9        0.000000        0.213048         3
         2         4         5        35     9      180.000000        0.095717         4
         2         4         5        36     9        0.000000       -3.336904         1
         2         4         5        36     9      180.000000        0.731207         2
         2         4         5        36     9        0.000000        0.213048         3
         2         4         5        36     9      180.000000        0.095717         4
         3         2         1        31     9        0.000000       -0.011152         1
         3         2         1        31     9      180.000000        0.265312         2
         3         2         1        31     9        0.000000       -0.822392         3
         3         2         1        31     9      180.000000        0.103560         4
         3         2         1        32     9        0.000000       -0.011152         1
         3         2         1        32     9      180.000000        0.265312         2
         3         2         1        32     9        0.000000       -0.822392         3
         3         2         1        32     9      180.000000        0.103560         4
         3         2         1        33     9        0.000000       -0.011152         1
         3         2         1        33     9      180.000000        0.265312         2
         3         2         1        33     9        0.000000       -0.822392         3
         3         2         1        33     9      180.000000        0.103560         4
         3         2         4         5     9        0.000000        3.237998         1
         3         2         4         5     9      180.000000       11.285149         2
         3         2         4         5     9        0.000000        0.742259         3
         3         2         4         5     9      180.000000       -1.146732         4
         3         2         4        34     9        0.000000        1.136133         1
         3         2         4        34     9      180.000000       10.206467         2
         3         2         4        34     9        0.000000       -0.103479         3
         3         2         4        34     9      180.000000        1.094224         4
         4         2         1        31     9        0.000000       -0.006196         1
         4         2         1        31     9      180.000000        0.027556         2
         4         2         1        31     9        0.000000       -0.351238         3
         4         2         1        31     9      180.000000        0.150017         4
         4         2         1        32     9        0.000000       -0.006196         1
         4         2         1        32     9      180.000000        0.027556         2
         4         2         1        32     9        0.000000       -0.351238         3
         4         2         1        32     9      180.000000        0.150017         4
         4         2         1        33     9        0.000000       -0.006196         1
         4         2         1        33     9      180.000000        0.027556         2
         4         2         1        33     9        0.000000       -0.351238         3
         4         2         1        33     9      180.000000        0.150017         4
         4         5         6         7     9        0.000000       19.287057         1
         4         5         6         7     9      180.000000       -2.562908         2
         4         5         6         7     9        0.000000       -1.156057         3
         4         5         6         7     9      180.000000       -1.370943         4
         4         5         6        37     9        0.000000       -0.333390         1
         4         5         6        37     9      180.000000       -0.099729         2
         4         5         6        37     9        0.000000        0.555591         3
         4         5         6        37     9      180.000000        0.080481         4
         4         5         6        38     9        0.000000       -0.333390         1
         4         5         6        38     9      180.000000       -0.099729         2
         4         5         6        38     9        0.000000        0.555591         3
         4         5         6        38     9      180.000000        0.080481         4
         5         6         7         8     9        0.000000       -0.113226         1
         5         6         7         8     9      180.000000        0.175580         2
         5         6         7         8     9        0.000000        0.492009         3
         5         6         7         8     9      180.000000        0.165651         4
         5         6         7        39     9        0.000000        0.343424         1
         5         6         7        39     9      180.000000       -0.240984         2
         5         6         7        39     9        0.000000        0.347492         3
         5         6         7        39     9      180.000000        0.048776         4
         5         6         7        58     9        0.000000        0.343423         1
         5         6         7        58     9      180.000000       -0.240984         2
         5         6         7        58     9        0.000000        0.347492         3
         5         6         7        58     9      180.000000        0.048776         4
         6         5         4        34     9        0.000000        6.986507         1
         6         5         4        34     9      180.000000        0.579298         2
         6         5         4        34     9        0.000000        2.825843         3
         6         5         4        34     9      180.000000        0.105050         4
         6         7         8         9     9        0.000000       -0.660858         1
         6         7         8         9     9      180.000000       -0.090263         2
         6         7         8         9     9        0.000000        0.589706         3
         6         7         8         9     9      180.000000        0.129738         4
         6         7         8        40     9        0.000000       -0.124016         1
         6         7         8        40     9      180.000000        0.307193         2
         6         7         8        40     9        0.000000        0.683176         3
         6         7         8        40     9      180.000000       -0.045583         4
         6         7         8        41     9        0.000000       -0.124016         1
         6         7         8        41     9      180.000000        0.307193         2
         6         7         8        41     9        0.000000        0.683176         3
         6         7         8        41     9      180.000000       -0.045583         4
         7         6         5        35     9        0.000000       -0.091894         1
         7         6         5        35     9      180.000000       -0.550458         2
         7         6         5        35     9        0.000000        0.547182         3
         7         6         5        35     9      180.000000        0.181480         4
         7         6         5        36     9        0.000000       -0.091894         1
         7         6         5        36     9      180.000000       -0.550458         2
         7         6         5        36     9        0.000000        0.547182         3
         7         6         5        36     9      180.000000        0.181480         4
         7         8         9        10     9        0.000000        2.081605         1
         7         8         9        10     9      180.000000        1.182326         2
         7         8         9        10     9        0.000000        0.736551         3
         7         8         9        10     9      180.000000        0.033864         4
         7         8         9        30     9        0.000000        7.670699         1
         7         8         9        30     9      180.000000       -1.987958         2
         7         8         9        30     9        0.000000        0.559458         3
         7         8         9        30     9      180.000000        0.252084         4
         7         8         9        42     9        0.000000       -0.335061         1
         7         8         9        42     9      180.000000       -1.303645         2
         7         8         9        42     9        0.000000        0.888659         3
         7         8         9        42     9      180.000000        0.057283         4
         8         7         6        37     9        0.000000       -0.224341         1
         8         7         6        37     9      180.000000        0.291937         2
         8         7         6        37     9        0.000000        0.525892         3
         8         7         6        37     9      180.000000       -0.036541         4
         8         7         6        38     9        0.000000       -0.224341         1
         8         7         6        38     9      180.000000        0.291937         2
         8         7         6        38     9        0.000000        0.525892         3
         8         7         6        38     9      180.000000       -0.036541         4
         8         9        10        11     9        0.000000        0.998576         1
         8         9        10        11     9      180.000000        0.552496         2
         8         9        10        11     9        0.000000        0.417240         3
         8         9        10        11     9      180.000000       -0.000825         4
         8         9        10        43     9        0.000000       -0.360798         1
         8         9        10        43     9      180.000000       -0.025558         2
         8         9        10        43     9        0.000000        0.437794         3
         8         9        10        43     9      180.000000        0.046770         4
         8         9        10        44     9        0.000000       -0.360798         1
         8         9        10        44     9      180.000000       -0.025558         2
         8         9        10        44     9        0.000000        0.437794         3
         8         9        10        44     9      180.000000        0.046770         4
         8         9        30        29     9        0.000000       -1.315888         1
         8         9        30        29     9      180.000000       -0.424098         2
         8         9        30        29     9        0.000000        0.604091         3
         8         9        30        29     9      180.000000       -0.028891         4
         9         8         7        39     9        0.000000        0.813287         1
         9         8         7        39     9      180.000000        0.067560         2
         9         8         7        39     9        0.000000        0.413331         3
         9         8         7        39     9      180.000000       -0.059899         4
         9         8         7        58     9        0.000000        0.813286         1
         9         8         7        58     9      180.000000        0.067561         2
         9         8         7        58     9        0.000000        0.413332         3
         9         8         7        58     9      180.000000       -0.059899         4
         9        10        11        12     9        0.000000        0.535879         1
         9        10        11        12     9      180.000000       -0.842092         2
         9        10        11        12     9        0.000000        0.212669         3
         9        10        11        12     9      180.000000        0.002160         4
         9        10        11        45     9        0.000000       -0.066729         1
         9        10        11        45     9      180.000000        0.005995         2
         9        10        11        45     9        0.000000        0.242728         3
         9        10        11        45     9      180.000000        0.001462         4
         9        10        11        46     9        0.000000       -0.066729         1
         9        10        11        46     9      180.000000        0.005995         2
         9        10        11        46     9        0.000000        0.242728         3
         9        10        11        46     9      180.000000        0.001462         4
         9        30        29        12     9        0.000000        7.008659         1
         9        30        29        12     9      180.000000       -2.964203         2
         9        30        29        12     9        0.000000        0.056907         3
         9        30        29        12     9      180.000000        0.244990         4
         9        30        29        28     9        0.000000        0.119386         1
         9        30        29        28     9      180.000000       -1.184654         2
         9        30        29        28     9        0.000000        0.638971         3
         9        30        29        28     9      180.000000        0.094310         4
         9        30        29        57     9        0.000000       -0.204590         1
         9        30        29        57     9      180.000000       -0.048830         2
         9        30        29        57     9        0.000000        0.845543         3
         9        30        29        57     9      180.000000       -0.040598         4
        10         9         8        40     9        0.000000       -0.263996         1
        10         9         8        40     9      180.000000        0.101704         2
        10         9         8        40     9        0.000000        0.693608         3
        10         9         8        40     9      180.000000        0.085506         4
        10         9         8        41     9        0.000000       -0.263996         1
        10         9         8        41     9      180.000000        0.101704         2
        10         9         8        41     9        0.000000        0.693608         3
        10         9         8        41     9      180.000000        0.085506         4
        10         9        30        29     9        0.000000        5.671344         1
        10         9        30        29     9      180.000000       -1.425420         2
        10         9        30        29     9        0.000000       -0.004011         3
        10         9        30        29     9      180.000000        0.085783         4
        10        11        12        13     9        0.000000        0.040921         1
        10        11        12        13     9      180.000000       -0.375935         2
        10        11        12        13     9        0.000000        0.339815         3
        10        11        12        13     9      180.000000        0.032878         4
        10        11        12        29     9        0.000000        0.827304         1
        10        11        12        29     9      180.000000       -0.717589         2
        10        11        12        29     9        0.000000        0.105405         3
        10        11        12        29     9      180.000000        0.092794         4
        10        11        12        47     9        0.000000       -0.906563         1
        10        11        12        47     9      180.000000       -0.034068         2
        10        11        12        47     9        0.000000        0.210362         3
        10        11        12        47     9      180.000000        0.132300         4
        11        10         9        30     9        0.000000       -0.477110         1
        11        10         9        30     9      180.000000       -0.105257         2
        11        10         9        30     9        0.000000        0.296479         3
        11        10         9        30     9      180.000000       -0.050675         4
        11        10         9        42     9        0.000000       -0.459057         1
        11        10         9        42     9      180.000000       -0.017686         2
        11        10         9        42     9        0.000000        0.414913         3
        11        10         9        42     9      180.000000        0.037090         4
        11        12        13        14     9        0.000000        1.378455         1
        11        12        13        14     9      180.000000       -0.526107         2
        11        12        13        14     9        0.000000        0.883958         3
        11        12        13        14     9      180.000000        0.103738         4
        11        12        13        20     9        0.000000       -1.818601         1
        11        12        13        20     9      180.000000        0.764856         2
        11        12        13        20     9        0.000000        0.326289         3
        11        12        13        20     9      180.000000       -0.106874         4
        11        12        13        48     9        0.000000       -0.315065         1
        11        12        13        48     9      180.000000        0.177821         2
        11        12        13        48     9        0.000000        0.515660         3
        11        12        13        48     9      180.000000       -0.014151         4
        11        12        29        28     9        0.000000        0.644230         1
        11        12        29        28     9      180.000000       -1.339642         2
        11        12        29        28     9        0.000000        0.282978         3
        11        12        29        28     9      180.000000        0.043834         4
        11        12        29        30     9        0.000000        0.206837         1
        11        12        29        30     9      180.000000       -1.689364         2
        11        12        29        30     9        0.000000        0.254038         3
        11        12        29        30     9      180.000000        0.166458         4
        11        12        29        57     9        0.000000       -0.086680         1
        11        12        29        57     9      180.000000        0.180536         2
        11        12        29        57     9        0.000000        0.279177         3
        11        12        29        57     9      180.000000        0.085841         4
        12        11        10        43     9        0.000000       -0.087810         1
        12        11        10        43     9      180.000000        0.053871         2
        12        11        10        43     9        0.000000        0.216392         3
        12        11        10        43     9      180.000000        0.010328         4
        12        11        10        44     9        0.000000       -0.087810         1
        12        11        10        44     9      180.000000        0.053871         2
        12        11        10        44     9        0.000000        0.216392         3
        12        11        10        44     9      180.000000        0.010328         4
        12        13        14        15     9        0.000000       -0.370684         1
        12        13        14        15     9      180.000000       -0.121357         2
        12        13        14        15     9        0.000000        0.103495         3
        12        13        14        15     9      180.000000        0.008068         4
        12        13        14        19     9        0.000000       -0.370684         1
        12        13        14        19     9      180.000000       -0.121357         2
        12        13        14        19     9        0.000000        0.103495         3
        12        13        14        19     9      180.000000        0.008068         4
        12        13        20        21     9        0.000000        6.152469         1
        12        13        20        21     9      180.000000       -3.277935         2
        12        13        20        21     9        0.000000       -0.104402         3
        12        13        20        21     9      180.000000        0.689222         4
        12        13        20        54     9        0.000000        3.368913         1
        12        13        20        54     9      180.000000       -3.021058         2
        12        13        20        54     9        0.000000        0.143701         3
        12        13        20        54     9      180.000000        0.376102         4
        12        29        28        21     9        0.000000        3.524203         1
        12        29        28        21     9      180.000000       -3.569332         2
        12        29        28        21     9        0.000000       -0.204580         3
        12        29        28        21     9      180.000000        0.750684         4
        12        29        28        27     9        0.000000       -0.412629         1
        12        29        28        27     9      180.000000       -0.917520         2
        12        29        28        27     9        0.000000       -0.543439         3
        12        29        28        27     9      180.000000        0.283794         4
        13        12        11        45     9        0.000000       -0.013419         1
        13        12        11        45     9      180.000000        0.026169         2
        13        12        11        45     9        0.000000        0.301710         3
        13        12        11        45     9      180.000000       -0.001373         4
        13        12        11        46     9        0.000000       -0.013419         1
        13        12        11        46     9      180.000000        0.026169         2
        13        12        11        46     9        0.000000        0.301710         3
        13        12        11        46     9      180.000000       -0.001373         4
        13        12        29        28     9        0.000000        2.436443         1
        13        12        29        28     9      180.000000       -2.734267         2
        13        12        29        28     9        0.000000       -0.011400         3
        13        12        29        28     9      180.000000        0.187286         4
        13        12        29        30     9        0.000000        1.034014         1
        13        12        29        30     9      180.000000       -4.226482         2
        13        12        29        30     9        0.000000        0.139052         3
        13        12        29        30     9      180.000000        0.459368         4
        13        12        29        57     9        0.000000       -0.349555         1
        13        12        29        57     9      180.000000        0.117515         2
        13        12        29        57     9        0.000000        0.066771         3
        13        12        29        57     9      180.000000        0.152250         4
        13        14        15        16     9        0.000000        0.091853         1
        13        14        15        16     9      180.000000       14.677092         2
        13        14        15        16     9        0.000000       -0.133576         3
        13        14        15        16     9      180.000000       -0.085438         4
        13        14        15        49     9        0.000000       -0.043395         1
        13        14        15        49     9      180.000000       12.777157         2
        13        14        15        49     9        0.000000       -0.359360         3
        13        14        15        49     9      180.000000        0.187324         4
        13        14        19        18     9        0.000000        0.091853         1
        13        14        19        18     9      180.000000       14.677092         2
        13        14        19        18     9        0.000000       -0.133576         3
        13        14        19        18     9      180.000000       -0.085438         4
        13        14        19        53     9        0.000000       -0.043395         1
        13        14        19        53     9      180.000000       12.777157         2
        13        14        19        53     9        0.000000       -0.359360         3
        13        14        19        53     9      180.000000        0.187324         4
        13        20        21        22     9        0.000000        1.944444         1
        13        20        21        22     9      180.000000        0.918943         2
        13        20        21        22     9        0.000000        0.630628         3
        13        20        21        22     9      180.000000        0.345632         4
        13        20        21        28     9        0.000000        1.860276         1
        13        20        21        28     9      180.000000        1.354599         2
        13        20        21        28     9        0.000000       -0.317517         3
        13        20        21        28     9      180.000000        0.763917         4
        14        13        12        29     9        0.000000       -0.153399         1
        14        13        12        29     9      180.000000       -0.304813         2
        14        13        12        29     9        0.000000        0.329568         3
        14        13        12        29     9      180.000000        0.074883         4
        14        13        12        47     9        0.000000        0.084158         1
        14        13        12        47     9      180.000000       -0.049815         2
        14        13        12        47     9        0.000000        0.449041         3
        14        13        12        47     9      180.000000       -0.057460         4
        14        13        20        21     9        0.000000        1.014975         1
        14        13        20        21     9      180.000000       -0.699765         2
        14        13        20        21     9        0.000000        0.757986         3
        14        13        20        21     9      180.000000        0.039718         4
        14        13        20        54     9        0.000000        2.971056         1
        14        13        20        54     9      180.000000       -1.086297         2
        14        13        20        54     9        0.000000        0.133229         3
        14        13        20        54     9      180.000000       -0.155301         4
        14        15        16        17     9        0.000000        0.027332         1
        14        15        16        17     9      180.000000       18.735526         2
        14        15        16        17     9        0.000000       -1.491713         3
        14        15        16        17     9      180.000000       -0.406339         4
        14        15        16        50     9        0.000000        0.060410         1
        14        15        16        50     9      180.000000       14.990249         2
        14        15        16        50     9        0.000000       -0.580982         3
        14        15        16        50     9      180.000000        0.057213         4
        14        19        18        17     9        0.000000        0.027332         1
        14        19        18        17     9      180.000000       18.735526         2
        14        19        18        17     9        0.000000       -1.491713         3
        14        19        18        17     9      180.000000       -0.406339         4
        14        19        18        52     9        0.000000        0.060410         1
        14        19        18        52     9      180.000000       14.990249         2
        14        19        18        52     9        0.000000       -0.580982         3
        14        19        18        52     9      180.000000        0.057213         4
        15        14        13        20     9        0.000000       -0.200700         1
        15        14        13        20     9      180.000000        0.868726         2
        15        14        13        20     9        0.000000       -0.009400         3
        15        14        13        20     9      180.000000        0.236591         4
        15        14        13        48     9        0.000000        0.164796         1
        15        14        13        48     9      180.000000        0.637916         2
        15        14        13        48     9        0.000000        0.052389         3
        15        14        13        48     9      180.000000       -0.143521         4
        15        14        19        18     9        0.000000       -0.144446         1
        15        14        19        18     9      180.000000       19.062213         2
        15        14        19        18     9        0.000000       -1.504557         3
        15        14        19        18     9      180.000000       -0.477342         4
        15        14        19        53     9        0.000000       -0.069577         1
        15        14        19        53     9      180.000000       14.508781         2
        15        14        19        53     9        0.000000       -0.591210         3
        15        14        19        53     9      180.000000       -0.002966         4
        15        16        17        18     9        0.000000       -0.058928         1
        15        16        17        18     9      180.000000       18.660778         2
        15        16        17        18     9        0.000000       -1.621207         3
        15        16        17        18     9      180.000000       -0.382782         4
        15        16        17        51     9        0.000000        0.016777         1
        15        16        17        51     9      180.000000       14.282109         2
        15        16        17        51     9        0.000000       -0.780702         3
        15        16        17        51     9      180.000000        0.125906         4
        16        15        14        19     9        0.000000       -0.144446         1
        16        15        14        19     9      180.000000       19.062213         2
        16        15        14        19     9        0.000000       -1.504557         3
        16        15        14        19     9      180.000000       -0.477342         4
        16        17        18        19     9        0.000000       -0.058928         1
        16        17        18        19     9      180.000000       18.660778         2
        16        17        18        19     9        0.000000       -1.621207         3
        16        17        18        19     9      180.000000       -0.382782         4
        16        17        18        52     9        0.000000        0.010660         1
        16        17        18        52     9      180.000000       14.271862         2
        16        17        18        52     9        0.000000       -0.794146         3
        16        17        18        52     9      180.000000        0.157356         4
        17        16        15        49     9        0.000000        0.060923         1
        17        16        15        49     9      180.000000       14.800027         2
        17        16        15        49     9        0.000000       -0.680405         3
        17        16        15        49     9      180.000000        0.105082         4
        17        18        19        53     9        0.000000        0.060923         1
        17        18        19        53     9      180.000000       14.800027         2
        17        18        19        53     9        0.000000       -0.680405         3
        17        18        19        53     9      180.000000        0.105082         4
        18        17        16        50     9        0.000000        0.010660         1
        18        17        16        50     9      180.000000       14.271862         2
        18        17        16        50     9        0.000000       -0.794146         3
        18        17        16        50     9      180.000000        0.157356         4
        19        14        13        20     9        0.000000       -0.200700         1
        19        14        13        20     9      180.000000        0.868726         2
        19        14        13        20     9        0.000000       -0.009400         3
        19        14        13        20     9      180.000000        0.236591         4
        19        14        13        48     9        0.000000        0.164796         1
        19        14        13        48     9      180.000000        0.637916         2
        19        14        13        48     9        0.000000        0.052389         3
        19        14        13        48     9      180.000000       -0.143521         4
        19        14        15        49     9        0.000000       -0.069577         1
        19        14        15        49     9      180.000000       14.508781         2
        19        14        15        49     9        0.000000       -0.591210         3
        19        14        15        49     9      180.000000       -0.002966         4
        19        18        17        51     9        0.000000        0.016777         1
        19        18        17        51     9      180.000000       14.282109         2
        19        18        17        51     9        0.000000       -0.780702         3
        19        18        17        51     9      180.000000        0.125906         4
        20        13        12        29     9        0.000000       -0.172615         1
        20        13        12        29     9      180.000000       -1.528768         2
        20        13        12        29     9        0.000000       -0.223222         3
        20        13        12        29     9      180.000000        0.165379         4
        20        13        12        47     9        0.000000       -0.132359         1
        20        13        12        47     9      180.000000       -0.128847         2
        20        13        12        47     9        0.000000        0.112706         3
        20        13        12        47     9      180.000000        0.255319         4
        20        21        22        23     9        0.000000       -0.591693         1
        20        21        22        23     9      180.000000       21.222699         2
        20        21        22        23     9        0.000000        0.141001         3
        20        21        22        23     9      180.000000       -0.799612         4
        20        21        22        24     9        0.000000        0.211434         1
        20        21        22        24     9      180.000000       15.186544         2
        20        21        22        24     9        0.000000        0.100586         3
        20        21        22        24     9      180.000000       -0.077565         4
        20        21        28        27     9        0.000000        0.169268         1
        20        21        28        27     9      180.000000       17.029641         2
        20        21        28        27     9        0.000000        0.222215         3
        20        21        28        27     9      180.000000       -0.606628         4
        20        21        28        29     9        0.000000        0.079343         1
        20        21        28        29     9      180.000000       15.437971         2
        20        21        28        29     9        0.000000        0.331146         3
        20        21        28        29     9      180.000000       -0.572137         4
        21        20        13        48     9        0.000000       -0.088418         1
        21        20        13        48     9      180.000000       -0.374105         2
        21        20        13        48     9        0.000000        0.631899         3
        21        20        13        48     9      180.000000       -0.040100         4
        21        22        24        25     9        0.000000        0.008460         1
        21        22        24        25     9      180.000000       16.590205         2
        21        22        24        25     9        0.000000       -1.509034         3
        21        22        24        25     9      180.000000       -0.342866         4
        21        22        24        55     9        0.000000        0.051836         1
        21        22        24        55     9      180.000000       12.548510         2
        21        22        24        55     9        0.000000       -0.578329         3
        21        22        24        55     9      180.000000        0.141959         4
        21        28        27        25     9        0.000000       -0.056626         1
        21        28        27        25     9      180.000000       18.750341         2
        21        28        27        25     9        0.000000       -1.521217         3
        21        28        27        25     9      180.000000       -0.357562         4
        21        28        27        56     9        0.000000        0.130393         1
        21        28        27        56     9      180.000000       14.174817         2
        21        28        27        56     9        0.000000       -0.320428         3
        21        28        27        56     9      180.000000        0.181591         4
        21        28        29        30     9        0.000000       -2.736889         1
        21        28        29        30     9      180.000000       -1.649805         2
        21        28        29        30     9        0.000000        0.688093         3
        21        28        29        30     9      180.000000       -0.209660         4
        21        28        29        57     9        0.000000        0.128106         1
        21        28        29        57     9      180.000000        0.386077         2
        21        28        29        57     9        0.000000        0.014096         3
        21        28        29        57     9      180.000000        0.020468         4
        22        21        20        54     9        0.000000        2.516106         1
        22        21        20        54     9      180.000000        3.440209         2
        22        21        20        54     9        0.000000        0.216481         3
        22        21        20        54     9      180.000000        0.066096         4
        22        21        28        27     9        0.000000        0.084554         1
        22        21        28        27     9      180.000000       15.237610         2
        22        21        28        27     9        0.000000       -0.795633         3
        22        21        28        27     9      180.000000       -0.301335         4
        22        21        28        29     9        0.000000       -0.029772         1
        22        21        28        29     9      180.000000       12.955001         2
        22        21        28        29     9        0.000000       -0.260664         3
        22        21        28        29     9      180.000000       -0.209537         4
        22        24        25        26     9        0.000000        0.402886         1
        22        24        25        26     9      180.000000       17.285265         2
        22        24        25        26     9        0.000000        0.323074         3
        22        24        25        26     9      180.000000       -0.585240         4
        22        24        25        27     9        0.000000       -0.153853         1
        22        24        25        27     9      180.000000       17.851625         2
        22        24        25        27     9        0.000000       -1.438677         3
        22        24        25        27     9      180.000000       -0.409432         4
        23        22        21        28     9        0.000000        0.117331         1
        23        22        21        28     9      180.000000       16.817439         2
        23        22        21        28     9        0.000000        0.418994         3
        23        22        21        28     9      180.000000       -0.310774         4
        23        22        24        25     9        0.000000        0.701954         1
        23        22        24        25     9      180.000000       23.243039         2
        23        22        24        25     9        0.000000        0.438534         3
        23        22        24        25     9      180.000000       -0.460011         4
        23        22        24        55     9        0.000000        0.304181         1
        23        22        24        55     9      180.000000       16.065946         2
        23        22        24        55     9        0.000000        0.188158         3
        23        22        24        55     9      180.000000        0.390660         4
        24        22        21        28     9        0.000000        0.004839         1
        24        22        21        28     9      180.000000       12.580535         2
        24        22        21        28     9        0.000000       -0.250425         3
        24        22        21        28     9      180.000000       -0.141692         4
        24        25        27        28     9        0.000000       -0.090664         1
        24        25        27        28     9      180.000000       17.737559         2
        24        25        27        28     9        0.000000       -1.543234         3
        24        25        27        28     9      180.000000       -0.406932         4
        24        25        27        56     9        0.000000        0.023885         1
        24        25        27        56     9      180.000000       13.862561         2
        24        25        27        56     9        0.000000       -0.633839         3
        24        25        27        56     9      180.000000        0.079809         4
        25        27        28        29     9        0.000000        0.026081         1
        25        27        28        29     9      180.000000       16.933013         2
        25        27        28        29     9        0.000000       -0.292480         3
        25        27        28        29     9      180.000000       -0.357354         4
        26        25        24        55     9        0.000000        0.209467         1
        26        25        24        55     9      180.000000       12.454861         2
        26        25        24        55     9        0.000000       -0.062914         3
        26        25        24        55     9      180.000000        0.154045         4
        26        25        27        28     9        0.000000        0.291202         1
        26        25        27        28     9      180.000000       17.818825         2
        26        25        27        28     9        0.000000        0.219746         3
        26        25        27        28     9      180.000000       -0.642698         4
        26        25        27        56     9        0.000000        0.113238         1
        26        25        27        56     9      180.000000       12.678024         2
        26        25        27        56     9        0.000000       -0.120456         3
        26        25        27        56     9      180.000000        0.176198         4
        27        25        24        55     9        0.000000        0.095687         1
        27        25        24        55     9      180.000000       12.980202         2
        27        25        24        55     9        0.000000       -0.621807         3
        27        25        24        55     9      180.000000        0.116493         4
        27        28        29        30     9        0.000000        0.312265         1
        27        28        29        30     9      180.000000        0.338887         2
        27        28        29        30     9        0.000000       -0.712652         3
        27        28        29        30     9      180.000000        0.182553         4
        27        28        29        57     9        0.000000       -0.137169         1
        27        28        29        57     9      180.000000       -0.045083         2
        27        28        29        57     9        0.000000       -0.573738         3
        27        28        29        57     9      180.000000       -0.030864         4
        28        21        20        54     9        0.000000        4.556579         1
        28        21        20        54     9      180.000000        4.208907         2
        28        21        20        54     9        0.000000       -0.555926         3
        28        21        20        54     9      180.000000        0.366071         4
        28        29        12        47     9        0.000000       -0.122983         1
        28        29        12        47     9      180.000000        0.035947         2
        28        29        12        47     9        0.000000        0.126665         3
        28        29        12        47     9      180.000000        0.253149         4
        29        12        11        45     9        0.000000       -0.094207         1
        29        12        11        45     9      180.000000        0.065569         2
        29        12        11        45     9        0.000000        0.165131         3
        29        12        11        45     9      180.000000        0.031905         4
        29        12        11        46     9        0.000000       -0.094207         1
        29        12        11        46     9      180.000000        0.065569         2
        29        12        11        46     9        0.000000        0.165131         3
        29        12        11        46     9      180.000000        0.031905         4
        29        12        13        48     9        0.000000       -0.277922         1
        29        12        13        48     9      180.000000       -0.006105         2
        29        12        13        48     9        0.000000        0.105379         3
        29        12        13        48     9      180.000000        0.135758         4
        29        28        27        56     9        0.000000       -0.027968         1
        29        28        27        56     9      180.000000       12.824942         2
        29        28        27        56     9        0.000000       -0.242188         3
        29        28        27        56     9      180.000000        0.161262         4
        29        30         9        42     9        0.000000       -0.924536         1
        29        30         9        42     9      180.000000        0.142617         2
        29        30         9        42     9        0.000000        0.595105         3
        29        30         9        42     9      180.000000        0.150791         4
        30         9         8        40     9        0.000000       -0.243898         1
        30         9         8        40     9      180.000000        0.084929         2
        30         9         8        40     9        0.000000        0.608170         3
        30         9         8        40     9      180.000000        0.025923         4
        30         9         8        41     9        0.000000       -0.243898         1
        30         9         8        41     9      180.000000        0.084929         2
        30         9         8        41     9        0.000000        0.608170         3
        30         9         8        41     9      180.000000        0.025923         4
        30         9        10        43     9        0.000000        0.054477         1
        30         9        10        43     9      180.000000        0.036839         2
        30         9        10        43     9        0.000000        0.325241         3
        30         9        10        43     9      180.000000        0.017049         4
        30         9        10        44     9        0.000000        0.054477         1
        30         9        10        44     9      180.000000        0.036839         2
        30         9        10        44     9        0.000000        0.325241         3
        30         9        10        44     9      180.000000        0.017049         4
        30        29        12        47     9        0.000000       -0.713271         1
        30        29        12        47     9      180.000000       -0.026812         2
        30        29        12        47     9        0.000000        0.048476         3
        30        29        12        47     9      180.000000        0.155774         4
        34         4         5        35     9        0.000000        1.263473         1
        34         4         5        35     9      180.000000       -0.472697         2
        34         4         5        35     9        0.000000        1.250361         3
        34         4         5        35     9      180.000000        0.148870         4
        34         4         5        36     9        0.000000        1.263473         1
        34         4         5        36     9      180.000000       -0.472697         2
        34         4         5        36     9        0.000000        1.250361         3
        34         4         5        36     9      180.000000        0.148870         4
        35         5         6        37     9        0.000000       -0.265554         1
        35         5         6        37     9      180.000000       -0.102865         2
        35         5         6        37     9        0.000000        0.608062         3
        35         5         6        37     9      180.000000       -0.036941         4
        35         5         6        38     9        0.000000       -0.265554         1
        35         5         6        38     9      180.000000       -0.102865         2
        35         5         6        38     9        0.000000        0.608062         3
        35         5         6        38     9      180.000000       -0.036941         4
        36         5         6        37     9        0.000000       -0.265554         1
        36         5         6        37     9      180.000000       -0.102865         2
        36         5         6        37     9        0.000000        0.608062         3
        36         5         6        37     9      180.000000       -0.036941         4
        36         5         6        38     9        0.000000       -0.265554         1
        36         5         6        38     9      180.000000       -0.102865         2
        36         5         6        38     9        0.000000        0.608062         3
        36         5         6        38     9      180.000000       -0.036941         4
        37         6         7        39     9        0.000000       -0.023019         1
        37         6         7        39     9      180.000000       -0.003683         2
        37         6         7        39     9        0.000000        0.251425         3
        37         6         7        39     9      180.000000        0.138606         4
        37         6         7        58     9        0.000000       -0.023020         1
        37         6         7        58     9      180.000000       -0.003683         2
        37         6         7        58     9        0.000000        0.251424         3
        37         6         7        58     9      180.000000        0.138606         4
        38         6         7        39     9        0.000000       -0.023019         1
        38         6         7        39     9      180.000000       -0.003683         2
        38         6         7        39     9        0.000000        0.251425         3
        38         6         7        39     9      180.000000        0.138606         4
        38         6         7        58     9        0.000000       -0.023020         1
        38         6         7        58     9      180.000000       -0.003683         2
        38         6         7        58     9        0.000000        0.251424         3
        38         6         7        58     9      180.000000        0.138606         4
        39         7         8        40     9        0.000000       -0.076981         1
        39         7         8        40     9      180.000000        0.035923         2
        39         7         8        40     9        0.000000        0.411302         3
        39         7         8        40     9      180.000000        0.067766         4
        39         7         8        41     9        0.000000       -0.076981         1
        39         7         8        41     9      180.000000        0.035923         2
        39         7         8        41     9        0.000000        0.411302         3
        39         7         8        41     9      180.000000        0.067766         4
        40         8         7        58     9        0.000000       -0.076980         1
        40         8         7        58     9      180.000000        0.035924         2
        40         8         7        58     9        0.000000        0.411302         3
        40         8         7        58     9      180.000000        0.067766         4
        40         8         9        42     9        0.000000       -0.167183         1
        40         8         9        42     9      180.000000        0.128211         2
        40         8         9        42     9        0.000000        0.668163         3
        40         8         9        42     9      180.000000       -0.040572         4
        41         8         7        58     9        0.000000       -0.076980         1
        41         8         7        58     9      180.000000        0.035924         2
        41         8         7        58     9        0.000000        0.411302         3
        41         8         7        58     9      180.000000        0.067766         4
        41         8         9        42     9        0.000000       -0.167183         1
        41         8         9        42     9      180.000000        0.128211         2
        41         8         9        42     9        0.000000        0.668163         3
        41         8         9        42     9      180.000000       -0.040572         4
        42         9        10        43     9        0.000000        0.101422         1
        42         9        10        43     9      180.000000       -0.004259         2
        42         9        10        43     9        0.000000        0.497665         3
        42         9        10        43     9      180.000000       -0.075271         4
        42         9        10        44     9        0.000000        0.101422         1
        42         9        10        44     9      180.000000       -0.004259         2
        42         9        10        44     9        0.000000        0.497665         3
        42         9        10        44     9      180.000000       -0.075271         4
        43        10        11        45     9        0.000000        0.002806         1
        43        10        11        45     9      180.000000        0.000719         2
        43        10        11        45     9        0.000000        0.291687         3
        43        10        11        45     9      180.000000        0.023503         4
        43        10        11        46     9        0.000000        0.002806         1
        43        10        11        46     9      180.000000        0.000719         2
        43        10        11        46     9        0.000000        0.291687         3
        43        10        11        46     9      180.000000        0.023503         4
        44        10        11        45     9        0.000000        0.002806         1
        44        10        11        45     9      180.000000        0.000719         2
        44        10        11        45     9        0.000000        0.291687         3
        44        10        11        45     9      180.000000        0.023503         4
        44        10        11        46     9        0.000000        0.002806         1
        44        10        11        46     9      180.000000        0.000719         2
        44        10        11        46     9        0.000000        0.291687         3
        44        10        11        46     9      180.000000        0.023503         4
        45        11        12        47     9        0.000000        0.300280         1
        45        11        12        47     9      180.000000        0.083328         2
        45        11        12        47     9        0.000000        0.383291         3
        45        11        12        47     9      180.000000       -0.056411         4
        46        11        12        47     9        0.000000        0.300280         1
        46        11        12        47     9      180.000000        0.083328         2
        46        11        12        47     9        0.000000        0.383291         3
        46        11        12        47     9      180.000000       -0.056411         4
        47        12        13        48     9        0.000000        0.583554         1
        47        12        13        48     9      180.000000        0.096562         2
        47        12        13        48     9        0.000000        0.457936         3
        47        12        13        48     9      180.000000       -0.279237         4
        47        12        29        57     9        0.000000        0.058615         1
        47        12        29        57     9      180.000000        0.077304         2
        47        12        29        57     9        0.000000        0.272934         3
        47        12        29        57     9      180.000000       -0.084568         4
        48        13        20        54     9        0.000000       -0.771406         1
        48        13        20        54     9      180.000000       -0.244059         2
        48        13        20        54     9        0.000000        0.458117         3
        48        13        20        54     9      180.000000       -0.163048         4
        49        15        16        50     9        0.000000       -0.180341         1
        49        15        16        50     9      180.000000       11.789161         2
        49        15        16        50     9        0.000000       -0.659630         3
        49        15        16        50     9      180.000000        0.310085         4
        50        16        17        51     9        0.000000       -0.084557         1
        50        16        17        51     9      180.000000       11.520938         2
        50        16        17        51     9        0.000000       -0.587926         3
        50        16        17        51     9      180.000000        0.263272         4
        51        17        18        52     9        0.000000       -0.084557         1
        51        17        18        52     9      180.000000       11.520938         2
        51        17        18        52     9        0.000000       -0.587926         3
        51        17        18        52     9      180.000000        0.263272         4
        52        18        19        53     9        0.000000       -0.180341         1
        52        18        19        53     9      180.000000       11.789161         2
        52        18        19        53     9        0.000000       -0.659630         3
        52        18        19        53     9      180.000000        0.310085         4

[ dihedrals ] ; impropers
;       ai        aj        ak        al funct           phase               k        pn
         2         1         3         4     4      180.000000       27.893333         2
         2         3         4         1     4      180.000000       27.893333         2
         2         4         1         3     4      180.000000       27.893333         2
        15        14        16        49     4      180.000000        0.182436         2
        15        16        49        14     4      180.000000        0.182436         2
        15        49        14        16     4      180.000000        0.182436         2
        16        15        17        50     4      180.000000        0.258179         2
        16        17        50        15     4      180.000000        0.258179         2
        16        50        15        17     4      180.000000        0.258179         2
        17        16        18        51     4      180.000000        0.333131         2
        17        18        51        16     4      180.000000        0.333131         2
        17        51        16        18     4      180.000000        0.333131         2
        18        17        19        52     4      180.000000        0.258179         2
        18        19        52        17     4      180.000000        0.258179         2
        18        52        17        19     4      180.000000        0.258179         2
        19        14        18        53     4      180.000000        0.182436         2
        19        18        53        14     4      180.000000        0.182436         2
        19        53        14        18     4      180.000000        0.182436         2

[ pairs ]
;       ai        aj funct
         1         5     1
         1        34     1
         2         6     1
         2        35     1
         2        36     1
         3         5     1
         3        31     1
         3        32     1
         3        33     1
         3        34     1
         4         7     1
         4        31     1
         4        32     1
         4        33     1
         4        37     1
         4        38     1
         5         8     1
         5        39     1
         5        58     1
         6         9     1
         6        34     1
         6        40     1
         6        41     1
         7        10     1
         7        30     1
         7        35     1
         7        36     1
         7        42     1
         8        11     1
         8        29     1
         8        37     1
         8        38     1
         8        43     1
         8        44     1
         9        12     1
         9        28     1
         9        39     1
         9        45     1
         9        46     1
         9        57     1
         9        58     1
        10        13     1
        10        29     1
        10        40     1
        10        41     1
        10        47     1
        11        14     1
        11        20     1
        11        28     1
        11        30     1
        11        42     1
        11        48     1
        11        57     1
        12        15     1
        12        19     1
        12        21     1
        12        27     1
        12        43     1
        12        44     1
        12        54     1
        13        16     1
        13        18     1
        13        22     1
        13        28     1
        13        30     1
        13        45     1
        13        46     1
        13        49     1
        13        53     1
        13        57     1
        14        17     1
        14        21     1
        14        29     1
        14        47     1
        14        50     1
        14        52     1
        14        54     1
        15        18     1
        15        20     1
        15        48     1
        15        51     1
        15        53     1
        16        19     1
        16        52     1
        17        49     1
        17        53     1
        18        50     1
        19        20     1
        19        48     1
        19        49     1
        19        51     1
        20        23     1
        20        24     1
        20        27     1
        20        29     1
        20        47     1
        21        25     1
        21        30     1
        21        48     1
        21        55     1
        21        56     1
        21        57     1
        22        26     1
        22        27     1
        22        29     1
        22        54     1
        23        25     1
        23        28     1
        23        55     1
        24        28     1
        24        56     1
        25        29     1
        26        28     1
        26        55     1
        26        56     1
        27        30     1
        27        55     1
        27        57     1
        28        47     1
        28        54     1
        29        42     1
        29        45     1
        29        46     1
        29        48     1
        29        56     1
        30        40     1
        30        41     1
        30        43     1
        30        44     1
        30        47     1
        34        35     1
        34        36     1
        35        37     1
        35        38     1
        36        37     1
        36        38     1
        37        39     1
        37        58     1
        38        39     1
        38        58     1
        39        40     1
        39        41     1
        40        42     1
        40        58     1
        41        42     1
        41        58     1
        42        43     1
        42        44     1
        43        45     1
        43        46     1
        44        45     1
        44        46     1
        45        47     1
        46        47     1
        47        48     1
        47        57     1
        48        54     1
        49        50     1
        50        51     1
        51        52     1
        52        53     1
