; ITP file created by ByteFF-ML, 2026-02-21 07:38:14.645599

[ atomtypes ]
;name           bonded.type        at.num        mass        charge   ptype           sigma         epsilon
 n0bf                                   7      0.0000       0.00000       A     2.76306e-01     4.78434e+00
 c1bf                                   6      0.0000       0.00000       A     3.39582e-01     4.49017e-01
 c2bf                                   6      0.0000       0.00000       A     3.40276e-01     4.49504e-01
 n3bf                                   7      0.0000       0.00000       A     3.19074e-01     9.02829e-01
 c4bf                                   6      0.0000       0.00000       A     3.39908e-01     4.49295e-01
 c5bf                                   6      0.0000       0.00000       A     3.39829e-01     4.52305e-01
 c6bf                                   6      0.0000       0.00000       A     3.39812e-01     4.50515e-01
 c7bf                                   6      0.0000       0.00000       A     3.39938e-01     4.52179e-01
 c8bf                                   6      0.0000       0.00000       A     3.40218e-01     4.51818e-01
 c9bf                                   6      0.0000       0.00000       A     3.39362e-01     4.50344e-01
 c10bf                                  6      0.0000       0.00000       A     3.31416e-01     4.11566e-01
 c11bf                                  6      0.0000       0.00000       A     3.31559e-01     4.13032e-01
 c12bf                                  6      0.0000       0.00000       A     3.31517e-01     4.13352e-01
 c13bf                                  6      0.0000       0.00000       A     3.31506e-01     4.12855e-01
 c14bf                                  6      0.0000       0.00000       A     3.31517e-01     4.13352e-01
 c15bf                                  6      0.0000       0.00000       A     3.31559e-01     4.13032e-01
 n16bf                                  7      0.0000       0.00000       A     3.28286e-01     6.41163e-01
 c17bf                                  6      0.0000       0.00000       A     3.31454e-01     4.11042e-01
 c18bf                                  6      0.0000       0.00000       A     3.31569e-01     4.14507e-01
 c19bf                                  6      0.0000       0.00000       A     3.31508e-01     4.13091e-01
 c20bf                                  6      0.0000       0.00000       A     3.31488e-01     4.14461e-01
 c21bf                                  6      0.0000       0.00000       A     3.39788e-01     4.48602e-01
 f22bf                                  9      0.0000       0.00000       A     3.03460e-01     3.47943e-01
 f23bf                                  9      0.0000       0.00000       A     3.03460e-01     3.47943e-01
 f24bf                                  9      0.0000       0.00000       A     3.03460e-01     3.47943e-01
 c25bf                                  6      0.0000       0.00000       A     3.31217e-01     4.13522e-01
 c26bf                                  6      0.0000       0.00000       A     3.31287e-01     4.10150e-01
 c27bf                                  6      0.0000       0.00000       A     3.39738e-01     4.51731e-01
 o28bf                                  8      0.0000       0.00000       A     3.15748e-01     3.04888e-01
 c29bf                                  6      0.0000       0.00000       A     3.31590e-01     4.16106e-01
 c30bf                                  6      0.0000       0.00000       A     3.31527e-01     4.13087e-01
 c31bf                                  6      0.0000       0.00000       A     3.31494e-01     4.12528e-01
 c32bf                                  6      0.0000       0.00000       A     3.31499e-01     4.12862e-01
 c33bf                                  6      0.0000       0.00000       A     3.31494e-01     4.12528e-01
 c34bf                                  6      0.0000       0.00000       A     3.31527e-01     4.13087e-01
 h35bf                                  1      0.0000       0.00000       A     1.10661e-01     4.11211e-02
 h36bf                                  1      0.0000       0.00000       A     1.10661e-01     4.11211e-02
 h37bf                                  1      0.0000       0.00000       A     1.87616e-01     8.48135e-02
 h38bf                                  1      0.0000       0.00000       A     1.87616e-01     8.48135e-02
 h39bf                                  1      0.0000       0.00000       A     2.41714e-01     8.66745e-02
 h40bf                                  1      0.0000       0.00000       A     2.41714e-01     8.66745e-02
 h41bf                                  1      0.0000       0.00000       A     2.41941e-01     8.82594e-02
 h42bf                                  1      0.0000       0.00000       A     2.41941e-01     8.82594e-02
 h43bf                                  1      0.0000       0.00000       A     2.42692e-01     8.75045e-02
 h44bf                                  1      0.0000       0.00000       A     2.59821e-01     8.71677e-02
 h45bf                                  1      0.0000       0.00000       A     2.59821e-01     8.71677e-02
 h46bf                                  1      0.0000       0.00000       A     2.60017e-01     8.63234e-02
 h47bf                                  1      0.0000       0.00000       A     2.60017e-01     8.63234e-02
 h48bf                                  1      0.0000       0.00000       A     2.59608e-01     8.66043e-02
 h49bf                                  1      0.0000       0.00000       A     2.42675e-01     8.80520e-02
 h50bf                                  1      0.0000       0.00000       A     2.62512e-01     6.76287e-02
 h51bf                                  1      0.0000       0.00000       A     2.62458e-01     6.72647e-02
 h52bf                                  1      0.0000       0.00000       A     2.62457e-01     6.73477e-02
 h53bf                                  1      0.0000       0.00000       A     2.62458e-01     6.72647e-02
 h54bf                                  1      0.0000       0.00000       A     2.62512e-01     6.76287e-02
 h55bf                                  1      0.0000       0.00000       A     1.10887e-01     4.11451e-02
 h56bf                                  1      0.0000       0.00000       A     2.62406e-01     6.70142e-02
 h57bf                                  1      0.0000       0.00000       A     2.62597e-01     6.75951e-02
 h58bf                                  1      0.0000       0.00000       A     2.62549e-01     6.73222e-02
 h59bf                                  1      0.0000       0.00000       A     2.42774e-01     8.84398e-02
 h60bf                                  1      0.0000       0.00000       A     2.62501e-01     6.72791e-02
 h61bf                                  1      0.0000       0.00000       A     2.62480e-01     6.73318e-02
 h62bf                                  1      0.0000       0.00000       A     2.62457e-01     6.73477e-02
 h63bf                                  1      0.0000       0.00000       A     2.62480e-01     6.73318e-02
 h64bf                                  1      0.0000       0.00000       A     2.62501e-01     6.72791e-02
 h65bf                                  1      0.0000       0.00000       A     1.10661e-01     4.11211e-02

[ moleculetype ]
;name             nrexcl
 CHEMBL1093087         3

[ atoms ]
;       nr            type      resi   res      atom      cgnr      charge          mass ; qtot
         1            n0bf         1   UNL        n0         1    -0.99591       14.0070 ; qtot   -0.996
         2            c1bf         1   UNL        c1         2     0.10355       12.0110 ; qtot   -0.892
         3            c2bf         1   UNL        c2         3     0.20079       12.0110 ; qtot   -0.692
         4            n3bf         1   UNL        n3         4    -0.81789       14.0070 ; qtot   -1.509
         5            c4bf         1   UNL        c4         5     0.20906       12.0110 ; qtot   -1.300
         6            c5bf         1   UNL        c5         6     0.15527       12.0110 ; qtot   -1.145
         7            c6bf         1   UNL        c6         7    -0.10092       12.0110 ; qtot   -1.246
         8            c7bf         1   UNL        c7         8    -0.06673       12.0110 ; qtot   -1.313
         9            c8bf         1   UNL        c8         9    -0.09765       12.0110 ; qtot   -1.410
        10            c9bf         1   UNL        c9        10     0.26107       12.0110 ; qtot   -1.149
        11           c10bf         1   UNL       c10        11    -0.10768       12.0110 ; qtot   -1.257
        12           c11bf         1   UNL       c11        12    -0.09640       12.0110 ; qtot   -1.353
        13           c12bf         1   UNL       c12        13    -0.11334       12.0110 ; qtot   -1.467
        14           c13bf         1   UNL       c13        14    -0.10684       12.0110 ; qtot   -1.574
        15           c14bf         1   UNL       c14        15    -0.11334       12.0110 ; qtot   -1.687
        16           c15bf         1   UNL       c15        16    -0.09640       12.0110 ; qtot   -1.783
        17           n16bf         1   UNL       n16        17    -0.92305       14.0070 ; qtot   -2.706
        18           c17bf         1   UNL       c17        18     0.30845       12.0110 ; qtot   -2.398
        19           c18bf         1   UNL       c18        19    -0.17966       12.0110 ; qtot   -2.578
        20           c19bf         1   UNL       c19        20    -0.01484       12.0110 ; qtot   -2.592
        21           c20bf         1   UNL       c20        21    -0.23480       12.0110 ; qtot   -2.827
        22           c21bf         1   UNL       c21        22     0.34500       12.0110 ; qtot   -2.482
        23           f22bf         1   UNL       f22        23    -0.10402       18.9980 ; qtot   -2.586
        24           f23bf         1   UNL       f23        24    -0.10402       18.9980 ; qtot   -2.690
        25           f24bf         1   UNL       f24        25    -0.10402       18.9980 ; qtot   -2.794
        26           c25bf         1   UNL       c25        26     0.01257       12.0110 ; qtot   -2.782
        27           c26bf         1   UNL       c26        27    -0.16291       12.0110 ; qtot   -2.945
        28           c27bf         1   UNL       c27        28     0.22683       12.0110 ; qtot   -2.718
        29           o28bf         1   UNL       o28        29    -0.45612       15.9990 ; qtot   -3.174
        30           c29bf         1   UNL       c29        30     0.21333       12.0110 ; qtot   -2.961
        31           c30bf         1   UNL       c30        31    -0.12734       12.0110 ; qtot   -3.088
        32           c31bf         1   UNL       c31        32    -0.08198       12.0110 ; qtot   -3.170
        33           c32bf         1   UNL       c32        33    -0.14947       12.0110 ; qtot   -3.319
        34           c33bf         1   UNL       c33        34    -0.08198       12.0110 ; qtot   -3.401
        35           c34bf         1   UNL       c34        35    -0.12734       12.0110 ; qtot   -3.529
        36           h35bf         1   UNL       h35        36     0.53171        1.0080 ; qtot   -2.997
        37           h36bf         1   UNL       h36        37     0.53171        1.0080 ; qtot   -2.465
        38           h37bf         1   UNL       h37        38     0.11089        1.0080 ; qtot   -2.354
        39           h38bf         1   UNL       h38        39     0.11089        1.0080 ; qtot   -2.244
        40           h39bf         1   UNL       h39        40     0.08440        1.0080 ; qtot   -2.159
        41           h40bf         1   UNL       h40        41     0.08440        1.0080 ; qtot   -2.075
        42           h41bf         1   UNL       h41        42     0.06044        1.0080 ; qtot   -2.014
        43           h42bf         1   UNL       h42        43     0.06044        1.0080 ; qtot   -1.954
        44           h43bf         1   UNL       h43        44     0.05477        1.0080 ; qtot   -1.899
        45           h44bf         1   UNL       h44        45     0.05225        1.0080 ; qtot   -1.847
        46           h45bf         1   UNL       h45        46     0.05225        1.0080 ; qtot   -1.795
        47           h46bf         1   UNL       h46        47     0.04867        1.0080 ; qtot   -1.746
        48           h47bf         1   UNL       h47        48     0.04867        1.0080 ; qtot   -1.697
        49           h48bf         1   UNL       h48        49     0.06779        1.0080 ; qtot   -1.629
        50           h49bf         1   UNL       h49        50     0.05590        1.0080 ; qtot   -1.574
        51           h50bf         1   UNL       h50        51     0.11749        1.0080 ; qtot   -1.456
        52           h51bf         1   UNL       h51        52     0.11433        1.0080 ; qtot   -1.342
        53           h52bf         1   UNL       h52        53     0.11376        1.0080 ; qtot   -1.228
        54           h53bf         1   UNL       h53        54     0.11433        1.0080 ; qtot   -1.114
        55           h54bf         1   UNL       h54        55     0.11749        1.0080 ; qtot   -0.996
        56           h55bf         1   UNL       h55        56     0.45777        1.0080 ; qtot   -0.538
        57           h56bf         1   UNL       h56        57     0.11995        1.0080 ; qtot   -0.418
        58           h57bf         1   UNL       h57        58     0.13153        1.0080 ; qtot   -0.287
        59           h58bf         1   UNL       h58        59     0.13526        1.0080 ; qtot   -0.152
        60           h59bf         1   UNL       h59        60     0.05463        1.0080 ; qtot   -0.097
        61           h60bf         1   UNL       h60        61     0.11693        1.0080 ; qtot    0.020
        62           h61bf         1   UNL       h61        62     0.10800        1.0080 ; qtot    0.128
        63           h62bf         1   UNL       h62        63     0.11549        1.0080 ; qtot    0.243
        64           h63bf         1   UNL       h63        64     0.10800        1.0080 ; qtot    0.351
        65           h64bf         1   UNL       h64        65     0.11693        1.0080 ; qtot    0.468
        66           h65bf         1   UNL       h65        66     0.53166        1.0080 ; qtot    1.000

[ bonds ]
;       ai        aj funct               r               k
         1         2     1        0.151623   140397.166577
         1        36     1        0.103380   370302.182422
         1        37     1        0.103380   370302.182422
         1        66     1        0.103380   370302.182422
         2         3     1        0.153629   179489.590674
         2        38     1        0.108989   314580.005469
         2        39     1        0.108989   314580.005469
         3         4     1        0.145615   198426.327686
         3        40     1        0.109425   297384.235352
         3        41     1        0.109425   297384.235352
         4         5     1        0.147149   183134.093701
         4        30     1        0.143030   225561.166309
         5         6     1        0.153541   173879.279272
         5        42     1        0.109382   296679.385596
         5        43     1        0.109382   296679.385596
         6         7     1        0.153468   175290.536548
         6        29     1        0.143671   178369.801196
         6        44     1        0.109811   287433.930518
         7         8     1        0.153616   184003.325830
         7        45     1        0.109495   296484.001172
         7        46     1        0.109495   296484.001172
         8         9     1        0.153644   177808.316772
         8        47     1        0.109464   296701.219824
         8        48     1        0.109464   296701.219824
         9        10     1        0.154231   162728.360010
         9        28     1        0.153712   167978.419409
         9        49     1        0.109661   296507.444238
        10        11     1        0.152011   180470.777490
        10        17     1        0.146639   193821.552734
        10        50     1        0.109903   282326.764014
        11        12     1        0.140235   288447.651611
        11        16     1        0.140235   288447.651611
        12        13     1        0.139815   313021.067090
        12        51     1        0.108668   316228.323730
        13        14     1        0.139918   306554.075049
        13        52     1        0.108647   318864.672754
        14        15     1        0.139918   306554.100586
        14        53     1        0.108625   319984.475000
        15        16     1        0.139815   313021.067090
        15        54     1        0.108647   318864.672754
        16        55     1        0.108668   316228.272656
        17        18     1        0.140120   267840.276904
        17        56     1        0.101355   410549.688281
        18        19     1        0.140735   277586.438086
        18        27     1        0.141215   263372.840527
        19        20     1        0.139041   333166.424414
        19        57     1        0.108629   317015.479590
        20        21     1        0.140173   293861.288965
        20        58     1        0.108531   322344.563574
        21        22     1        0.150293   195287.382812
        21        26     1        0.139887   297622.803027
        22        23     1        0.135840   221716.758789
        22        24     1        0.135840   221716.758789
        22        25     1        0.135840   221716.758789
        26        27     1        0.139370   310255.806738
        26        59     1        0.108550   319487.752686
        27        28     1        0.151162   190895.587354
        28        29     1        0.143344   181603.297217
        28        60     1        0.110020   279291.065674
        30        31     1        0.140541   282033.546924
        30        35     1        0.140541   282033.546924
        31        32     1        0.139652   318136.431006
        31        61     1        0.108394   322558.258105
        32        33     1        0.139886   307142.501123
        32        62     1        0.108693   316994.309326
        33        34     1        0.139886   307142.450049
        33        63     1        0.108596   320746.246973
        34        35     1        0.139652   318136.379932
        34        64     1        0.108693   316994.309326
        35        65     1        0.108394   322558.258105

[ angles ]
;       ai        aj        ak funct           theta             cth
         1         2         3     1      109.884727      684.499233
         1         2        38     1      107.275375      558.431845
         1         2        39     1      107.275375      558.431845
         2         1        36     1      110.347244      481.940350
         2         1        37     1      110.347244      481.940350
         2         1        66     1      110.347244      481.940350
         2         3         4     1      111.377701      503.872865
         2         3        40     1      109.137650      487.823845
         2         3        41     1      109.137650      487.823845
         3         2        38     1      111.541992      472.148401
         3         2        39     1      111.541992      472.148401
         3         4         5     1      116.962143      515.794641
         3         4        30     1      116.872330      507.547495
         4         3        40     1      110.405258      454.353249
         4         3        41     1      110.405258      454.353249
         4         5         6     1      114.321754      493.036480
         4         5        42     1      109.030624      460.857296
         4         5        43     1      109.030624      460.857296
         4        30        31     1      120.572952      512.383968
         4        30        35     1      120.572952      512.383968
         5         4        30     1      117.977005      501.138383
         5         6         7     1      113.358154      578.857319
         5         6        29     1      107.599953      615.106991
         5         6        44     1      108.374451      491.281569
         6         5        42     1      108.469360      483.198691
         6         5        43     1      108.469360      483.198691
         6         7         8     1      110.796143      655.216469
         6         7        45     1      109.200668      483.606040
         6         7        46     1      109.200668      483.606040
         6        29        28     1      113.809364      587.672538
         7         6        29     1      110.944046      561.997273
         7         6        44     1      109.103981      474.270599
         7         8         9     1      110.778908      628.422997
         7         8        47     1      109.848694      507.554486
         7         8        48     1      109.848694      507.554486
         8         7        45     1      110.395973      505.940253
         8         7        46     1      110.395973      505.940253
         8         9        10     1      113.390907      594.475624
         8         9        28     1      109.946129      599.778149
         8         9        49     1      108.811119      484.857167
         9         8        47     1      109.615433      494.102047
         9         8        48     1      109.615433      494.102047
         9        10        11     1      112.832138      539.061693
         9        10        17     1      108.654358      596.888945
         9        10        50     1      107.204910      478.962851
         9        28        27     1      112.032791      573.279695
         9        28        29     1      111.126694      582.276866
         9        28        60     1      108.313766      468.104983
        10         9        28     1      109.536171      678.085908
        10         9        49     1      107.115433      495.353525
        10        11        12     1      120.675819      480.145730
        10        11        16     1      120.675819      480.145730
        10        17        18     1      118.392113      536.379083
        10        17        56     1      113.211632      469.750626
        11        10        17     1      111.192749      590.960696
        11        10        50     1      107.631065      485.386711
        11        12        13     1      120.662560      709.918234
        11        12        51     1      119.614586      400.532036
        11        16        15     1      120.662560      709.918234
        11        16        55     1      119.614586      400.532036
        12        11        16     1      118.740906      679.590873
        12        13        14     1      120.153175      705.714570
        12        13        52     1      119.816528      429.696915
        13        12        51     1      119.686012      431.264766
        13        14        15     1      119.511429      689.005895
        13        14        53     1      120.255775      430.416551
        14        13        52     1      120.079079      431.521669
        14        15        16     1      120.153175      705.714570
        14        15        54     1      120.079079      431.521669
        15        14        53     1      120.255775      430.416551
        15        16        55     1      119.686012      431.264766
        16        15        54     1      119.816528      429.696915
        17        10        50     1      109.216263      441.919263
        17        18        19     1      119.853516      544.844699
        17        18        27     1      120.381920      586.867034
        18        17        56     1      113.638138      488.207987
        18        19        20     1      120.859085      770.216712
        18        19        57     1      119.257690      424.611327
        18        27        26     1      119.148849      776.854445
        18        27        28     1      120.031204      561.946773
        19        18        27     1      119.169983      656.365511
        19        20        21     1      119.814743      649.825138
        19        20        58     1      119.982407      418.252204
        20        19        57     1      119.795059      441.763454
        20        21        22     1      119.944260      539.726551
        20        21        26     1      119.428001      627.848668
        21        20        58     1      120.115784      419.580134
        21        22        23     1      112.050613      590.814688
        21        22        24     1      112.050613      590.814688
        21        22        25     1      112.050613      590.814688
        21        26        27     1      121.233292      658.046363
        21        26        59     1      119.835167      412.227936
        22        21        26     1      120.179886      484.271952
        23        22        24     1      106.686356      701.106079
        23        22        25     1      106.686356      701.106079
        24        22        25     1      106.686356      701.106079
        26        27        28     1      120.783203      466.032423
        27        26        59     1      118.870621      400.905548
        27        28        29     1      109.728905      613.648247
        27        28        60     1      108.529274      462.167286
        28         9        49     1      107.249771      504.973163
        29         6        44     1      107.247070      463.738233
        29        28        60     1      107.305214      473.929423
        30        31        32     1      120.345299      728.080673
        30        31        61     1      120.505173      410.333625
        30        35        34     1      120.345299      728.080673
        30        35        65     1      120.505173      410.333625
        31        30        35     1      118.654968      640.158512
        31        32        33     1      120.861816      679.347377
        31        32        62     1      119.073547      425.358543
        32        31        61     1      119.153725      427.960838
        32        33        34     1      118.739662      667.035298
        32        33        63     1      120.617577      434.622800
        33        32        62     1      120.041382      434.006047
        33        34        35     1      120.861816      679.347377
        33        34        64     1      120.041382      434.006047
        34        33        63     1      120.617577      434.622800
        34        35        65     1      119.153725      427.960838
        35        34        64     1      119.073547      425.358543
        36         1        37     1      108.372513      388.994082
        36         1        66     1      108.372513      388.994082
        37         1        66     1      108.372513      388.994082
        38         2        39     1      109.227310      346.497396
        40         3        41     1      106.914894      355.353825
        42         5        43     1      106.929749      352.099535
        45         7        46     1      107.041039      358.100756
        47         8        48     1      106.517052      361.462876

[ dihedrals ] ; propers for gromacs 4.5 or higher, use funct 9
;       ai        aj        ak        al funct           phase               k        pn
         1         2         3         4     9        0.000000       16.259905         1
         1         2         3         4     9      180.000000       -3.823149         2
         1         2         3         4     9        0.000000       -0.535888         3
         1         2         3         4     9      180.000000       -0.085008         4
         1         2         3        40     9        0.000000       -0.281446         1
         1         2         3        40     9      180.000000        0.055582         2
         1         2         3        40     9        0.000000        0.691890         3
         1         2         3        40     9      180.000000       -0.050319         4
         1         2         3        41     9        0.000000       -0.281446         1
         1         2         3        41     9      180.000000        0.055582         2
         1         2         3        41     9        0.000000        0.691890         3
         1         2         3        41     9      180.000000       -0.050319         4
         2         3         4         5     9        0.000000        1.671291         1
         2         3         4         5     9      180.000000       -0.737725         2
         2         3         4         5     9        0.000000        0.942919         3
         2         3         4         5     9      180.000000       -0.117625         4
         2         3         4        30     9        0.000000        0.573891         1
         2         3         4        30     9      180.000000       -0.424103         2
         2         3         4        30     9        0.000000        0.861723         3
         2         3         4        30     9      180.000000       -0.231400         4
         3         2         1        36     9        0.000000        0.173201         1
         3         2         1        36     9      180.000000       -0.109637         2
         3         2         1        36     9        0.000000        0.454114         3
         3         2         1        36     9      180.000000        0.029691         4
         3         2         1        37     9        0.000000        0.173201         1
         3         2         1        37     9      180.000000       -0.109637         2
         3         2         1        37     9        0.000000        0.454114         3
         3         2         1        37     9      180.000000        0.029691         4
         3         2         1        66     9        0.000000        0.173201         1
         3         2         1        66     9      180.000000       -0.109637         2
         3         2         1        66     9        0.000000        0.454114         3
         3         2         1        66     9      180.000000        0.029691         4
         3         4         5         6     9        0.000000        4.877251         1
         3         4         5         6     9      180.000000       -1.547308         2
         3         4         5         6     9        0.000000        0.633299         3
         3         4         5         6     9      180.000000        0.038818         4
         3         4         5        42     9        0.000000       -0.736843         1
         3         4         5        42     9      180.000000        0.059771         2
         3         4         5        42     9        0.000000        0.812927         3
         3         4         5        42     9      180.000000        0.010240         4
         3         4         5        43     9        0.000000       -0.736843         1
         3         4         5        43     9      180.000000        0.059771         2
         3         4         5        43     9        0.000000        0.812927         3
         3         4         5        43     9      180.000000        0.010240         4
         3         4        30        31     9        0.000000        1.360857         1
         3         4        30        31     9      180.000000        4.427525         2
         3         4        30        31     9        0.000000        0.401903         3
         3         4        30        31     9      180.000000        0.415882         4
         3         4        30        35     9        0.000000        1.360857         1
         3         4        30        35     9      180.000000        4.427525         2
         3         4        30        35     9        0.000000        0.401903         3
         3         4        30        35     9      180.000000        0.415882         4
         4         3         2        38     9        0.000000       -0.209410         1
         4         3         2        38     9      180.000000       -0.225903         2
         4         3         2        38     9        0.000000        0.680781         3
         4         3         2        38     9      180.000000        0.175584         4
         4         3         2        39     9        0.000000       -0.209410         1
         4         3         2        39     9      180.000000       -0.225903         2
         4         3         2        39     9        0.000000        0.680781         3
         4         3         2        39     9      180.000000        0.175584         4
         4         5         6         7     9        0.000000        1.060360         1
         4         5         6         7     9      180.000000        0.353513         2
         4         5         6         7     9        0.000000        0.679759         3
         4         5         6         7     9      180.000000       -0.036959         4
         4         5         6        29     9        0.000000       -5.264322         1
         4         5         6        29     9      180.000000       -0.439766         2
         4         5         6        29     9        0.000000        0.405826         3
         4         5         6        29     9      180.000000       -0.063201         4
         4         5         6        44     9        0.000000       -0.423603         1
         4         5         6        44     9      180.000000       -0.326709         2
         4         5         6        44     9        0.000000        0.675647         3
         4         5         6        44     9      180.000000        0.097059         4
         4        30        31        32     9        0.000000        0.452815         1
         4        30        31        32     9      180.000000       18.882085         2
         4        30        31        32     9        0.000000        0.288271         3
         4        30        31        32     9      180.000000       -0.383102         4
         4        30        31        61     9        0.000000       -0.008711         1
         4        30        31        61     9      180.000000       15.099539         2
         4        30        31        61     9        0.000000        0.087599         3
         4        30        31        61     9      180.000000       -0.019837         4
         4        30        35        34     9        0.000000        0.452815         1
         4        30        35        34     9      180.000000       18.882085         2
         4        30        35        34     9        0.000000        0.288271         3
         4        30        35        34     9      180.000000       -0.383102         4
         4        30        35        65     9        0.000000       -0.008711         1
         4        30        35        65     9      180.000000       15.099539         2
         4        30        35        65     9        0.000000        0.087599         3
         4        30        35        65     9      180.000000       -0.019837         4
         5         4         3        40     9        0.000000       -0.607632         1
         5         4         3        40     9      180.000000        0.261446         2
         5         4         3        40     9        0.000000        0.968149         3
         5         4         3        40     9      180.000000       -0.017630         4
         5         4         3        41     9        0.000000       -0.607632         1
         5         4         3        41     9      180.000000        0.261446         2
         5         4         3        41     9        0.000000        0.968149         3
         5         4         3        41     9      180.000000       -0.017630         4
         5         4        30        31     9        0.000000        0.213657         1
         5         4        30        31     9      180.000000        4.839155         2
         5         4        30        31     9        0.000000        0.389425         3
         5         4        30        31     9      180.000000        0.383874         4
         5         4        30        35     9        0.000000        0.213657         1
         5         4        30        35     9      180.000000        4.839155         2
         5         4        30        35     9        0.000000        0.389425         3
         5         4        30        35     9      180.000000        0.383874         4
         5         6         7         8     9        0.000000        0.061783         1
         5         6         7         8     9      180.000000        0.318814         2
         5         6         7         8     9        0.000000        0.279486         3
         5         6         7         8     9      180.000000       -0.028784         4
         5         6         7        45     9        0.000000       -0.056098         1
         5         6         7        45     9      180.000000       -0.030236         2
         5         6         7        45     9        0.000000        0.328934         3
         5         6         7        45     9      180.000000        0.001974         4
         5         6         7        46     9        0.000000       -0.056098         1
         5         6         7        46     9      180.000000       -0.030236         2
         5         6         7        46     9        0.000000        0.328934         3
         5         6         7        46     9      180.000000        0.001974         4
         5         6        29        28     9        0.000000        0.849549         1
         5         6        29        28     9      180.000000       -0.355093         2
         5         6        29        28     9        0.000000        0.333894         3
         5         6        29        28     9      180.000000        0.067686         4
         6         5         4        30     9        0.000000        2.866215         1
         6         5         4        30     9      180.000000       -1.157588         2
         6         5         4        30     9        0.000000        0.491769         3
         6         5         4        30     9      180.000000        0.008781         4
         6         7         8         9     9        0.000000        0.698890         1
         6         7         8         9     9      180.000000       -1.140050         2
         6         7         8         9     9        0.000000        0.095589         3
         6         7         8         9     9      180.000000        0.147967         4
         6         7         8        47     9        0.000000       -0.046809         1
         6         7         8        47     9      180.000000        0.031096         2
         6         7         8        47     9        0.000000        0.176779         3
         6         7         8        47     9      180.000000        0.005172         4
         6         7         8        48     9        0.000000       -0.046809         1
         6         7         8        48     9      180.000000        0.031096         2
         6         7         8        48     9        0.000000        0.176779         3
         6         7         8        48     9      180.000000        0.005172         4
         6        29        28         9     9        0.000000        5.903524         1
         6        29        28         9     9      180.000000       -3.098603         2
         6        29        28         9     9        0.000000        0.029575         3
         6        29        28         9     9      180.000000        0.182358         4
         6        29        28        27     9        0.000000        0.232537         1
         6        29        28        27     9      180.000000       -1.006373         2
         6        29        28        27     9        0.000000        0.724710         3
         6        29        28        27     9      180.000000        0.114677         4
         6        29        28        60     9        0.000000       -0.082938         1
         6        29        28        60     9      180.000000        0.234806         2
         6        29        28        60     9        0.000000        0.602957         3
         6        29        28        60     9      180.000000        0.046278         4
         7         6         5        42     9        0.000000       -0.291228         1
         7         6         5        42     9      180.000000       -0.041498         2
         7         6         5        42     9        0.000000        0.618175         3
         7         6         5        42     9      180.000000        0.076779         4
         7         6         5        43     9        0.000000       -0.291228         1
         7         6         5        43     9      180.000000       -0.041498         2
         7         6         5        43     9        0.000000        0.618175         3
         7         6         5        43     9      180.000000        0.076779         4
         7         6        29        28     9        0.000000        4.763307         1
         7         6        29        28     9      180.000000       -1.846113         2
         7         6        29        28     9        0.000000        0.048902         3
         7         6        29        28     9      180.000000        0.187539         4
         7         8         9        10     9        0.000000        0.240137         1
         7         8         9        10     9      180.000000       -0.410420         2
         7         8         9        10     9        0.000000        0.341464         3
         7         8         9        10     9      180.000000        0.014304         4
         7         8         9        28     9        0.000000        0.870386         1
         7         8         9        28     9      180.000000       -0.957404         2
         7         8         9        28     9        0.000000        0.109246         3
         7         8         9        28     9      180.000000        0.077453         4
         7         8         9        49     9        0.000000       -0.845870         1
         7         8         9        49     9      180.000000       -0.012292         2
         7         8         9        49     9        0.000000        0.207725         3
         7         8         9        49     9      180.000000        0.136214         4
         8         7         6        29     9        0.000000       -0.283785         1
         8         7         6        29     9      180.000000       -0.424975         2
         8         7         6        29     9        0.000000        0.206444         3
         8         7         6        29     9      180.000000        0.016788         4
         8         7         6        44     9        0.000000       -0.136568         1
         8         7         6        44     9      180.000000       -0.003605         2
         8         7         6        44     9        0.000000        0.416998         3
         8         7         6        44     9      180.000000        0.027177         4
         8         9        10        11     9        0.000000        1.303541         1
         8         9        10        11     9      180.000000       -0.496284         2
         8         9        10        11     9        0.000000        0.900889         3
         8         9        10        11     9      180.000000        0.115170         4
         8         9        10        17     9        0.000000       -1.975380         1
         8         9        10        17     9      180.000000        0.761714         2
         8         9        10        17     9        0.000000        0.324624         3
         8         9        10        17     9      180.000000       -0.110841         4
         8         9        10        50     9        0.000000       -0.246554         1
         8         9        10        50     9      180.000000        0.175431         2
         8         9        10        50     9        0.000000        0.515931         3
         8         9        10        50     9      180.000000       -0.011084         4
         8         9        28        27     9        0.000000        0.503391         1
         8         9        28        27     9      180.000000       -1.292606         2
         8         9        28        27     9        0.000000        0.330058         3
         8         9        28        27     9      180.000000        0.021548         4
         8         9        28        29     9        0.000000       -0.288933         1
         8         9        28        29     9      180.000000       -1.362549         2
         8         9        28        29     9        0.000000        0.277320         3
         8         9        28        29     9      180.000000        0.117981         4
         8         9        28        60     9        0.000000       -0.100620         1
         8         9        28        60     9      180.000000        0.200569         2
         8         9        28        60     9        0.000000        0.270608         3
         8         9        28        60     9      180.000000        0.098303         4
         9         8         7        45     9        0.000000       -0.047945         1
         9         8         7        45     9      180.000000        0.015092         2
         9         8         7        45     9        0.000000        0.181300         3
         9         8         7        45     9      180.000000        0.007819         4
         9         8         7        46     9        0.000000       -0.047945         1
         9         8         7        46     9      180.000000        0.015092         2
         9         8         7        46     9        0.000000        0.181300         3
         9         8         7        46     9      180.000000        0.007819         4
         9        10        11        12     9        0.000000       -0.353839         1
         9        10        11        12     9      180.000000       -0.104567         2
         9        10        11        12     9        0.000000        0.105252         3
         9        10        11        12     9      180.000000        0.005143         4
         9        10        11        16     9        0.000000       -0.353839         1
         9        10        11        16     9      180.000000       -0.104567         2
         9        10        11        16     9        0.000000        0.105252         3
         9        10        11        16     9      180.000000        0.005143         4
         9        10        17        18     9        0.000000        5.940340         1
         9        10        17        18     9      180.000000       -3.136762         2
         9        10        17        18     9        0.000000       -0.048298         3
         9        10        17        18     9      180.000000        0.710953         4
         9        10        17        56     9        0.000000        3.523492         1
         9        10        17        56     9      180.000000       -3.065426         2
         9        10        17        56     9        0.000000        0.126339         3
         9        10        17        56     9      180.000000        0.382838         4
         9        28        27        18     9        0.000000        4.293933         1
         9        28        27        18     9      180.000000       -3.954743         2
         9        28        27        18     9        0.000000       -0.194479         3
         9        28        27        18     9      180.000000        0.800821         4
         9        28        27        26     9        0.000000       -0.542126         1
         9        28        27        26     9      180.000000       -0.814156         2
         9        28        27        26     9        0.000000       -0.584072         3
         9        28        27        26     9      180.000000        0.236434         4
        10         9         8        47     9        0.000000       -0.011596         1
        10         9         8        47     9      180.000000        0.032133         2
        10         9         8        47     9        0.000000        0.284175         3
        10         9         8        47     9      180.000000        0.002952         4
        10         9         8        48     9        0.000000       -0.011596         1
        10         9         8        48     9      180.000000        0.032133         2
        10         9         8        48     9        0.000000        0.284175         3
        10         9         8        48     9      180.000000        0.002952         4
        10         9        28        27     9        0.000000        2.021808         1
        10         9        28        27     9      180.000000       -2.858627         2
        10         9        28        27     9        0.000000        0.020286         3
        10         9        28        27     9      180.000000        0.190165         4
        10         9        28        29     9        0.000000        0.349296         1
        10         9        28        29     9      180.000000       -3.887239         2
        10         9        28        29     9        0.000000        0.112653         3
        10         9        28        29     9      180.000000        0.401133         4
        10         9        28        60     9        0.000000       -0.420341         1
        10         9        28        60     9      180.000000        0.124945         2
        10         9        28        60     9        0.000000        0.063006         3
        10         9        28        60     9      180.000000        0.141844         4
        10        11        12        13     9        0.000000        0.090192         1
        10        11        12        13     9      180.000000       14.679497         2
        10        11        12        13     9        0.000000       -0.138716         3
        10        11        12        13     9      180.000000       -0.078602         4
        10        11        12        51     9        0.000000       -0.040953         1
        10        11        12        51     9      180.000000       12.731300         2
        10        11        12        51     9        0.000000       -0.361223         3
        10        11        12        51     9      180.000000        0.182937         4
        10        11        16        15     9        0.000000        0.090192         1
        10        11        16        15     9      180.000000       14.679497         2
        10        11        16        15     9        0.000000       -0.138716         3
        10        11        16        15     9      180.000000       -0.078602         4
        10        11        16        55     9        0.000000       -0.040953         1
        10        11        16        55     9      180.000000       12.731300         2
        10        11        16        55     9        0.000000       -0.361223         3
        10        11        16        55     9      180.000000        0.182937         4
        10        17        18        19     9        0.000000       -0.720221         1
        10        17        18        19     9      180.000000        3.224797         2
        10        17        18        19     9        0.000000        0.007484         3
        10        17        18        19     9      180.000000        0.386793         4
        10        17        18        27     9        0.000000        3.392995         1
        10        17        18        27     9      180.000000        0.902665         2
        10        17        18        27     9        0.000000       -0.216725         3
        10        17        18        27     9      180.000000        0.933904         4
        11        10         9        28     9        0.000000       -0.390745         1
        11        10         9        28     9      180.000000       -0.204484         2
        11        10         9        28     9        0.000000        0.350290         3
        11        10         9        28     9      180.000000        0.075818         4
        11        10         9        49     9        0.000000        0.044425         1
        11        10         9        49     9      180.000000       -0.036011         2
        11        10         9        49     9        0.000000        0.459679         3
        11        10         9        49     9      180.000000       -0.060270         4
        11        10        17        18     9        0.000000        1.082019         1
        11        10        17        18     9      180.000000       -0.660171         2
        11        10        17        18     9        0.000000        0.773072         3
        11        10        17        18     9      180.000000        0.092282         4
        11        10        17        56     9        0.000000        3.195030         1
        11        10        17        56     9      180.000000       -1.053801         2
        11        10        17        56     9        0.000000        0.110169         3
        11        10        17        56     9      180.000000       -0.141080         4
        11        12        13        14     9        0.000000        0.027332         1
        11        12        13        14     9      180.000000       18.735526         2
        11        12        13        14     9        0.000000       -1.491713         3
        11        12        13        14     9      180.000000       -0.406339         4
        11        12        13        52     9        0.000000        0.060410         1
        11        12        13        52     9      180.000000       14.990248         2
        11        12        13        52     9        0.000000       -0.580983         3
        11        12        13        52     9      180.000000        0.057213         4
        11        16        15        14     9        0.000000        0.027332         1
        11        16        15        14     9      180.000000       18.735526         2
        11        16        15        14     9        0.000000       -1.491713         3
        11        16        15        14     9      180.000000       -0.406339         4
        11        16        15        54     9        0.000000        0.060410         1
        11        16        15        54     9      180.000000       14.990248         2
        11        16        15        54     9        0.000000       -0.580983         3
        11        16        15        54     9      180.000000        0.057213         4
        12        11        10        17     9        0.000000       -0.070385         1
        12        11        10        17     9      180.000000        0.892704         2
        12        11        10        17     9        0.000000       -0.026553         3
        12        11        10        17     9      180.000000        0.262291         4
        12        11        10        50     9        0.000000        0.166577         1
        12        11        10        50     9      180.000000        0.665434         2
        12        11        10        50     9        0.000000        0.050777         3
        12        11        10        50     9      180.000000       -0.152664         4
        12        11        16        15     9        0.000000       -0.144447         1
        12        11        16        15     9      180.000000       19.062213         2
        12        11        16        15     9        0.000000       -1.504557         3
        12        11        16        15     9      180.000000       -0.477342         4
        12        11        16        55     9        0.000000       -0.069578         1
        12        11        16        55     9      180.000000       14.508781         2
        12        11        16        55     9        0.000000       -0.591210         3
        12        11        16        55     9      180.000000       -0.002966         4
        12        13        14        15     9        0.000000       -0.058929         1
        12        13        14        15     9      180.000000       18.660780         2
        12        13        14        15     9        0.000000       -1.621208         3
        12        13        14        15     9      180.000000       -0.382782         4
        12        13        14        53     9        0.000000        0.016776         1
        12        13        14        53     9      180.000000       14.282110         2
        12        13        14        53     9        0.000000       -0.780703         3
        12        13        14        53     9      180.000000        0.125907         4
        13        12        11        16     9        0.000000       -0.144447         1
        13        12        11        16     9      180.000000       19.062213         2
        13        12        11        16     9        0.000000       -1.504557         3
        13        12        11        16     9      180.000000       -0.477342         4
        13        14        15        16     9        0.000000       -0.058929         1
        13        14        15        16     9      180.000000       18.660780         2
        13        14        15        16     9        0.000000       -1.621208         3
        13        14        15        16     9      180.000000       -0.382782         4
        13        14        15        54     9        0.000000        0.010660         1
        13        14        15        54     9      180.000000       14.271862         2
        13        14        15        54     9        0.000000       -0.794146         3
        13        14        15        54     9      180.000000        0.157356         4
        14        13        12        51     9        0.000000        0.060923         1
        14        13        12        51     9      180.000000       14.800026         2
        14        13        12        51     9        0.000000       -0.680406         3
        14        13        12        51     9      180.000000        0.105081         4
        14        15        16        55     9        0.000000        0.060923         1
        14        15        16        55     9      180.000000       14.800026         2
        14        15        16        55     9        0.000000       -0.680406         3
        14        15        16        55     9      180.000000        0.105081         4
        15        14        13        52     9        0.000000        0.010660         1
        15        14        13        52     9      180.000000       14.271862         2
        15        14        13        52     9        0.000000       -0.794146         3
        15        14        13        52     9      180.000000        0.157356         4
        16        11        10        17     9        0.000000       -0.070385         1
        16        11        10        17     9      180.000000        0.892704         2
        16        11        10        17     9        0.000000       -0.026553         3
        16        11        10        17     9      180.000000        0.262291         4
        16        11        10        50     9        0.000000        0.166577         1
        16        11        10        50     9      180.000000        0.665434         2
        16        11        10        50     9        0.000000        0.050777         3
        16        11        10        50     9      180.000000       -0.152664         4
        16        11        12        51     9        0.000000       -0.069578         1
        16        11        12        51     9      180.000000       14.508781         2
        16        11        12        51     9        0.000000       -0.591210         3
        16        11        12        51     9      180.000000       -0.002966         4
        16        15        14        53     9        0.000000        0.016776         1
        16        15        14        53     9      180.000000       14.282110         2
        16        15        14        53     9        0.000000       -0.780703         3
        16        15        14        53     9      180.000000        0.125907         4
        17        10         9        28     9        0.000000       -0.209611         1
        17        10         9        28     9      180.000000       -1.727949         2
        17        10         9        28     9        0.000000       -0.219876         3
        17        10         9        28     9      180.000000        0.203053         4
        17        10         9        49     9        0.000000       -0.081846         1
        17        10         9        49     9      180.000000        0.009201         2
        17        10         9        49     9        0.000000        0.106304         3
        17        10         9        49     9      180.000000        0.240746         4
        17        18        19        20     9        0.000000        0.394468         1
        17        18        19        20     9      180.000000       18.736527         2
        17        18        19        20     9        0.000000        0.460433         3
        17        18        19        20     9      180.000000       -0.281803         4
        17        18        19        57     9        0.000000       -0.277981         1
        17        18        19        57     9      180.000000       15.530411         2
        17        18        19        57     9        0.000000       -0.156391         3
        17        18        19        57     9      180.000000        0.040110         4
        17        18        27        26     9        0.000000        0.175401         1
        17        18        27        26     9      180.000000       17.341018         2
        17        18        27        26     9        0.000000        0.120033         3
        17        18        27        26     9      180.000000       -0.597495         4
        17        18        27        28     9        0.000000       -0.124381         1
        17        18        27        28     9      180.000000       15.923271         2
        17        18        27        28     9        0.000000        0.400658         3
        17        18        27        28     9      180.000000       -0.553014         4
        18        17        10        50     9        0.000000       -0.112047         1
        18        17        10        50     9      180.000000       -0.155154         2
        18        17        10        50     9        0.000000        0.621817         3
        18        17        10        50     9      180.000000       -0.029643         4
        18        19        20        21     9        0.000000        0.055676         1
        18        19        20        21     9      180.000000       18.406921         2
        18        19        20        21     9        0.000000       -1.912953         3
        18        19        20        21     9      180.000000       -0.412704         4
        18        19        20        58     9        0.000000        0.076473         1
        18        19        20        58     9      180.000000       14.070312         2
        18        19        20        58     9        0.000000       -0.680250         3
        18        19        20        58     9      180.000000        0.120126         4
        18        27        26        21     9        0.000000       -0.001933         1
        18        27        26        21     9      180.000000       18.915732         2
        18        27        26        21     9        0.000000       -1.767627         3
        18        27        26        21     9      180.000000       -0.421815         4
        18        27        26        59     9        0.000000        0.151074         1
        18        27        26        59     9      180.000000       14.320046         2
        18        27        26        59     9        0.000000       -0.365311         3
        18        27        26        59     9      180.000000        0.114163         4
        18        27        28        29     9        0.000000       -4.721551         1
        18        27        28        29     9      180.000000       -1.276440         2
        18        27        28        29     9        0.000000        0.677518         3
        18        27        28        29     9      180.000000       -0.217993         4
        18        27        28        60     9        0.000000       -0.042147         1
        18        27        28        60     9      180.000000        0.399597         2
        18        27        28        60     9        0.000000        0.152654         3
        18        27        28        60     9      180.000000        0.034748         4
        19        18        17        56     9        0.000000       -0.833285         1
        19        18        17        56     9      180.000000        4.468194         2
        19        18        17        56     9        0.000000        0.018400         3
        19        18        17        56     9      180.000000        0.261817         4
        19        18        27        26     9        0.000000        0.026764         1
        19        18        27        26     9      180.000000       14.737101         2
        19        18        27        26     9        0.000000       -0.705376         3
        19        18        27        26     9      180.000000       -0.274300         4
        19        18        27        28     9        0.000000        0.000280         1
        19        18        27        28     9      180.000000       12.297920         2
        19        18        27        28     9        0.000000       -0.225538         3
        19        18        27        28     9      180.000000       -0.094193         4
        19        20        21        22     9        0.000000        0.032550         1
        19        20        21        22     9      180.000000       14.438455         2
        19        20        21        22     9        0.000000       -0.070406         3
        19        20        21        22     9      180.000000       -0.263928         4
        19        20        21        26     9        0.000000       -0.087045         1
        19        20        21        26     9      180.000000       18.415396         2
        19        20        21        26     9        0.000000       -1.600674         3
        19        20        21        26     9      180.000000       -0.395144         4
        20        19        18        27     9        0.000000        0.031508         1
        20        19        18        27     9      180.000000       16.807129         2
        20        19        18        27     9        0.000000       -0.691304         3
        20        19        18        27     9      180.000000       -0.383093         4
        20        21        22        23     9        0.000000       -0.000025         1
        20        21        22        23     9      180.000000        0.048574         2
        20        21        22        23     9        0.000000        0.186873         3
        20        21        22        23     9      180.000000        0.032348         4
        20        21        22        24     9        0.000000       -0.000025         1
        20        21        22        24     9      180.000000        0.048574         2
        20        21        22        24     9        0.000000        0.186873         3
        20        21        22        24     9      180.000000        0.032348         4
        20        21        22        25     9        0.000000       -0.000025         1
        20        21        22        25     9      180.000000        0.048574         2
        20        21        22        25     9        0.000000        0.186873         3
        20        21        22        25     9      180.000000        0.032348         4
        20        21        26        27     9        0.000000       -0.011175         1
        20        21        26        27     9      180.000000       17.759801         2
        20        21        26        27     9        0.000000       -1.674414         3
        20        21        26        27     9      180.000000       -0.400159         4
        20        21        26        59     9        0.000000        0.124948         1
        20        21        26        59     9      180.000000       14.034475         2
        20        21        26        59     9        0.000000       -0.702800         3
        20        21        26        59     9      180.000000        0.060915         4
        21        20        19        57     9        0.000000        0.072242         1
        21        20        19        57     9      180.000000       15.427600         2
        21        20        19        57     9        0.000000       -0.713637         3
        21        20        19        57     9      180.000000        0.090773         4
        21        26        27        28     9        0.000000       -0.047647         1
        21        26        27        28     9      180.000000       17.449493         2
        21        26        27        28     9        0.000000       -0.523161         3
        21        26        27        28     9      180.000000       -0.431148         4
        22        21        20        58     9        0.000000        0.122363         1
        22        21        20        58     9      180.000000       11.493078         2
        22        21        20        58     9        0.000000       -0.272449         3
        22        21        20        58     9      180.000000        0.132038         4
        22        21        26        27     9        0.000000        0.031312         1
        22        21        26        27     9      180.000000       14.343546         2
        22        21        26        27     9        0.000000       -0.113218         3
        22        21        26        27     9      180.000000       -0.321206         4
        22        21        26        59     9        0.000000        0.021233         1
        22        21        26        59     9      180.000000       11.255697         2
        22        21        26        59     9        0.000000       -0.353476         3
        22        21        26        59     9      180.000000        0.163686         4
        23        22        21        26     9        0.000000       -0.028912         1
        23        22        21        26     9      180.000000        0.059371         2
        23        22        21        26     9        0.000000        0.082074         3
        23        22        21        26     9      180.000000        0.049959         4
        24        22        21        26     9        0.000000       -0.028912         1
        24        22        21        26     9      180.000000        0.059371         2
        24        22        21        26     9        0.000000        0.082074         3
        24        22        21        26     9      180.000000        0.049959         4
        25        22        21        26     9        0.000000       -0.028912         1
        25        22        21        26     9      180.000000        0.059371         2
        25        22        21        26     9        0.000000        0.082074         3
        25        22        21        26     9      180.000000        0.049959         4
        26        21        20        58     9        0.000000        0.163703         1
        26        21        20        58     9      180.000000       13.957222         2
        26        21        20        58     9        0.000000       -0.633766         3
        26        21        20        58     9      180.000000        0.029794         4
        26        27        28        29     9        0.000000       -0.427540         1
        26        27        28        29     9      180.000000        0.392632         2
        26        27        28        29     9        0.000000       -0.828367         3
        26        27        28        29     9      180.000000        0.169668         4
        26        27        28        60     9        0.000000       -0.085745         1
        26        27        28        60     9      180.000000       -0.041454         2
        26        27        28        60     9        0.000000       -0.645758         3
        26        27        28        60     9      180.000000        0.017658         4
        27        18        17        56     9        0.000000        5.986843         1
        27        18        17        56     9      180.000000        4.005795         2
        27        18        17        56     9        0.000000       -0.592975         3
        27        18        17        56     9      180.000000        0.382813         4
        27        18        19        57     9        0.000000        0.020995         1
        27        18        19        57     9      180.000000       12.789968         2
        27        18        19        57     9        0.000000       -0.209461         3
        27        18        19        57     9      180.000000        0.003015         4
        27        28         9        49     9        0.000000       -0.117973         1
        27        28         9        49     9      180.000000        0.034288         2
        27        28         9        49     9        0.000000        0.112251         3
        27        28         9        49     9      180.000000        0.233113         4
        28         9         8        47     9        0.000000       -0.118216         1
        28         9         8        47     9      180.000000        0.073215         2
        28         9         8        47     9        0.000000        0.150839         3
        28         9         8        47     9      180.000000        0.036023         4
        28         9         8        48     9        0.000000       -0.118216         1
        28         9         8        48     9      180.000000        0.073215         2
        28         9         8        48     9        0.000000        0.150839         3
        28         9         8        48     9      180.000000        0.036023         4
        28         9        10        50     9        0.000000       -0.125298         1
        28         9        10        50     9      180.000000       -0.032753         2
        28         9        10        50     9        0.000000        0.097338         3
        28         9        10        50     9      180.000000        0.143143         4
        28        27        26        59     9        0.000000       -0.033193         1
        28        27        26        59     9      180.000000       12.826044         2
        28        27        26        59     9        0.000000       -0.343922         3
        28        27        26        59     9      180.000000        0.168412         4
        28        29         6        44     9        0.000000       -0.367349         1
        28        29         6        44     9      180.000000        0.063286         2
        28        29         6        44     9        0.000000        0.366154         3
        28        29         6        44     9      180.000000        0.045631         4
        29         6         5        42     9        0.000000        0.075641         1
        29         6         5        42     9      180.000000       -0.028593         2
        29         6         5        42     9        0.000000        0.505988         3
        29         6         5        42     9      180.000000        0.076416         4
        29         6         5        43     9        0.000000        0.075641         1
        29         6         5        43     9      180.000000       -0.028593         2
        29         6         5        43     9        0.000000        0.505988         3
        29         6         5        43     9      180.000000        0.076416         4
        29         6         7        45     9        0.000000       -0.059529         1
        29         6         7        45     9      180.000000        0.005164         2
        29         6         7        45     9        0.000000        0.203413         3
        29         6         7        45     9      180.000000        0.003288         4
        29         6         7        46     9        0.000000       -0.059529         1
        29         6         7        46     9      180.000000        0.005164         2
        29         6         7        46     9        0.000000        0.203413         3
        29         6         7        46     9      180.000000        0.003288         4
        29        28         9        49     9        0.000000       -0.493439         1
        29        28         9        49     9      180.000000        0.194796         2
        29        28         9        49     9        0.000000        0.016211         3
        29        28         9        49     9      180.000000        0.221543         4
        30         4         3        40     9        0.000000       -0.765543         1
        30         4         3        40     9      180.000000        0.401785         2
        30         4         3        40     9        0.000000        0.846235         3
        30         4         3        40     9      180.000000        0.069446         4
        30         4         3        41     9        0.000000       -0.765543         1
        30         4         3        41     9      180.000000        0.401785         2
        30         4         3        41     9        0.000000        0.846235         3
        30         4         3        41     9      180.000000        0.069446         4
        30         4         5        42     9        0.000000       -0.768104         1
        30         4         5        42     9      180.000000        0.206319         2
        30         4         5        42     9        0.000000        0.794364         3
        30         4         5        42     9      180.000000        0.029527         4
        30         4         5        43     9        0.000000       -0.768104         1
        30         4         5        43     9      180.000000        0.206319         2
        30         4         5        43     9        0.000000        0.794364         3
        30         4         5        43     9      180.000000        0.029527         4
        30        31        32        33     9        0.000000       -0.051941         1
        30        31        32        33     9      180.000000       18.712975         2
        30        31        32        33     9        0.000000       -1.504732         3
        30        31        32        33     9      180.000000       -0.543715         4
        30        31        32        62     9        0.000000        0.070160         1
        30        31        32        62     9      180.000000       14.293051         2
        30        31        32        62     9        0.000000       -0.763827         3
        30        31        32        62     9      180.000000       -0.023798         4
        30        35        34        33     9        0.000000       -0.051941         1
        30        35        34        33     9      180.000000       18.712975         2
        30        35        34        33     9        0.000000       -1.504732         3
        30        35        34        33     9      180.000000       -0.543715         4
        30        35        34        64     9        0.000000        0.070160         1
        30        35        34        64     9      180.000000       14.293051         2
        30        35        34        64     9        0.000000       -0.763827         3
        30        35        34        64     9      180.000000       -0.023798         4
        31        30        35        34     9        0.000000       -0.051861         1
        31        30        35        34     9      180.000000       17.470563         2
        31        30        35        34     9        0.000000       -1.132141         3
        31        30        35        34     9      180.000000       -0.353540         4
        31        30        35        65     9        0.000000       -0.030182         1
        31        30        35        65     9      180.000000       12.884982         2
        31        30        35        65     9        0.000000       -0.558739         3
        31        30        35        65     9      180.000000        0.124570         4
        31        32        33        34     9        0.000000       -0.010351         1
        31        32        33        34     9      180.000000       18.559246         2
        31        32        33        34     9        0.000000       -1.690390         3
        31        32        33        34     9      180.000000       -0.360310         4
        31        32        33        63     9        0.000000        0.073056         1
        31        32        33        63     9      180.000000       13.804161         2
        31        32        33        63     9        0.000000       -0.758763         3
        31        32        33        63     9      180.000000        0.175594         4
        32        31        30        35     9        0.000000       -0.051861         1
        32        31        30        35     9      180.000000       17.470563         2
        32        31        30        35     9        0.000000       -1.132141         3
        32        31        30        35     9      180.000000       -0.353540         4
        32        33        34        35     9        0.000000       -0.010351         1
        32        33        34        35     9      180.000000       18.559246         2
        32        33        34        35     9        0.000000       -1.690390         3
        32        33        34        35     9      180.000000       -0.360310         4
        32        33        34        64     9        0.000000        0.029755         1
        32        33        34        64     9      180.000000       14.407935         2
        32        33        34        64     9        0.000000       -0.817036         3
        32        33        34        64     9      180.000000        0.139705         4
        33        32        31        61     9        0.000000        0.080490         1
        33        32        31        61     9      180.000000       14.423535         2
        33        32        31        61     9        0.000000       -0.694132         3
        33        32        31        61     9      180.000000        0.193139         4
        33        34        35        65     9        0.000000        0.080490         1
        33        34        35        65     9      180.000000       14.423535         2
        33        34        35        65     9        0.000000       -0.694132         3
        33        34        35        65     9      180.000000        0.193139         4
        34        33        32        62     9        0.000000        0.029755         1
        34        33        32        62     9      180.000000       14.407935         2
        34        33        32        62     9        0.000000       -0.817036         3
        34        33        32        62     9      180.000000        0.139705         4
        35        30        31        61     9        0.000000       -0.030182         1
        35        30        31        61     9      180.000000       12.884982         2
        35        30        31        61     9        0.000000       -0.558739         3
        35        30        31        61     9      180.000000        0.124570         4
        35        34        33        63     9        0.000000        0.073056         1
        35        34        33        63     9      180.000000       13.804161         2
        35        34        33        63     9        0.000000       -0.758763         3
        35        34        33        63     9      180.000000        0.175594         4
        36         1         2        38     9        0.000000       -0.016568         1
        36         1         2        38     9      180.000000        0.031053         2
        36         1         2        38     9        0.000000        0.391775         3
        36         1         2        38     9      180.000000        0.096823         4
        36         1         2        39     9        0.000000       -0.016568         1
        36         1         2        39     9      180.000000        0.031053         2
        36         1         2        39     9        0.000000        0.391775         3
        36         1         2        39     9      180.000000        0.096823         4
        37         1         2        38     9        0.000000       -0.016568         1
        37         1         2        38     9      180.000000        0.031053         2
        37         1         2        38     9        0.000000        0.391775         3
        37         1         2        38     9      180.000000        0.096823         4
        37         1         2        39     9        0.000000       -0.016568         1
        37         1         2        39     9      180.000000        0.031053         2
        37         1         2        39     9        0.000000        0.391775         3
        37         1         2        39     9      180.000000        0.096823         4
        38         2         1        66     9        0.000000       -0.016568         1
        38         2         1        66     9      180.000000        0.031053         2
        38         2         1        66     9        0.000000        0.391775         3
        38         2         1        66     9      180.000000        0.096823         4
        38         2         3        40     9        0.000000       -0.067627         1
        38         2         3        40     9      180.000000        0.000588         2
        38         2         3        40     9        0.000000        0.662270         3
        38         2         3        40     9      180.000000       -0.032025         4
        38         2         3        41     9        0.000000       -0.067627         1
        38         2         3        41     9      180.000000        0.000588         2
        38         2         3        41     9        0.000000        0.662270         3
        38         2         3        41     9      180.000000       -0.032025         4
        39         2         1        66     9        0.000000       -0.016568         1
        39         2         1        66     9      180.000000        0.031053         2
        39         2         1        66     9        0.000000        0.391775         3
        39         2         1        66     9      180.000000        0.096823         4
        39         2         3        40     9        0.000000       -0.067627         1
        39         2         3        40     9      180.000000        0.000588         2
        39         2         3        40     9        0.000000        0.662270         3
        39         2         3        40     9      180.000000       -0.032025         4
        39         2         3        41     9        0.000000       -0.067627         1
        39         2         3        41     9      180.000000        0.000588         2
        39         2         3        41     9        0.000000        0.662270         3
        39         2         3        41     9      180.000000       -0.032025         4
        42         5         6        44     9        0.000000        0.103210         1
        42         5         6        44     9      180.000000       -0.004778         2
        42         5         6        44     9        0.000000        0.686122         3
        42         5         6        44     9      180.000000       -0.126217         4
        43         5         6        44     9        0.000000        0.103210         1
        43         5         6        44     9      180.000000       -0.004778         2
        43         5         6        44     9        0.000000        0.686122         3
        43         5         6        44     9      180.000000       -0.126217         4
        44         6         7        45     9        0.000000        0.015902         1
        44         6         7        45     9      180.000000       -0.007452         2
        44         6         7        45     9        0.000000        0.462585         3
        44         6         7        45     9      180.000000       -0.057176         4
        44         6         7        46     9        0.000000        0.015902         1
        44         6         7        46     9      180.000000       -0.007452         2
        44         6         7        46     9        0.000000        0.462585         3
        44         6         7        46     9      180.000000       -0.057176         4
        45         7         8        47     9        0.000000        0.005087         1
        45         7         8        47     9      180.000000       -0.016513         2
        45         7         8        47     9        0.000000        0.280412         3
        45         7         8        47     9      180.000000        0.007451         4
        45         7         8        48     9        0.000000        0.005087         1
        45         7         8        48     9      180.000000       -0.016513         2
        45         7         8        48     9        0.000000        0.280412         3
        45         7         8        48     9      180.000000        0.007451         4
        46         7         8        47     9        0.000000        0.005087         1
        46         7         8        47     9      180.000000       -0.016513         2
        46         7         8        47     9        0.000000        0.280412         3
        46         7         8        47     9      180.000000        0.007451         4
        46         7         8        48     9        0.000000        0.005087         1
        46         7         8        48     9      180.000000       -0.016513         2
        46         7         8        48     9        0.000000        0.280412         3
        46         7         8        48     9      180.000000        0.007451         4
        47         8         9        49     9        0.000000        0.307712         1
        47         8         9        49     9      180.000000        0.073108         2
        47         8         9        49     9        0.000000        0.368973         3
        47         8         9        49     9      180.000000       -0.053939         4
        48         8         9        49     9        0.000000        0.307712         1
        48         8         9        49     9      180.000000        0.073108         2
        48         8         9        49     9        0.000000        0.368973         3
        48         8         9        49     9      180.000000       -0.053939         4
        49         9        10        50     9        0.000000        0.589952         1
        49         9        10        50     9      180.000000        0.106994         2
        49         9        10        50     9        0.000000        0.459468         3
        49         9        10        50     9      180.000000       -0.274357         4
        49         9        28        60     9        0.000000        0.101714         1
        49         9        28        60     9      180.000000        0.049917         2
        49         9        28        60     9        0.000000        0.246326         3
        49         9        28        60     9      180.000000       -0.118900         4
        50        10        17        56     9        0.000000       -0.890253         1
        50        10        17        56     9      180.000000       -0.260122         2
        50        10        17        56     9        0.000000        0.459101         3
        50        10        17        56     9      180.000000       -0.171435         4
        51        12        13        52     9        0.000000       -0.180341         1
        51        12        13        52     9      180.000000       11.789159         2
        51        12        13        52     9        0.000000       -0.659630         3
        51        12        13        52     9      180.000000        0.310085         4
        52        13        14        53     9        0.000000       -0.084558         1
        52        13        14        53     9      180.000000       11.520937         2
        52        13        14        53     9        0.000000       -0.587926         3
        52        13        14        53     9      180.000000        0.263272         4
        53        14        15        54     9        0.000000       -0.084558         1
        53        14        15        54     9      180.000000       11.520937         2
        53        14        15        54     9        0.000000       -0.587926         3
        53        14        15        54     9      180.000000        0.263272         4
        54        15        16        55     9        0.000000       -0.180341         1
        54        15        16        55     9      180.000000       11.789159         2
        54        15        16        55     9        0.000000       -0.659630         3
        54        15        16        55     9      180.000000        0.310085         4
        57        19        20        58     9        0.000000       -0.149690         1
        57        19        20        58     9      180.000000       12.317766         2
        57        19        20        58     9        0.000000       -0.778015         3
        57        19        20        58     9      180.000000        0.331039         4
        61        31        32        62     9        0.000000       -0.160756         1
        61        31        32        62     9      180.000000       11.864272         2
        61        31        32        62     9        0.000000       -0.635085         3
        61        31        32        62     9      180.000000        0.297909         4
        62        32        33        63     9        0.000000       -0.091201         1
        62        32        33        63     9      180.000000       11.423190         2
        62        32        33        63     9        0.000000       -0.555256         3
        62        32        33        63     9      180.000000        0.262455         4
        63        33        34        64     9        0.000000       -0.091201         1
        63        33        34        64     9      180.000000       11.423190         2
        63        33        34        64     9        0.000000       -0.555256         3
        63        33        34        64     9      180.000000        0.262455         4
        64        34        35        65     9        0.000000       -0.160756         1
        64        34        35        65     9      180.000000       11.864272         2
        64        34        35        65     9        0.000000       -0.635085         3
        64        34        35        65     9      180.000000        0.297909         4

[ dihedrals ] ; impropers
;       ai        aj        ak        al funct           phase               k        pn
        12        11        13        51     4      180.000000        0.182436         2
        12        13        51        11     4      180.000000        0.182436         2
        12        51        11        13     4      180.000000        0.182436         2
        13        12        14        52     4      180.000000        0.258179         2
        13        14        52        12     4      180.000000        0.258179         2
        13        52        12        14     4      180.000000        0.258179         2
        14        13        15        53     4      180.000000        0.333131         2
        14        15        53        13     4      180.000000        0.333131         2
        14        53        13        15     4      180.000000        0.333131         2
        15        14        16        54     4      180.000000        0.258179         2
        15        16        54        14     4      180.000000        0.258179         2
        15        54        14        16     4      180.000000        0.258179         2
        16        11        15        55     4      180.000000        0.182436         2
        16        15        55        11     4      180.000000        0.182436         2
        16        55        11        15     4      180.000000        0.182436         2
        32        31        33        62     4      180.000000        1.259923         2
        32        33        62        31     4      180.000000        1.259923         2
        32        62        31        33     4      180.000000        1.259923         2
        34        33        35        64     4      180.000000        1.259923         2
        34        35        64        33     4      180.000000        1.259923         2
        34        64        33        35     4      180.000000        1.259923         2

[ pairs ]
;       ai        aj funct
         1         4     1
         1        40     1
         1        41     1
         2         5     1
         2        30     1
         3         6     1
         3        31     1
         3        35     1
         3        36     1
         3        37     1
         3        42     1
         3        43     1
         3        66     1
         4         7     1
         4        29     1
         4        32     1
         4        34     1
         4        38     1
         4        39     1
         4        44     1
         4        61     1
         4        65     1
         5         8     1
         5        28     1
         5        31     1
         5        35     1
         5        40     1
         5        41     1
         5        45     1
         5        46     1
         6         9     1
         6        27     1
         6        30     1
         6        47     1
         6        48     1
         6        60     1
         7        10     1
         7        28     1
         7        42     1
         7        43     1
         7        49     1
         8        11     1
         8        17     1
         8        27     1
         8        29     1
         8        44     1
         8        50     1
         8        60     1
         9        12     1
         9        16     1
         9        18     1
         9        26     1
         9        45     1
         9        46     1
         9        56     1
        10        13     1
        10        15     1
        10        19     1
        10        27     1
        10        29     1
        10        47     1
        10        48     1
        10        51     1
        10        55     1
        10        60     1
        11        14     1
        11        18     1
        11        28     1
        11        49     1
        11        52     1
        11        54     1
        11        56     1
        12        15     1
        12        17     1
        12        50     1
        12        53     1
        12        55     1
        13        16     1
        13        54     1
        14        51     1
        14        55     1
        15        52     1
        16        17     1
        16        50     1
        16        51     1
        16        53     1
        17        20     1
        17        26     1
        17        28     1
        17        49     1
        17        57     1
        18        21     1
        18        29     1
        18        50     1
        18        58     1
        18        59     1
        18        60     1
        19        22     1
        19        26     1
        19        28     1
        19        56     1
        20        23     1
        20        24     1
        20        25     1
        20        27     1
        20        59     1
        21        28     1
        21        57     1
        22        27     1
        22        58     1
        22        59     1
        23        26     1
        24        26     1
        25        26     1
        26        29     1
        26        58     1
        26        60     1
        27        49     1
        27        56     1
        27        57     1
        28        44     1
        28        47     1
        28        48     1
        28        50     1
        28        59     1
        29        42     1
        29        43     1
        29        45     1
        29        46     1
        29        49     1
        30        33     1
        30        40     1
        30        41     1
        30        42     1
        30        43     1
        30        62     1
        30        64     1
        31        34     1
        31        63     1
        31        65     1
        32        35     1
        32        64     1
        33        61     1
        33        65     1
        34        62     1
        35        61     1
        35        63     1
        36        38     1
        36        39     1
        37        38     1
        37        39     1
        38        40     1
        38        41     1
        38        66     1
        39        40     1
        39        41     1
        39        66     1
        42        44     1
        43        44     1
        44        45     1
        44        46     1
        45        47     1
        45        48     1
        46        47     1
        46        48     1
        47        49     1
        48        49     1
        49        50     1
        49        60     1
        50        56     1
        51        52     1
        52        53     1
        53        54     1
        54        55     1
        57        58     1
        61        62     1
        62        63     1
        63        64     1
        64        65     1
