; ITP file created by ByteFF-ML, 2026-02-21 07:38:55.243554

[ atomtypes ]
;name           bonded.type        at.num        mass        charge   ptype           sigma         epsilon
 c0bf                                   6      0.0000       0.00000       A     3.39828e-01     4.48488e-01
 n1bf                                   7      0.0000       0.00000       A     2.67231e-01     7.08236e+00
 c2bf                                   6      0.0000       0.00000       A     3.39891e-01     4.48109e-01
 c3bf                                   6      0.0000       0.00000       A     3.39681e-01     4.49622e-01
 c4bf                                   6      0.0000       0.00000       A     3.39753e-01     4.52720e-01
 c5bf                                   6      0.0000       0.00000       A     3.39899e-01     4.52709e-01
 c6bf                                   6      0.0000       0.00000       A     3.40218e-01     4.51818e-01
 c7bf                                   6      0.0000       0.00000       A     3.39362e-01     4.50344e-01
 c8bf                                   6      0.0000       0.00000       A     3.31416e-01     4.11566e-01
 c9bf                                   6      0.0000       0.00000       A     3.31559e-01     4.13032e-01
 c10bf                                  6      0.0000       0.00000       A     3.31517e-01     4.13352e-01
 c11bf                                  6      0.0000       0.00000       A     3.31506e-01     4.12857e-01
 c12bf                                  6      0.0000       0.00000       A     3.31517e-01     4.13352e-01
 c13bf                                  6      0.0000       0.00000       A     3.31559e-01     4.13032e-01
 n14bf                                  7      0.0000       0.00000       A     3.28286e-01     6.41163e-01
 c15bf                                  6      0.0000       0.00000       A     3.31469e-01     4.11313e-01
 c16bf                                  6      0.0000       0.00000       A     3.31488e-01     4.14630e-01
 c17bf                                  6      0.0000       0.00000       A     3.31480e-01     4.11649e-01
 c18bf                                  6      0.0000       0.00000       A     3.31586e-01     4.12981e-01
 c19bf                                  6      0.0000       0.00000       A     3.39835e-01     4.48944e-01
 c20bf                                  6      0.0000       0.00000       A     3.39766e-01     4.49964e-01
 c21bf                                  6      0.0000       0.00000       A     3.39766e-01     4.49964e-01
 c22bf                                  6      0.0000       0.00000       A     3.31345e-01     4.11538e-01
 c23bf                                  6      0.0000       0.00000       A     3.31266e-01     4.09869e-01
 c24bf                                  6      0.0000       0.00000       A     3.39625e-01     4.53008e-01
 o25bf                                  8      0.0000       0.00000       A     3.16041e-01     3.06723e-01
 h26bf                                  1      0.0000       0.00000       A     1.88028e-01     8.70799e-02
 h27bf                                  1      0.0000       0.00000       A     1.88028e-01     8.70799e-02
 h28bf                                  1      0.0000       0.00000       A     1.88028e-01     8.70799e-02
 h29bf                                  1      0.0000       0.00000       A     1.10814e-01     4.12951e-02
 h30bf                                  1      0.0000       0.00000       A     1.87691e-01     8.61032e-02
 h31bf                                  1      0.0000       0.00000       A     1.87691e-01     8.61032e-02
 h32bf                                  1      0.0000       0.00000       A     2.42371e-01     8.77264e-02
 h33bf                                  1      0.0000       0.00000       A     2.60071e-01     8.65692e-02
 h34bf                                  1      0.0000       0.00000       A     2.60071e-01     8.65692e-02
 h35bf                                  1      0.0000       0.00000       A     2.60017e-01     8.63234e-02
 h36bf                                  1      0.0000       0.00000       A     2.60017e-01     8.63234e-02
 h37bf                                  1      0.0000       0.00000       A     2.59608e-01     8.66043e-02
 h38bf                                  1      0.0000       0.00000       A     2.42675e-01     8.80520e-02
 h39bf                                  1      0.0000       0.00000       A     2.62512e-01     6.76287e-02
 h40bf                                  1      0.0000       0.00000       A     2.62458e-01     6.72647e-02
 h41bf                                  1      0.0000       0.00000       A     2.62457e-01     6.73477e-02
 h42bf                                  1      0.0000       0.00000       A     2.62458e-01     6.72647e-02
 h43bf                                  1      0.0000       0.00000       A     2.62512e-01     6.76287e-02
 h44bf                                  1      0.0000       0.00000       A     1.10887e-01     4.11451e-02
 h45bf                                  1      0.0000       0.00000       A     2.62399e-01     6.69679e-02
 h46bf                                  1      0.0000       0.00000       A     2.62518e-01     6.76558e-02
 h47bf                                  1      0.0000       0.00000       A     2.59830e-01     8.44879e-02
 h48bf                                  1      0.0000       0.00000       A     2.60102e-01     8.65405e-02
 h49bf                                  1      0.0000       0.00000       A     2.60102e-01     8.65405e-02
 h50bf                                  1      0.0000       0.00000       A     2.60102e-01     8.65405e-02
 h51bf                                  1      0.0000       0.00000       A     2.60102e-01     8.65405e-02
 h52bf                                  1      0.0000       0.00000       A     2.62490e-01     6.71211e-02
 h53bf                                  1      0.0000       0.00000       A     2.42774e-01     8.84398e-02
 h54bf                                  1      0.0000       0.00000       A     1.10814e-01     4.12951e-02

[ moleculetype ]
;name             nrexcl
 CHEMBL1083836         3

[ atoms ]
;       nr            type      resi   res      atom      cgnr      charge          mass ; qtot
         1            c0bf         1   UNL        c0         1     0.09470       12.0110 ; qtot    0.095
         2            n1bf         1   UNL        n1         2    -0.83582       14.0070 ; qtot   -0.741
         3            c2bf         1   UNL        c2         3     0.09252       12.0110 ; qtot   -0.649
         4            c3bf         1   UNL        c3         4     0.14946       12.0110 ; qtot   -0.499
         5            c4bf         1   UNL        c4         5    -0.09709       12.0110 ; qtot   -0.596
         6            c5bf         1   UNL        c5         6    -0.06571       12.0110 ; qtot   -0.662
         7            c6bf         1   UNL        c6         7    -0.09917       12.0110 ; qtot   -0.761
         8            c7bf         1   UNL        c7         8     0.26107       12.0110 ; qtot   -0.500
         9            c8bf         1   UNL        c8         9    -0.10768       12.0110 ; qtot   -0.608
        10            c9bf         1   UNL        c9        10    -0.09640       12.0110 ; qtot   -0.704
        11           c10bf         1   UNL       c10        11    -0.11334       12.0110 ; qtot   -0.817
        12           c11bf         1   UNL       c11        12    -0.10684       12.0110 ; qtot   -0.924
        13           c12bf         1   UNL       c12        13    -0.11334       12.0110 ; qtot   -1.038
        14           c13bf         1   UNL       c13        14    -0.09640       12.0110 ; qtot   -1.134
        15           n14bf         1   UNL       n14        15    -0.92324       14.0070 ; qtot   -2.057
        16           c15bf         1   UNL       c15        16     0.28908       12.0110 ; qtot   -1.768
        17           c16bf         1   UNL       c16        17    -0.16854       12.0110 ; qtot   -1.937
        18           c17bf         1   UNL       c17        18    -0.07226       12.0110 ; qtot   -2.009
        19           c18bf         1   UNL       c18        19    -0.09092       12.0110 ; qtot   -2.100
        20           c19bf         1   UNL       c19        20    -0.08572       12.0110 ; qtot   -2.186
        21           c20bf         1   UNL       c20        21    -0.12573       12.0110 ; qtot   -2.311
        22           c21bf         1   UNL       c21        22    -0.12573       12.0110 ; qtot   -2.437
        23           c22bf         1   UNL       c22        23    -0.05283       12.0110 ; qtot   -2.490
        24           c23bf         1   UNL       c23        24    -0.15991       12.0110 ; qtot   -2.650
        25           c24bf         1   UNL       c24        25     0.23923       12.0110 ; qtot   -2.411
        26           o25bf         1   UNL       o25        26    -0.46193       15.9990 ; qtot   -2.873
        27           h26bf         1   UNL       h26        27     0.10802        1.0080 ; qtot   -2.765
        28           h27bf         1   UNL       h27        28     0.10802        1.0080 ; qtot   -2.657
        29           h28bf         1   UNL       h28        29     0.10802        1.0080 ; qtot   -2.548
        30           h29bf         1   UNL       h29        30     0.51632        1.0080 ; qtot   -2.032
        31           h30bf         1   UNL       h30        31     0.11656        1.0080 ; qtot   -1.916
        32           h31bf         1   UNL       h31        32     0.11656        1.0080 ; qtot   -1.799
        33           h32bf         1   UNL       h32        33     0.08641        1.0080 ; qtot   -1.713
        34           h33bf         1   UNL       h33        34     0.06631        1.0080 ; qtot   -1.646
        35           h34bf         1   UNL       h34        35     0.06631        1.0080 ; qtot   -1.580
        36           h35bf         1   UNL       h35        36     0.05432        1.0080 ; qtot   -1.526
        37           h36bf         1   UNL       h36        37     0.05432        1.0080 ; qtot   -1.471
        38           h37bf         1   UNL       h37        38     0.06779        1.0080 ; qtot   -1.404
        39           h38bf         1   UNL       h38        39     0.05590        1.0080 ; qtot   -1.348
        40           h39bf         1   UNL       h39        40     0.11749        1.0080 ; qtot   -1.230
        41           h40bf         1   UNL       h40        41     0.11433        1.0080 ; qtot   -1.116
        42           h41bf         1   UNL       h41        42     0.11376        1.0080 ; qtot   -1.002
        43           h42bf         1   UNL       h42        43     0.11433        1.0080 ; qtot   -0.888
        44           h43bf         1   UNL       h43        44     0.11749        1.0080 ; qtot   -0.770
        45           h44bf         1   UNL       h44        45     0.45777        1.0080 ; qtot   -0.313
        46           h45bf         1   UNL       h45        46     0.11454        1.0080 ; qtot   -0.198
        47           h46bf         1   UNL       h46        47     0.11499        1.0080 ; qtot   -0.083
        48           h47bf         1   UNL       h47        48     0.08274        1.0080 ; qtot   -0.000
        49           h48bf         1   UNL       h48        49     0.07532        1.0080 ; qtot    0.075
        50           h49bf         1   UNL       h49        50     0.07532        1.0080 ; qtot    0.150
        51           h50bf         1   UNL       h50        51     0.07532        1.0080 ; qtot    0.226
        52           h51bf         1   UNL       h51        52     0.07532        1.0080 ; qtot    0.301
        53           h52bf         1   UNL       h52        53     0.12025        1.0080 ; qtot    0.421
        54           h53bf         1   UNL       h53        54     0.06243        1.0080 ; qtot    0.484
        55           h54bf         1   UNL       h54        55     0.51628        1.0080 ; qtot    1.000

[ bonds ]
;       ai        aj funct               r               k
         1         2     1        0.150678   160703.433228
         1        27     1        0.108854   320317.529980
         1        28     1        0.108854   320317.529980
         1        29     1        0.108854   320317.529980
         2         3     1        0.151399   142318.795752
         2        30     1        0.102819   378731.216113
         2        55     1        0.102819   378731.216113
         3         4     1        0.153307   175832.931982
         3        31     1        0.109027   314180.400781
         3        32     1        0.109027   314180.400781
         4         5     1        0.153737   171222.717627
         4        26     1        0.142798   186894.586279
         4        33     1        0.109778   291513.585889
         5         6     1        0.153730   182168.050391
         5        34     1        0.109433   298905.659717
         5        35     1        0.109433   298905.659717
         6         7     1        0.153672   177369.653076
         6        36     1        0.109414   298482.535352
         6        37     1        0.109414   298482.535352
         7         8     1        0.154231   162728.372778
         7        25     1        0.153704   167647.586157
         7        38     1        0.109661   296507.444238
         8         9     1        0.152011   180470.777490
         8        15     1        0.146639   193821.578271
         8        39     1        0.109903   282326.764014
         9        10     1        0.140235   288447.651611
         9        14     1        0.140235   288447.651611
        10        11     1        0.139815   313021.067090
        10        40     1        0.108668   316228.298193
        11        12     1        0.139918   306554.075049
        11        41     1        0.108647   318864.647217
        12        13     1        0.139918   306554.075049
        12        42     1        0.108625   319984.475000
        13        14     1        0.139815   313021.067090
        13        43     1        0.108647   318864.647217
        14        44     1        0.108668   316228.298193
        15        16     1        0.140032   269011.434277
        15        45     1        0.101355   410549.739355
        16        17     1        0.140630   278179.460840
        16        24     1        0.141079   265551.053809
        17        18     1        0.139194   329815.955664
        17        46     1        0.108711   314402.880078
        18        19     1        0.140489   285839.572168
        18        47     1        0.108677   316237.772461
        19        20     1        0.149311   216167.085254
        19        23     1        0.140169   287723.010596
        20        21     1        0.151922   183515.669189
        20        22     1        0.151922   183515.669189
        20        48     1        0.108689   314824.676514
        21        22     1        0.151106   201834.382617
        21        49     1        0.108525   322022.387402
        21        50     1        0.108525   322022.387402
        22        51     1        0.108525   322022.387402
        22        52     1        0.108525   322022.387402
        23        24     1        0.139605   305634.509277
        23        53     1        0.108648   315584.584277
        24        25     1        0.151002   191556.372827
        25        26     1        0.144971   161851.683813
        25        54     1        0.109935   282344.971973

[ angles ]
;       ai        aj        ak funct           theta             cth
         1         2         3     1      115.187744      598.576820
         1         2        30     1      109.700928      498.669519
         1         2        55     1      109.700928      498.669583
         2         1        27     1      108.587814      556.078792
         2         1        28     1      108.587814      556.078792
         2         1        29     1      108.587814      556.078792
         2         3         4     1      109.782944      666.941322
         2         3        31     1      107.335121      541.874094
         2         3        32     1      107.335121      541.874094
         3         2        30     1      107.926857      485.947378
         3         2        55     1      107.926857      485.947378
         3         4         5     1      113.556824      579.916471
         3         4        26     1      104.664413      644.269029
         3         4        33     1      108.838211      491.167067
         4         3        31     1      111.428970      470.995113
         4         3        32     1      111.428970      470.995113
         4         5         6     1      110.426315      651.287457
         4         5        34     1      109.441452      484.410810
         4         5        35     1      109.441452      484.410810
         4        26        25     1      113.855179      593.176615
         5         4        26     1      112.597496      554.383639
         5         4        33     1      109.474503      457.415436
         5         6         7     1      111.060867      623.724488
         5         6        36     1      109.777687      504.865492
         5         6        37     1      109.777687      504.865492
         6         5        34     1      110.383827      503.331382
         6         5        35     1      110.383827      503.331382
         6         7         8     1      113.328896      594.607268
         6         7        25     1      110.184448      597.172853
         6         7        38     1      108.813293      484.520109
         7         6        36     1      109.690323      493.512396
         7         6        37     1      109.690323      493.512396
         7         8         9     1      112.832138      539.061693
         7         8        15     1      108.654358      596.889008
         7         8        39     1      107.204910      478.962851
         7        25        24     1      112.175392      572.363999
         7        25        26     1      111.196213      594.750722
         7        25        54     1      108.456322      466.148776
         8         7        25     1      109.567856      677.916405
         8         7        38     1      107.115433      495.353525
         8         9        10     1      120.675819      480.145730
         8         9        14     1      120.675819      480.145730
         8        15        16     1      118.485428      535.381731
         8        15        45     1      113.211632      469.750690
         9         8        15     1      111.192749      590.960696
         9         8        39     1      107.631065      485.386711
         9        10        11     1      120.662560      709.918234
         9        10        40     1      119.614586      400.532036
         9        14        13     1      120.662560      709.918234
         9        14        44     1      119.614578      400.532036
        10         9        14     1      118.740906      679.590873
        10        11        12     1      120.153175      705.714506
        10        11        41     1      119.816544      429.696915
        11        10        40     1      119.686012      431.264766
        11        12        13     1      119.511429      689.005895
        11        12        42     1      120.255783      430.416551
        12        11        41     1      120.079079      431.521669
        12        13        14     1      120.153175      705.714506
        12        13        43     1      120.079079      431.521669
        13        12        42     1      120.255783      430.416551
        13        14        44     1      119.686012      431.264766
        14        13        43     1      119.816544      429.696851
        15         8        39     1      109.216263      441.919231
        15        16        17     1      120.075706      540.045893
        15        16        24     1      120.443398      574.959718
        16        15        45     1      113.737076      487.686934
        16        17        18     1      120.907204      763.718730
        16        17        46     1      119.227982      421.841924
        16        24        23     1      119.278343      766.586420
        16        24        25     1      119.994217      560.819310
        17        16        24     1      118.781570      646.218404
        17        18        19     1      121.165054      679.305368
        17        18        47     1      119.197632      426.698890
        18        17        46     1      119.751297      440.482864
        18        19        20     1      121.450706      536.451225
        18        19        23     1      117.635361      647.913813
        19        18        47     1      119.517494      426.464938
        19        20        21     1      121.277603      452.295086
        19        20        22     1      121.277603      452.295086
        19        20        48     1      113.879639      435.195501
        19        23        24     1      122.334694      676.506629
        19        23        53     1      119.351341      415.198445
        20        19        23     1      121.478737      464.133707
        20        21        22     1       60.158936      167.360000
        20        21        49     1      117.612717      373.984774
        20        21        50     1      117.612717      373.984774
        20        22        21     1       60.158936      167.360000
        20        22        51     1      117.612717      373.984774
        20        22        52     1      117.612717      373.984774
        21        20        22     1       59.670826      167.360000
        21        20        48     1      115.154808      370.364729
        21        22        51     1      118.116409      379.886623
        21        22        52     1      118.116409      379.886623
        22        20        48     1      115.154808      370.364729
        22        21        49     1      118.116409      379.886623
        22        21        50     1      118.116409      379.886623
        23        24        25     1      120.825821      468.300693
        24        23        53     1      118.374100      402.089097
        24        25        26     1      109.632935      626.763724
        24        25        54     1      108.821388      459.400436
        25         7        38     1      107.221252      503.767141
        26         4        33     1      108.373062      453.719610
        26        25        54     1      106.349533      485.110144
        27         1        28     1      110.439980      348.692566
        27         1        29     1      110.439980      348.692566
        28         1        29     1      110.439980      348.692566
        30         2        55     1      106.186768      403.175637
        31         3        32     1      109.253494      345.162060
        34         5        35     1      107.026955      357.757824
        36         6        37     1      106.531815      361.918011
        49        21        50     1      114.762230      309.125751
        51        22        52     1      114.762230      309.125751

[ dihedrals ] ; propers for gromacs 4.5 or higher, use funct 9
;       ai        aj        ak        al funct           phase               k        pn
         1         2         3         4     9        0.000000       -0.148125         1
         1         2         3         4     9      180.000000       -0.408852         2
         1         2         3         4     9        0.000000        0.731077         3
         1         2         3         4     9      180.000000        0.103734         4
         1         2         3        31     9        0.000000       -0.129659         1
         1         2         3        31     9      180.000000        0.160150         2
         1         2         3        31     9        0.000000        0.778493         3
         1         2         3        31     9      180.000000        0.001367         4
         1         2         3        32     9        0.000000       -0.129659         1
         1         2         3        32     9      180.000000        0.160150         2
         1         2         3        32     9        0.000000        0.778493         3
         1         2         3        32     9      180.000000        0.001367         4
         2         3         4         5     9        0.000000        2.014708         1
         2         3         4         5     9      180.000000        1.223700         2
         2         3         4         5     9        0.000000        0.738295         3
         2         3         4         5     9      180.000000        0.029904         4
         2         3         4        26     9        0.000000        7.418826         1
         2         3         4        26     9      180.000000       -1.892051         2
         2         3         4        26     9        0.000000        0.625270         3
         2         3         4        26     9      180.000000        0.231430         4
         2         3         4        33     9        0.000000       -0.850898         1
         2         3         4        33     9      180.000000       -1.223401         2
         2         3         4        33     9        0.000000        0.896097         3
         2         3         4        33     9      180.000000        0.031154         4
         3         2         1        27     9        0.000000       -0.025776         1
         3         2         1        27     9      180.000000        0.084966         2
         3         2         1        27     9        0.000000        0.554715         3
         3         2         1        27     9      180.000000       -0.036748         4
         3         2         1        28     9        0.000000       -0.025776         1
         3         2         1        28     9      180.000000        0.084966         2
         3         2         1        28     9        0.000000        0.554715         3
         3         2         1        28     9      180.000000       -0.036748         4
         3         2         1        29     9        0.000000       -0.025776         1
         3         2         1        29     9      180.000000        0.084967         2
         3         2         1        29     9        0.000000        0.554715         3
         3         2         1        29     9      180.000000       -0.036747         4
         3         4         5         6     9        0.000000        0.974052         1
         3         4         5         6     9      180.000000        0.565821         2
         3         4         5         6     9        0.000000        0.417842         3
         3         4         5         6     9      180.000000        0.001361         4
         3         4         5        34     9        0.000000       -0.365848         1
         3         4         5        34     9      180.000000       -0.037095         2
         3         4         5        34     9        0.000000        0.432078         3
         3         4         5        34     9      180.000000        0.049548         4
         3         4         5        35     9        0.000000       -0.365848         1
         3         4         5        35     9      180.000000       -0.037095         2
         3         4         5        35     9        0.000000        0.432078         3
         3         4         5        35     9      180.000000        0.049548         4
         3         4        26        25     9        0.000000       -0.995612         1
         3         4        26        25     9      180.000000       -0.400444         2
         3         4        26        25     9        0.000000        0.603122         3
         3         4        26        25     9      180.000000       -0.029320         4
         4         3         2        30     9        0.000000        0.737996         1
         4         3         2        30     9      180.000000        0.138845         2
         4         3         2        30     9        0.000000        0.428803         3
         4         3         2        30     9      180.000000       -0.076223         4
         4         3         2        55     9        0.000000        0.737996         1
         4         3         2        55     9      180.000000        0.138845         2
         4         3         2        55     9        0.000000        0.428803         3
         4         3         2        55     9      180.000000       -0.076223         4
         4         5         6         7     9        0.000000        0.540228         1
         4         5         6         7     9      180.000000       -0.840758         2
         4         5         6         7     9        0.000000        0.214074         3
         4         5         6         7     9      180.000000        0.001396         4
         4         5         6        36     9        0.000000       -0.067366         1
         4         5         6        36     9      180.000000        0.005620         2
         4         5         6        36     9        0.000000        0.242890         3
         4         5         6        36     9      180.000000        0.001881         4
         4         5         6        37     9        0.000000       -0.067366         1
         4         5         6        37     9      180.000000        0.005620         2
         4         5         6        37     9        0.000000        0.242890         3
         4         5         6        37     9      180.000000        0.001881         4
         4        26        25         7     9        0.000000        6.869659         1
         4        26        25         7     9      180.000000       -3.019795         2
         4        26        25         7     9        0.000000        0.089244         3
         4        26        25         7     9      180.000000        0.254468         4
         4        26        25        24     9        0.000000        0.774896         1
         4        26        25        24     9      180.000000       -1.024972         2
         4        26        25        24     9        0.000000        0.689156         3
         4        26        25        24     9      180.000000        0.086381         4
         4        26        25        54     9        0.000000       -0.237410         1
         4        26        25        54     9      180.000000       -0.073936         2
         4        26        25        54     9        0.000000        0.855899         3
         4        26        25        54     9      180.000000       -0.031883         4
         5         4         3        31     9        0.000000       -0.227143         1
         5         4         3        31     9      180.000000        0.093726         2
         5         4         3        31     9        0.000000        0.703277         3
         5         4         3        31     9      180.000000        0.086746         4
         5         4         3        32     9        0.000000       -0.227143         1
         5         4         3        32     9      180.000000        0.093726         2
         5         4         3        32     9        0.000000        0.703277         3
         5         4         3        32     9      180.000000        0.086746         4
         5         4        26        25     9        0.000000        6.013969         1
         5         4        26        25     9      180.000000       -1.393239         2
         5         4        26        25     9        0.000000       -0.012361         3
         5         4        26        25     9      180.000000        0.081370         4
         5         6         7         8     9        0.000000        0.063331         1
         5         6         7         8     9      180.000000       -0.380457         2
         5         6         7         8     9        0.000000        0.341469         3
         5         6         7         8     9      180.000000        0.031064         4
         5         6         7        25     9        0.000000        0.825447         1
         5         6         7        25     9      180.000000       -0.725289         2
         5         6         7        25     9        0.000000        0.101625         3
         5         6         7        25     9      180.000000        0.090636         4
         5         6         7        38     9        0.000000       -0.906563         1
         5         6         7        38     9      180.000000       -0.034068         2
         5         6         7        38     9        0.000000        0.210362         3
         5         6         7        38     9      180.000000        0.132300         4
         6         5         4        26     9        0.000000       -0.474680         1
         6         5         4        26     9      180.000000       -0.105879         2
         6         5         4        26     9        0.000000        0.296819         3
         6         5         4        26     9      180.000000       -0.049556         4
         6         5         4        33     9        0.000000       -0.459414         1
         6         5         4        33     9      180.000000       -0.018794         2
         6         5         4        33     9        0.000000        0.414334         3
         6         5         4        33     9      180.000000        0.036888         4
         6         7         8         9     9        0.000000        1.353326         1
         6         7         8         9     9      180.000000       -0.508273         2
         6         7         8         9     9        0.000000        0.898716         3
         6         7         8         9     9      180.000000        0.106653         4
         6         7         8        15     9        0.000000       -1.633119         1
         6         7         8        15     9      180.000000        0.708535         2
         6         7         8        15     9        0.000000        0.330455         3
         6         7         8        15     9      180.000000       -0.098155         4
         6         7         8        39     9        0.000000       -0.330420         1
         6         7         8        39     9      180.000000        0.178702         2
         6         7         8        39     9        0.000000        0.519502         3
         6         7         8        39     9      180.000000       -0.013982         4
         6         7        25        24     9        0.000000        0.774014         1
         6         7        25        24     9      180.000000       -1.406716         2
         6         7        25        24     9        0.000000        0.333108         3
         6         7        25        24     9      180.000000        0.045631         4
         6         7        25        26     9        0.000000        0.325474         1
         6         7        25        26     9      180.000000       -1.698613         2
         6         7        25        26     9        0.000000        0.262670         3
         6         7        25        26     9      180.000000        0.176176         4
         6         7        25        54     9        0.000000       -0.076733         1
         6         7        25        54     9      180.000000        0.158327         2
         6         7        25        54     9        0.000000        0.292372         3
         6         7        25        54     9      180.000000        0.093894         4
         7         6         5        34     9        0.000000       -0.087810         1
         7         6         5        34     9      180.000000        0.053871         2
         7         6         5        34     9        0.000000        0.216392         3
         7         6         5        34     9      180.000000        0.010328         4
         7         6         5        35     9        0.000000       -0.087810         1
         7         6         5        35     9      180.000000        0.053871         2
         7         6         5        35     9        0.000000        0.216392         3
         7         6         5        35     9      180.000000        0.010328         4
         7         8         9        10     9        0.000000       -0.353839         1
         7         8         9        10     9      180.000000       -0.104567         2
         7         8         9        10     9        0.000000        0.105252         3
         7         8         9        10     9      180.000000        0.005143         4
         7         8         9        14     9        0.000000       -0.353839         1
         7         8         9        14     9      180.000000       -0.104567         2
         7         8         9        14     9        0.000000        0.105252         3
         7         8         9        14     9      180.000000        0.005143         4
         7         8        15        16     9        0.000000        6.011614         1
         7         8        15        16     9      180.000000       -3.140521         2
         7         8        15        16     9        0.000000       -0.052513         3
         7         8        15        16     9      180.000000        0.711265         4
         7         8        15        45     9        0.000000        3.523494         1
         7         8        15        45     9      180.000000       -3.065427         2
         7         8        15        45     9        0.000000        0.126340         3
         7         8        15        45     9      180.000000        0.382838         4
         7        25        24        16     9        0.000000        5.020821         1
         7        25        24        16     9      180.000000       -3.940947         2
         7        25        24        16     9        0.000000       -0.219621         3
         7        25        24        16     9      180.000000        0.832381         4
         7        25        24        23     9        0.000000       -0.807165         1
         7        25        24        23     9      180.000000       -0.892604         2
         7        25        24        23     9        0.000000       -0.571492         3
         7        25        24        23     9      180.000000        0.257242         4
         8         7         6        36     9        0.000000       -0.011244         1
         8         7         6        36     9      180.000000        0.026542         2
         8         7         6        36     9        0.000000        0.298064         3
         8         7         6        36     9      180.000000       -0.002558         4
         8         7         6        37     9        0.000000       -0.011244         1
         8         7         6        37     9      180.000000        0.026542         2
         8         7         6        37     9        0.000000        0.298064         3
         8         7         6        37     9      180.000000       -0.002558         4
         8         7        25        24     9        0.000000        2.259442         1
         8         7        25        24     9      180.000000       -2.809999         2
         8         7        25        24     9        0.000000        0.038924         3
         8         7        25        24     9      180.000000        0.195563         4
         8         7        25        26     9        0.000000        0.976858         1
         8         7        25        26     9      180.000000       -4.264148         2
         8         7        25        26     9        0.000000        0.155885         3
         8         7        25        26     9      180.000000        0.442495         4
         8         7        25        54     9        0.000000       -0.365796         1
         8         7        25        54     9      180.000000        0.121646         2
         8         7        25        54     9        0.000000        0.074498         3
         8         7        25        54     9      180.000000        0.154476         4
         8         9        10        11     9        0.000000        0.090192         1
         8         9        10        11     9      180.000000       14.679497         2
         8         9        10        11     9        0.000000       -0.138716         3
         8         9        10        11     9      180.000000       -0.078603         4
         8         9        10        40     9        0.000000       -0.040953         1
         8         9        10        40     9      180.000000       12.731300         2
         8         9        10        40     9        0.000000       -0.361223         3
         8         9        10        40     9      180.000000        0.182937         4
         8         9        14        13     9        0.000000        0.090192         1
         8         9        14        13     9      180.000000       14.679497         2
         8         9        14        13     9        0.000000       -0.138716         3
         8         9        14        13     9      180.000000       -0.078603         4
         8         9        14        44     9        0.000000       -0.040954         1
         8         9        14        44     9      180.000000       12.731300         2
         8         9        14        44     9        0.000000       -0.361223         3
         8         9        14        44     9      180.000000        0.182937         4
         8        15        16        17     9        0.000000       -0.423542         1
         8        15        16        17     9      180.000000        2.624779         2
         8        15        16        17     9        0.000000       -0.043031         3
         8        15        16        17     9      180.000000        0.425404         4
         8        15        16        24     9        0.000000        3.758439         1
         8        15        16        24     9      180.000000        0.359068         2
         8        15        16        24     9        0.000000       -0.224643         3
         8        15        16        24     9      180.000000        1.037911         4
         9         8         7        25     9        0.000000       -0.358582         1
         9         8         7        25     9      180.000000       -0.232072         2
         9         8         7        25     9        0.000000        0.347255         3
         9         8         7        25     9      180.000000        0.076801         4
         9         8         7        38     9        0.000000        0.044425         1
         9         8         7        38     9      180.000000       -0.036011         2
         9         8         7        38     9        0.000000        0.459679         3
         9         8         7        38     9      180.000000       -0.060270         4
         9         8        15        16     9        0.000000        1.104382         1
         9         8        15        16     9      180.000000       -0.647230         2
         9         8        15        16     9        0.000000        0.768144         3
         9         8        15        16     9      180.000000        0.089121         4
         9         8        15        45     9        0.000000        3.195029         1
         9         8        15        45     9      180.000000       -1.053801         2
         9         8        15        45     9        0.000000        0.110169         3
         9         8        15        45     9      180.000000       -0.141080         4
         9        10        11        12     9        0.000000        0.027332         1
         9        10        11        12     9      180.000000       18.735526         2
         9        10        11        12     9        0.000000       -1.491713         3
         9        10        11        12     9      180.000000       -0.406339         4
         9        10        11        41     9        0.000000        0.060409         1
         9        10        11        41     9      180.000000       14.990248         2
         9        10        11        41     9        0.000000       -0.580982         3
         9        10        11        41     9      180.000000        0.057213         4
         9        14        13        12     9        0.000000        0.027332         1
         9        14        13        12     9      180.000000       18.735526         2
         9        14        13        12     9        0.000000       -1.491713         3
         9        14        13        12     9      180.000000       -0.406339         4
         9        14        13        43     9        0.000000        0.060410         1
         9        14        13        43     9      180.000000       14.990249         2
         9        14        13        43     9        0.000000       -0.580982         3
         9        14        13        43     9      180.000000        0.057213         4
        10         9         8        15     9        0.000000       -0.070386         1
        10         9         8        15     9      180.000000        0.892704         2
        10         9         8        15     9        0.000000       -0.026553         3
        10         9         8        15     9      180.000000        0.262291         4
        10         9         8        39     9        0.000000        0.166578         1
        10         9         8        39     9      180.000000        0.665435         2
        10         9         8        39     9        0.000000        0.050777         3
        10         9         8        39     9      180.000000       -0.152664         4
        10         9        14        13     9        0.000000       -0.144446         1
        10         9        14        13     9      180.000000       19.062213         2
        10         9        14        13     9        0.000000       -1.504557         3
        10         9        14        13     9      180.000000       -0.477342         4
        10         9        14        44     9        0.000000       -0.069577         1
        10         9        14        44     9      180.000000       14.508781         2
        10         9        14        44     9        0.000000       -0.591210         3
        10         9        14        44     9      180.000000       -0.002966         4
        10        11        12        13     9        0.000000       -0.058928         1
        10        11        12        13     9      180.000000       18.660778         2
        10        11        12        13     9        0.000000       -1.621207         3
        10        11        12        13     9      180.000000       -0.382782         4
        10        11        12        42     9        0.000000        0.016776         1
        10        11        12        42     9      180.000000       14.282112         2
        10        11        12        42     9        0.000000       -0.780703         3
        10        11        12        42     9      180.000000        0.125907         4
        11        10         9        14     9        0.000000       -0.144446         1
        11        10         9        14     9      180.000000       19.062213         2
        11        10         9        14     9        0.000000       -1.504557         3
        11        10         9        14     9      180.000000       -0.477342         4
        11        12        13        14     9        0.000000       -0.058928         1
        11        12        13        14     9      180.000000       18.660778         2
        11        12        13        14     9        0.000000       -1.621207         3
        11        12        13        14     9      180.000000       -0.382782         4
        11        12        13        43     9        0.000000        0.010660         1
        11        12        13        43     9      180.000000       14.271862         2
        11        12        13        43     9        0.000000       -0.794146         3
        11        12        13        43     9      180.000000        0.157356         4
        12        11        10        40     9        0.000000        0.060923         1
        12        11        10        40     9      180.000000       14.800026         2
        12        11        10        40     9        0.000000       -0.680406         3
        12        11        10        40     9      180.000000        0.105082         4
        12        13        14        44     9        0.000000        0.060923         1
        12        13        14        44     9      180.000000       14.800027         2
        12        13        14        44     9        0.000000       -0.680405         3
        12        13        14        44     9      180.000000        0.105082         4
        13        12        11        41     9        0.000000        0.010660         1
        13        12        11        41     9      180.000000       14.271863         2
        13        12        11        41     9        0.000000       -0.794146         3
        13        12        11        41     9      180.000000        0.157356         4
        14         9         8        15     9        0.000000       -0.070386         1
        14         9         8        15     9      180.000000        0.892704         2
        14         9         8        15     9        0.000000       -0.026553         3
        14         9         8        15     9      180.000000        0.262291         4
        14         9         8        39     9        0.000000        0.166578         1
        14         9         8        39     9      180.000000        0.665435         2
        14         9         8        39     9        0.000000        0.050777         3
        14         9         8        39     9      180.000000       -0.152664         4
        14         9        10        40     9        0.000000       -0.069577         1
        14         9        10        40     9      180.000000       14.508781         2
        14         9        10        40     9        0.000000       -0.591210         3
        14         9        10        40     9      180.000000       -0.002966         4
        14        13        12        42     9        0.000000        0.016776         1
        14        13        12        42     9      180.000000       14.282112         2
        14        13        12        42     9        0.000000       -0.780703         3
        14        13        12        42     9      180.000000        0.125907         4
        15         8         7        25     9        0.000000       -0.117867         1
        15         8         7        25     9      180.000000       -1.535849         2
        15         8         7        25     9        0.000000       -0.245270         3
        15         8         7        25     9      180.000000        0.184631         4
        15         8         7        38     9        0.000000       -0.081846         1
        15         8         7        38     9      180.000000        0.009201         2
        15         8         7        38     9        0.000000        0.106304         3
        15         8         7        38     9      180.000000        0.240746         4
        15        16        17        18     9        0.000000        0.326164         1
        15        16        17        18     9      180.000000       18.773638         2
        15        16        17        18     9        0.000000        0.301121         3
        15        16        17        18     9      180.000000       -0.269930         4
        15        16        17        46     9        0.000000       -0.241798         1
        15        16        17        46     9      180.000000       15.381446         2
        15        16        17        46     9        0.000000       -0.144344         3
        15        16        17        46     9      180.000000        0.039742         4
        15        16        24        23     9        0.000000        0.263844         1
        15        16        24        23     9      180.000000       16.771991         2
        15        16        24        23     9        0.000000        0.201868         3
        15        16        24        23     9      180.000000       -0.499993         4
        15        16        24        25     9        0.000000       -0.083875         1
        15        16        24        25     9      180.000000       15.542137         2
        15        16        24        25     9        0.000000        0.490375         3
        15        16        24        25     9      180.000000       -0.481563         4
        16        15         8        39     9        0.000000       -0.121895         1
        16        15         8        39     9      180.000000       -0.143395         2
        16        15         8        39     9        0.000000        0.614519         3
        16        15         8        39     9      180.000000       -0.032400         4
        16        17        18        19     9        0.000000        0.027618         1
        16        17        18        19     9      180.000000       18.220025         2
        16        17        18        19     9        0.000000       -1.842415         3
        16        17        18        19     9      180.000000       -0.377449         4
        16        17        18        47     9        0.000000        0.130409         1
        16        17        18        47     9      180.000000       14.262744         2
        16        17        18        47     9        0.000000       -0.603252         3
        16        17        18        47     9      180.000000        0.139399         4
        16        24        23        19     9        0.000000        0.105014         1
        16        24        23        19     9      180.000000       18.942789         2
        16        24        23        19     9        0.000000       -1.575586         3
        16        24        23        19     9      180.000000       -0.425645         4
        16        24        23        53     9        0.000000        0.176773         1
        16        24        23        53     9      180.000000       14.376976         2
        16        24        23        53     9        0.000000       -0.201233         3
        16        24        23        53     9      180.000000        0.153426         4
        16        24        25        26     9        0.000000       -2.188140         1
        16        24        25        26     9      180.000000       -1.874310         2
        16        24        25        26     9        0.000000        0.755222         3
        16        24        25        26     9      180.000000       -0.141550         4
        16        24        25        54     9        0.000000        0.063166         1
        16        24        25        54     9      180.000000        0.387146         2
        16        24        25        54     9        0.000000        0.108669         3
        16        24        25        54     9      180.000000        0.024043         4
        17        16        15        45     9        0.000000       -0.341566         1
        17        16        15        45     9      180.000000        4.114000         2
        17        16        15        45     9        0.000000       -0.013073         3
        17        16        15        45     9      180.000000        0.278433         4
        17        16        24        23     9        0.000000        0.030248         1
        17        16        24        23     9      180.000000       14.690028         2
        17        16        24        23     9        0.000000       -0.698927         3
        17        16        24        23     9      180.000000       -0.252298         4
        17        16        24        25     9        0.000000        0.096872         1
        17        16        24        25     9      180.000000       12.100274         2
        17        16        24        25     9        0.000000       -0.136579         3
        17        16        24        25     9      180.000000       -0.085245         4
        17        18        19        20     9        0.000000       -0.031764         1
        17        18        19        20     9      180.000000       15.255922         2
        17        18        19        20     9        0.000000       -0.194502         3
        17        18        19        20     9      180.000000       -0.159536         4
        17        18        19        23     9        0.000000       -0.021741         1
        17        18        19        23     9      180.000000       18.466127         2
        17        18        19        23     9        0.000000       -1.476948         3
        17        18        19        23     9      180.000000       -0.414183         4
        18        17        16        24     9        0.000000        0.037670         1
        18        17        16        24     9      180.000000       16.984570         2
        18        17        16        24     9        0.000000       -0.881892         3
        18        17        16        24     9      180.000000       -0.324286         4
        18        19        20        21     9        0.000000       -0.053261         1
        18        19        20        21     9      180.000000        0.717978         2
        18        19        20        21     9        0.000000        0.171936         3
        18        19        20        21     9      180.000000        0.122827         4
        18        19        20        22     9        0.000000       -0.053261         1
        18        19        20        22     9      180.000000        0.717978         2
        18        19        20        22     9        0.000000        0.171936         3
        18        19        20        22     9      180.000000        0.122827         4
        18        19        20        48     9        0.000000        0.239483         1
        18        19        20        48     9      180.000000        1.527589         2
        18        19        20        48     9        0.000000        0.146696         3
        18        19        20        48     9      180.000000        0.022105         4
        18        19        23        24     9        0.000000       -0.057146         1
        18        19        23        24     9      180.000000       18.044629         2
        18        19        23        24     9        0.000000       -1.520082         3
        18        19        23        24     9      180.000000       -0.471113         4
        18        19        23        53     9        0.000000        0.005548         1
        18        19        23        53     9      180.000000       13.742843         2
        18        19        23        53     9        0.000000       -0.580339         3
        18        19        23        53     9      180.000000        0.060453         4
        19        18        17        46     9        0.000000        0.050617         1
        19        18        17        46     9      180.000000       14.784963         2
        19        18        17        46     9        0.000000       -0.558862         3
        19        18        17        46     9      180.000000        0.163323         4
        19        20        21        22     9        0.000000       46.744589         1
        19        20        21        22     9      180.000000        0.334947         2
        19        20        21        22     9        0.000000        0.534595         3
        19        20        21        22     9      180.000000       12.487425         4
        19        20        21        49     9        0.000000        2.204504         1
        19        20        21        49     9      180.000000       -0.115917         2
        19        20        21        49     9        0.000000        0.195136         3
        19        20        21        49     9      180.000000        1.451851         4
        19        20        21        50     9        0.000000        2.204504         1
        19        20        21        50     9      180.000000       -0.115917         2
        19        20        21        50     9        0.000000        0.195136         3
        19        20        21        50     9      180.000000        1.451851         4
        19        20        22        21     9        0.000000       46.744589         1
        19        20        22        21     9      180.000000        0.334947         2
        19        20        22        21     9        0.000000        0.534595         3
        19        20        22        21     9      180.000000       12.487425         4
        19        20        22        51     9        0.000000        2.204504         1
        19        20        22        51     9      180.000000       -0.115917         2
        19        20        22        51     9        0.000000        0.195136         3
        19        20        22        51     9      180.000000        1.451851         4
        19        20        22        52     9        0.000000        2.204504         1
        19        20        22        52     9      180.000000       -0.115917         2
        19        20        22        52     9        0.000000        0.195136         3
        19        20        22        52     9      180.000000        1.451851         4
        19        23        24        25     9        0.000000        0.092041         1
        19        23        24        25     9      180.000000       17.250675         2
        19        23        24        25     9        0.000000       -0.135097         3
        19        23        24        25     9      180.000000       -0.393154         4
        20        19        18        47     9        0.000000       -0.167467         1
        20        19        18        47     9      180.000000       12.550088         2
        20        19        18        47     9        0.000000       -0.344622         3
        20        19        18        47     9      180.000000        0.237262         4
        20        19        23        24     9        0.000000       -0.088525         1
        20        19        23        24     9      180.000000       15.129000         2
        20        19        23        24     9        0.000000       -0.141346         3
        20        19        23        24     9      180.000000       -0.282770         4
        20        19        23        53     9        0.000000       -0.203898         1
        20        19        23        53     9      180.000000       12.683686         2
        20        19        23        53     9        0.000000       -0.394598         3
        20        19        23        53     9      180.000000        0.215457         4
        20        21        22        51     9        0.000000       22.894469         1
        20        21        22        51     9      180.000000        2.062250         2
        20        21        22        51     9        0.000000        0.075930         3
        20        21        22        51     9      180.000000        5.121781         4
        20        21        22        52     9        0.000000       22.894469         1
        20        21        22        52     9      180.000000        2.062250         2
        20        21        22        52     9        0.000000        0.075930         3
        20        21        22        52     9      180.000000        5.121781         4
        20        22        21        49     9        0.000000       22.894469         1
        20        22        21        49     9      180.000000        2.062250         2
        20        22        21        49     9        0.000000        0.075930         3
        20        22        21        49     9      180.000000        5.121781         4
        20        22        21        50     9        0.000000       22.894469         1
        20        22        21        50     9      180.000000        2.062250         2
        20        22        21        50     9        0.000000        0.075930         3
        20        22        21        50     9      180.000000        5.121781         4
        21        20        19        23     9        0.000000       -0.167341         1
        21        20        19        23     9      180.000000        0.838627         2
        21        20        19        23     9        0.000000        0.043842         3
        21        20        19        23     9      180.000000        0.141219         4
        21        20        22        51     9        0.000000       31.477663         1
        21        20        22        51     9      180.000000        2.656849         2
        21        20        22        51     9        0.000000        0.107304         3
        21        20        22        51     9      180.000000        6.208043         4
        21        20        22        52     9        0.000000       31.477663         1
        21        20        22        52     9      180.000000        2.656849         2
        21        20        22        52     9        0.000000        0.107304         3
        21        20        22        52     9      180.000000        6.208043         4
        21        22        20        48     9        0.000000       39.453318         1
        21        22        20        48     9      180.000000        3.709865         2
        21        22        20        48     9        0.000000       -0.035645         3
        21        22        20        48     9      180.000000        7.974627         4
        22        20        19        23     9        0.000000       -0.167341         1
        22        20        19        23     9      180.000000        0.838627         2
        22        20        19        23     9        0.000000        0.043842         3
        22        20        19        23     9      180.000000        0.141219         4
        22        20        21        49     9        0.000000       31.477663         1
        22        20        21        49     9      180.000000        2.656849         2
        22        20        21        49     9        0.000000        0.107304         3
        22        20        21        49     9      180.000000        6.208043         4
        22        20        21        50     9        0.000000       31.477663         1
        22        20        21        50     9      180.000000        2.656849         2
        22        20        21        50     9        0.000000        0.107304         3
        22        20        21        50     9      180.000000        6.208043         4
        22        21        20        48     9        0.000000       39.453318         1
        22        21        20        48     9      180.000000        3.709865         2
        22        21        20        48     9        0.000000       -0.035645         3
        22        21        20        48     9      180.000000        7.974627         4
        23        19        18        47     9        0.000000        0.031916         1
        23        19        18        47     9      180.000000       13.914189         2
        23        19        18        47     9        0.000000       -0.623847         3
        23        19        18        47     9      180.000000        0.058251         4
        23        19        20        48     9        0.000000        0.229009         1
        23        19        20        48     9      180.000000        1.489089         2
        23        19        20        48     9        0.000000        0.036393         3
        23        19        20        48     9      180.000000        0.053500         4
        23        24        25        26     9        0.000000        0.072249         1
        23        24        25        26     9      180.000000        0.147717         2
        23        24        25        26     9        0.000000       -0.711434         3
        23        24        25        26     9      180.000000        0.118878         4
        23        24        25        54     9        0.000000       -0.066707         1
        23        24        25        54     9      180.000000        0.011935         2
        23        24        25        54     9        0.000000       -0.661170         3
        23        24        25        54     9      180.000000       -0.027431         4
        24        16        15        45     9        0.000000        7.004998         1
        24        16        15        45     9      180.000000        3.732988         2
        24        16        15        45     9        0.000000       -0.631293         3
        24        16        15        45     9      180.000000        0.464427         4
        24        16        17        46     9        0.000000       -0.000332         1
        24        16        17        46     9      180.000000       12.709888         2
        24        16        17        46     9        0.000000       -0.215697         3
        24        16        17        46     9      180.000000        0.028895         4
        24        25         7        38     9        0.000000       -0.052583         1
        24        25         7        38     9      180.000000       -0.003587         2
        24        25         7        38     9        0.000000        0.123367         3
        24        25         7        38     9      180.000000        0.254273         4
        25         7         6        36     9        0.000000       -0.092998         1
        25         7         6        36     9      180.000000        0.058629         2
        25         7         6        36     9        0.000000        0.162152         3
        25         7         6        36     9      180.000000        0.033697         4
        25         7         6        37     9        0.000000       -0.092998         1
        25         7         6        37     9      180.000000        0.058629         2
        25         7         6        37     9        0.000000        0.162152         3
        25         7         6        37     9      180.000000        0.033697         4
        25         7         8        39     9        0.000000       -0.206731         1
        25         7         8        39     9      180.000000        0.007327         2
        25         7         8        39     9        0.000000        0.109644         3
        25         7         8        39     9      180.000000        0.141330         4
        25        24        23        53     9        0.000000       -0.012388         1
        25        24        23        53     9      180.000000       13.013047         2
        25        24        23        53     9        0.000000       -0.162451         3
        25        24        23        53     9      180.000000        0.158647         4
        25        26         4        33     9        0.000000       -0.883013         1
        25        26         4        33     9      180.000000        0.201994         2
        25        26         4        33     9        0.000000        0.615621         3
        25        26         4        33     9      180.000000        0.165352         4
        26         4         3        31     9        0.000000       -0.213767         1
        26         4         3        31     9      180.000000        0.108410         2
        26         4         3        31     9        0.000000        0.614432         3
        26         4         3        31     9      180.000000        0.027969         4
        26         4         3        32     9        0.000000       -0.213767         1
        26         4         3        32     9      180.000000        0.108410         2
        26         4         3        32     9        0.000000        0.614432         3
        26         4         3        32     9      180.000000        0.027969         4
        26         4         5        34     9        0.000000        0.055975         1
        26         4         5        34     9      180.000000        0.036487         2
        26         4         5        34     9        0.000000        0.326521         3
        26         4         5        34     9      180.000000        0.017483         4
        26         4         5        35     9        0.000000        0.055975         1
        26         4         5        35     9      180.000000        0.036487         2
        26         4         5        35     9        0.000000        0.326521         3
        26         4         5        35     9      180.000000        0.017483         4
        26        25         7        38     9        0.000000       -0.718795         1
        26        25         7        38     9      180.000000       -0.020085         2
        26        25         7        38     9        0.000000        0.046232         3
        26        25         7        38     9      180.000000        0.162412         4
        27         1         2        30     9        0.000000       -0.209414         1
        27         1         2        30     9      180.000000        0.092757         2
        27         1         2        30     9        0.000000        0.403927         3
        27         1         2        30     9      180.000000        0.036922         4
        27         1         2        55     9        0.000000       -0.209414         1
        27         1         2        55     9      180.000000        0.092757         2
        27         1         2        55     9        0.000000        0.403927         3
        27         1         2        55     9      180.000000        0.036923         4
        28         1         2        30     9        0.000000       -0.209414         1
        28         1         2        30     9      180.000000        0.092757         2
        28         1         2        30     9        0.000000        0.403927         3
        28         1         2        30     9      180.000000        0.036922         4
        28         1         2        55     9        0.000000       -0.209414         1
        28         1         2        55     9      180.000000        0.092757         2
        28         1         2        55     9        0.000000        0.403927         3
        28         1         2        55     9      180.000000        0.036923         4
        29         1         2        30     9        0.000000       -0.209413         1
        29         1         2        30     9      180.000000        0.092758         2
        29         1         2        30     9        0.000000        0.403926         3
        29         1         2        30     9      180.000000        0.036922         4
        29         1         2        55     9        0.000000       -0.209413         1
        29         1         2        55     9      180.000000        0.092756         2
        29         1         2        55     9        0.000000        0.403926         3
        29         1         2        55     9      180.000000        0.036922         4
        30         2         3        31     9        0.000000       -0.010031         1
        30         2         3        31     9      180.000000       -0.011853         2
        30         2         3        31     9        0.000000        0.447966         3
        30         2         3        31     9      180.000000        0.047175         4
        30         2         3        32     9        0.000000       -0.010031         1
        30         2         3        32     9      180.000000       -0.011853         2
        30         2         3        32     9        0.000000        0.447966         3
        30         2         3        32     9      180.000000        0.047175         4
        31         3         2        55     9        0.000000       -0.010032         1
        31         3         2        55     9      180.000000       -0.011852         2
        31         3         2        55     9        0.000000        0.447966         3
        31         3         2        55     9      180.000000        0.047175         4
        31         3         4        33     9        0.000000       -0.147414         1
        31         3         4        33     9      180.000000        0.142584         2
        31         3         4        33     9        0.000000        0.671232         3
        31         3         4        33     9      180.000000       -0.039688         4
        32         3         2        55     9        0.000000       -0.010032         1
        32         3         2        55     9      180.000000       -0.011852         2
        32         3         2        55     9        0.000000        0.447966         3
        32         3         2        55     9      180.000000        0.047175         4
        32         3         4        33     9        0.000000       -0.147414         1
        32         3         4        33     9      180.000000        0.142584         2
        32         3         4        33     9        0.000000        0.671232         3
        32         3         4        33     9      180.000000       -0.039688         4
        33         4         5        34     9        0.000000        0.101066         1
        33         4         5        34     9      180.000000       -0.004487         2
        33         4         5        34     9        0.000000        0.497701         3
        33         4         5        34     9      180.000000       -0.076082         4
        33         4         5        35     9        0.000000        0.101066         1
        33         4         5        35     9      180.000000       -0.004487         2
        33         4         5        35     9        0.000000        0.497701         3
        33         4         5        35     9      180.000000       -0.076082         4
        34         5         6        36     9        0.000000        0.002806         1
        34         5         6        36     9      180.000000        0.000718         2
        34         5         6        36     9        0.000000        0.291687         3
        34         5         6        36     9      180.000000        0.023503         4
        34         5         6        37     9        0.000000        0.002806         1
        34         5         6        37     9      180.000000        0.000718         2
        34         5         6        37     9        0.000000        0.291687         3
        34         5         6        37     9      180.000000        0.023503         4
        35         5         6        36     9        0.000000        0.002806         1
        35         5         6        36     9      180.000000        0.000718         2
        35         5         6        36     9        0.000000        0.291687         3
        35         5         6        36     9      180.000000        0.023503         4
        35         5         6        37     9        0.000000        0.002806         1
        35         5         6        37     9      180.000000        0.000718         2
        35         5         6        37     9        0.000000        0.291687         3
        35         5         6        37     9      180.000000        0.023503         4
        36         6         7        38     9        0.000000        0.300282         1
        36         6         7        38     9      180.000000        0.083330         2
        36         6         7        38     9        0.000000        0.383292         3
        36         6         7        38     9      180.000000       -0.056411         4
        37         6         7        38     9        0.000000        0.300282         1
        37         6         7        38     9      180.000000        0.083330         2
        37         6         7        38     9        0.000000        0.383292         3
        37         6         7        38     9      180.000000       -0.056411         4
        38         7         8        39     9        0.000000        0.589950         1
        38         7         8        39     9      180.000000        0.106993         2
        38         7         8        39     9        0.000000        0.459468         3
        38         7         8        39     9      180.000000       -0.274357         4
        38         7        25        54     9        0.000000        0.059450         1
        38         7        25        54     9      180.000000        0.056854         2
        38         7        25        54     9        0.000000        0.270206         3
        38         7        25        54     9      180.000000       -0.082709         4
        39         8        15        45     9        0.000000       -0.890252         1
        39         8        15        45     9      180.000000       -0.260121         2
        39         8        15        45     9        0.000000        0.459101         3
        39         8        15        45     9      180.000000       -0.171435         4
        40        10        11        41     9        0.000000       -0.180341         1
        40        10        11        41     9      180.000000       11.789159         2
        40        10        11        41     9        0.000000       -0.659630         3
        40        10        11        41     9      180.000000        0.310085         4
        41        11        12        42     9        0.000000       -0.084558         1
        41        11        12        42     9      180.000000       11.520938         2
        41        11        12        42     9        0.000000       -0.587926         3
        41        11        12        42     9      180.000000        0.263272         4
        42        12        13        43     9        0.000000       -0.084558         1
        42        12        13        43     9      180.000000       11.520937         2
        42        12        13        43     9        0.000000       -0.587926         3
        42        12        13        43     9      180.000000        0.263272         4
        43        13        14        44     9        0.000000       -0.180341         1
        43        13        14        44     9      180.000000       11.789161         2
        43        13        14        44     9        0.000000       -0.659630         3
        43        13        14        44     9      180.000000        0.310085         4
        46        17        18        47     9        0.000000       -0.060498         1
        46        17        18        47     9      180.000000       12.159851         2
        46        17        18        47     9        0.000000       -0.651383         3
        46        17        18        47     9      180.000000        0.354198         4
        48        20        21        49     9        0.000000        2.312391         1
        48        20        21        49     9      180.000000        0.070250         2
        48        20        21        49     9        0.000000        0.042500         3
        48        20        21        49     9      180.000000        1.485159         4
        48        20        21        50     9        0.000000        2.312391         1
        48        20        21        50     9      180.000000        0.070250         2
        48        20        21        50     9        0.000000        0.042500         3
        48        20        21        50     9      180.000000        1.485159         4
        48        20        22        51     9        0.000000        2.312391         1
        48        20        22        51     9      180.000000        0.070250         2
        48        20        22        51     9        0.000000        0.042500         3
        48        20        22        51     9      180.000000        1.485159         4
        48        20        22        52     9        0.000000        2.312391         1
        48        20        22        52     9      180.000000        0.070250         2
        48        20        22        52     9        0.000000        0.042500         3
        48        20        22        52     9      180.000000        1.485159         4
        49        21        22        51     9        0.000000        2.254372         1
        49        21        22        51     9      180.000000       -0.398265         2
        49        21        22        51     9        0.000000        0.090343         3
        49        21        22        51     9      180.000000        0.993825         4
        49        21        22        52     9        0.000000        2.254372         1
        49        21        22        52     9      180.000000       -0.398265         2
        49        21        22        52     9        0.000000        0.090343         3
        49        21        22        52     9      180.000000        0.993825         4
        50        21        22        51     9        0.000000        2.254372         1
        50        21        22        51     9      180.000000       -0.398265         2
        50        21        22        51     9        0.000000        0.090343         3
        50        21        22        51     9      180.000000        0.993825         4
        50        21        22        52     9        0.000000        2.254372         1
        50        21        22        52     9      180.000000       -0.398265         2
        50        21        22        52     9        0.000000        0.090343         3
        50        21        22        52     9      180.000000        0.993825         4

[ dihedrals ] ; impropers
;       ai        aj        ak        al funct           phase               k        pn
        10         9        11        40     4      180.000000        0.182437         2
        10        11        40         9     4      180.000000        0.182437         2
        10        40         9        11     4      180.000000        0.182437         2
        11        10        12        41     4      180.000000        0.258178         2
        11        12        41        10     4      180.000000        0.258178         2
        11        41        10        12     4      180.000000        0.258178         2
        12        11        13        42     4      180.000000        0.333132         2
        12        13        42        11     4      180.000000        0.333132         2
        12        42        11        13     4      180.000000        0.333132         2
        13        12        14        43     4      180.000000        0.258179         2
        13        14        43        12     4      180.000000        0.258179         2
        13        43        12        14     4      180.000000        0.258179         2
        14         9        13        44     4      180.000000        0.182436         2
        14        13        44         9     4      180.000000        0.182436         2
        14        44         9        13     4      180.000000        0.182436         2

[ pairs ]
;       ai        aj funct
         1         4     1
         1        31     1
         1        32     1
         2         5     1
         2        26     1
         2        33     1
         3         6     1
         3        25     1
         3        27     1
         3        28     1
         3        29     1
         3        34     1
         3        35     1
         4         7     1
         4        24     1
         4        30     1
         4        36     1
         4        37     1
         4        54     1
         4        55     1
         5         8     1
         5        25     1
         5        31     1
         5        32     1
         5        38     1
         6         9     1
         6        15     1
         6        24     1
         6        26     1
         6        33     1
         6        39     1
         6        54     1
         7        10     1
         7        14     1
         7        16     1
         7        23     1
         7        34     1
         7        35     1
         7        45     1
         8        11     1
         8        13     1
         8        17     1
         8        24     1
         8        26     1
         8        36     1
         8        37     1
         8        40     1
         8        44     1
         8        54     1
         9        12     1
         9        16     1
         9        25     1
         9        38     1
         9        41     1
         9        43     1
         9        45     1
        10        13     1
        10        15     1
        10        39     1
        10        42     1
        10        44     1
        11        14     1
        11        43     1
        12        40     1
        12        44     1
        13        41     1
        14        15     1
        14        39     1
        14        40     1
        14        42     1
        15        18     1
        15        23     1
        15        25     1
        15        38     1
        15        46     1
        16        19     1
        16        26     1
        16        39     1
        16        47     1
        16        53     1
        16        54     1
        17        20     1
        17        23     1
        17        25     1
        17        45     1
        18        21     1
        18        22     1
        18        24     1
        18        48     1
        18        53     1
        19        25     1
        19        46     1
        19        49     1
        19        50     1
        19        51     1
        19        52     1
        20        24     1
        20        47     1
        20        53     1
        21        23     1
        22        23     1
        23        26     1
        23        47     1
        23        48     1
        23        54     1
        24        38     1
        24        45     1
        24        46     1
        25        33     1
        25        36     1
        25        37     1
        25        39     1
        25        53     1
        26        31     1
        26        32     1
        26        34     1
        26        35     1
        26        38     1
        27        30     1
        27        55     1
        28        30     1
        28        55     1
        29        30     1
        29        55     1
        30        31     1
        30        32     1
        31        33     1
        31        55     1
        32        33     1
        32        55     1
        33        34     1
        33        35     1
        34        36     1
        34        37     1
        35        36     1
        35        37     1
        36        38     1
        37        38     1
        38        39     1
        38        54     1
        39        45     1
        40        41     1
        41        42     1
        42        43     1
        43        44     1
        46        47     1
        48        49     1
        48        50     1
        48        51     1
        48        52     1
        49        51     1
        49        52     1
        50        51     1
        50        52     1
