; ITP file created by ByteFF-ML, 2026-02-21 07:39:26.849455

[ atomtypes ]
;name           bonded.type        at.num        mass        charge   ptype           sigma         epsilon
 n0bf                                   7      0.0000       0.00000       A     2.76189e-01     4.76789e+00
 c1bf                                   6      0.0000       0.00000       A     3.39821e-01     4.47900e-01
 c2bf                                   6      0.0000       0.00000       A     3.39508e-01     4.49771e-01
 c3bf                                   6      0.0000       0.00000       A     3.39766e-01     4.52925e-01
 c4bf                                   6      0.0000       0.00000       A     3.39899e-01     4.52709e-01
 c5bf                                   6      0.0000       0.00000       A     3.40218e-01     4.51818e-01
 c6bf                                   6      0.0000       0.00000       A     3.39362e-01     4.50344e-01
 c7bf                                   6      0.0000       0.00000       A     3.31416e-01     4.11566e-01
 c8bf                                   6      0.0000       0.00000       A     3.31559e-01     4.13032e-01
 c9bf                                   6      0.0000       0.00000       A     3.31517e-01     4.13352e-01
 c10bf                                  6      0.0000       0.00000       A     3.31506e-01     4.12857e-01
 c11bf                                  6      0.0000       0.00000       A     3.31517e-01     4.13352e-01
 c12bf                                  6      0.0000       0.00000       A     3.31559e-01     4.13032e-01
 n13bf                                  7      0.0000       0.00000       A     3.28286e-01     6.41163e-01
 c14bf                                  6      0.0000       0.00000       A     3.31454e-01     4.11042e-01
 c15bf                                  6      0.0000       0.00000       A     3.31569e-01     4.14507e-01
 c16bf                                  6      0.0000       0.00000       A     3.31508e-01     4.13091e-01
 c17bf                                  6      0.0000       0.00000       A     3.31488e-01     4.14461e-01
 c18bf                                  6      0.0000       0.00000       A     3.39788e-01     4.48602e-01
 f19bf                                  9      0.0000       0.00000       A     3.03460e-01     3.47943e-01
 f20bf                                  9      0.0000       0.00000       A     3.03460e-01     3.47943e-01
 f21bf                                  9      0.0000       0.00000       A     3.03460e-01     3.47943e-01
 c22bf                                  6      0.0000       0.00000       A     3.31217e-01     4.13522e-01
 c23bf                                  6      0.0000       0.00000       A     3.31287e-01     4.10150e-01
 c24bf                                  6      0.0000       0.00000       A     3.39616e-01     4.52931e-01
 o25bf                                  8      0.0000       0.00000       A     3.16081e-01     3.06883e-01
 h26bf                                  1      0.0000       0.00000       A     1.10660e-01     4.10381e-02
 h27bf                                  1      0.0000       0.00000       A     1.10660e-01     4.10381e-02
 h28bf                                  1      0.0000       0.00000       A     1.87736e-01     8.78461e-02
 h29bf                                  1      0.0000       0.00000       A     1.87736e-01     8.78461e-02
 h30bf                                  1      0.0000       0.00000       A     2.42405e-01     8.76418e-02
 h31bf                                  1      0.0000       0.00000       A     2.60071e-01     8.65692e-02
 h32bf                                  1      0.0000       0.00000       A     2.60071e-01     8.65692e-02
 h33bf                                  1      0.0000       0.00000       A     2.60017e-01     8.63234e-02
 h34bf                                  1      0.0000       0.00000       A     2.60017e-01     8.63234e-02
 h35bf                                  1      0.0000       0.00000       A     2.59608e-01     8.66043e-02
 h36bf                                  1      0.0000       0.00000       A     2.42675e-01     8.80520e-02
 h37bf                                  1      0.0000       0.00000       A     2.62512e-01     6.76287e-02
 h38bf                                  1      0.0000       0.00000       A     2.62458e-01     6.72647e-02
 h39bf                                  1      0.0000       0.00000       A     2.62457e-01     6.73477e-02
 h40bf                                  1      0.0000       0.00000       A     2.62458e-01     6.72647e-02
 h41bf                                  1      0.0000       0.00000       A     2.62512e-01     6.76287e-02
 h42bf                                  1      0.0000       0.00000       A     1.10887e-01     4.11451e-02
 h43bf                                  1      0.0000       0.00000       A     2.62406e-01     6.70142e-02
 h44bf                                  1      0.0000       0.00000       A     2.62597e-01     6.75951e-02
 h45bf                                  1      0.0000       0.00000       A     2.62549e-01     6.73222e-02
 h46bf                                  1      0.0000       0.00000       A     2.42774e-01     8.84398e-02
 h47bf                                  1      0.0000       0.00000       A     1.10660e-01     4.10381e-02

[ moleculetype ]
;name             nrexcl
 CHEMBL1085666         3

[ atoms ]
;       nr            type      resi   res      atom      cgnr      charge          mass ; qtot
         1            n0bf         1   UNL        n0         1    -0.98549       14.0070 ; qtot   -0.985
         2            c1bf         1   UNL        c1         2     0.10960       12.0110 ; qtot   -0.876
         3            c2bf         1   UNL        c2         3     0.14819       12.0110 ; qtot   -0.728
         4            c3bf         1   UNL        c3         4    -0.09674       12.0110 ; qtot   -0.824
         5            c4bf         1   UNL        c4         5    -0.06551       12.0110 ; qtot   -0.890
         6            c5bf         1   UNL        c5         6    -0.09920       12.0110 ; qtot   -0.989
         7            c6bf         1   UNL        c6         7     0.26107       12.0110 ; qtot   -0.728
         8            c7bf         1   UNL        c7         8    -0.10768       12.0110 ; qtot   -0.836
         9            c8bf         1   UNL        c8         9    -0.09640       12.0110 ; qtot   -0.932
        10            c9bf         1   UNL        c9        10    -0.11334       12.0110 ; qtot   -1.046
        11           c10bf         1   UNL       c10        11    -0.10684       12.0110 ; qtot   -1.152
        12           c11bf         1   UNL       c11        12    -0.11334       12.0110 ; qtot   -1.266
        13           c12bf         1   UNL       c12        13    -0.09640       12.0110 ; qtot   -1.362
        14           n13bf         1   UNL       n13        14    -0.92305       14.0070 ; qtot   -2.285
        15           c14bf         1   UNL       c14        15     0.30845       12.0110 ; qtot   -1.977
        16           c15bf         1   UNL       c15        16    -0.17966       12.0110 ; qtot   -2.156
        17           c16bf         1   UNL       c16        17    -0.01484       12.0110 ; qtot   -2.171
        18           c17bf         1   UNL       c17        18    -0.23480       12.0110 ; qtot   -2.406
        19           c18bf         1   UNL       c18        19     0.34500       12.0110 ; qtot   -2.061
        20           f19bf         1   UNL       f19        20    -0.10402       18.9980 ; qtot   -2.165
        21           f20bf         1   UNL       f20        21    -0.10402       18.9980 ; qtot   -2.269
        22           f21bf         1   UNL       f21        22    -0.10402       18.9980 ; qtot   -2.373
        23           c22bf         1   UNL       c22        23     0.01257       12.0110 ; qtot   -2.360
        24           c23bf         1   UNL       c23        24    -0.16857       12.0110 ; qtot   -2.529
        25           c24bf         1   UNL       c24        25     0.23774       12.0110 ; qtot   -2.291
        26           o25bf         1   UNL       o25        26    -0.46215       15.9990 ; qtot   -2.753
        27           h26bf         1   UNL       h26        27     0.52704        1.0080 ; qtot   -2.226
        28           h27bf         1   UNL       h27        28     0.52704        1.0080 ; qtot   -1.699
        29           h28bf         1   UNL       h28        29     0.11865        1.0080 ; qtot   -1.581
        30           h29bf         1   UNL       h29        30     0.11865        1.0080 ; qtot   -1.462
        31           h30bf         1   UNL       h30        31     0.08610        1.0080 ; qtot   -1.376
        32           h31bf         1   UNL       h31        32     0.06611        1.0080 ; qtot   -1.310
        33           h32bf         1   UNL       h32        33     0.06611        1.0080 ; qtot   -1.244
        34           h33bf         1   UNL       h33        34     0.05432        1.0080 ; qtot   -1.189
        35           h34bf         1   UNL       h34        35     0.05432        1.0080 ; qtot   -1.135
        36           h35bf         1   UNL       h35        36     0.06779        1.0080 ; qtot   -1.067
        37           h36bf         1   UNL       h36        37     0.05590        1.0080 ; qtot   -1.011
        38           h37bf         1   UNL       h37        38     0.11749        1.0080 ; qtot   -0.894
        39           h38bf         1   UNL       h38        39     0.11433        1.0080 ; qtot   -0.780
        40           h39bf         1   UNL       h39        40     0.11376        1.0080 ; qtot   -0.666
        41           h40bf         1   UNL       h40        41     0.11433        1.0080 ; qtot   -0.552
        42           h41bf         1   UNL       h41        42     0.11749        1.0080 ; qtot   -0.434
        43           h42bf         1   UNL       h42        43     0.45777        1.0080 ; qtot    0.024
        44           h43bf         1   UNL       h43        44     0.11995        1.0080 ; qtot    0.144
        45           h44bf         1   UNL       h44        45     0.13153        1.0080 ; qtot    0.275
        46           h45bf         1   UNL       h45        46     0.13526        1.0080 ; qtot    0.410
        47           h46bf         1   UNL       h46        47     0.06250        1.0080 ; qtot    0.473
        48           h47bf         1   UNL       h47        48     0.52701        1.0080 ; qtot    1.000

[ bonds ]
;       ai        aj funct               r               k
         1         2     1        0.152022   134891.582861
         1        27     1        0.102868   381940.694482
         1        28     1        0.102868   381940.694482
         1        48     1        0.102868   381940.643408
         2         3     1        0.153347   175862.657178
         2        29     1        0.109008   314528.471582
         2        30     1        0.109008   314528.471582
         3         4     1        0.153744   171159.015308
         3        26     1        0.142789   186960.344336
         3        31     1        0.109806   290974.752881
         4         5     1        0.153736   182119.057446
         4        32     1        0.109433   298924.582715
         4        33     1        0.109433   298924.582715
         5         6     1        0.153672   177369.653076
         5        34     1        0.109414   298482.535352
         5        35     1        0.109414   298482.535352
         6         7     1        0.154231   162728.372778
         6        25     1        0.153696   167726.444751
         6        36     1        0.109661   296507.444238
         7         8     1        0.152011   180470.777490
         7        14     1        0.146639   193821.578271
         7        37     1        0.109903   282326.764014
         8         9     1        0.140235   288447.651611
         8        13     1        0.140235   288447.651611
         9        10     1        0.139815   313021.067090
         9        38     1        0.108668   316228.298193
        10        11     1        0.139918   306554.075049
        10        39     1        0.108647   318864.672754
        11        12     1        0.139918   306554.075049
        11        40     1        0.108625   319984.475000
        12        13     1        0.139815   313021.067090
        12        41     1        0.108647   318864.672754
        13        42     1        0.108668   316228.298193
        14        15     1        0.140120   267840.276904
        14        43     1        0.101355   410549.739355
        15        16     1        0.140735   277586.412549
        15        24     1        0.141215   263372.840527
        16        17     1        0.139041   333166.424414
        16        44     1        0.108629   317015.479590
        17        18     1        0.140173   293861.288965
        17        45     1        0.108531   322344.538037
        18        19     1        0.150293   195287.357275
        18        23     1        0.139887   297622.828564
        19        20     1        0.135840   221716.758789
        19        21     1        0.135840   221716.758789
        19        22     1        0.135840   221716.758789
        23        24     1        0.139370   310255.806738
        23        46     1        0.108550   319487.752686
        24        25     1        0.151014   191286.024219
        25        26     1        0.145022   161186.122900
        25        47     1        0.109939   282248.952441

[ angles ]
;       ai        aj        ak funct           theta             cth
         1         2         3     1      108.701561      674.555211
         1         2        29     1      107.151382      546.405974
         1         2        30     1      107.151382      546.405974
         2         1        27     1      110.759109      475.001566
         2         1        28     1      110.759109      475.001566
         2         1        48     1      110.759109      475.001566
         2         3         4     1      113.552078      582.695419
         2         3        26     1      104.541283      646.454176
         2         3        31     1      108.707191      492.842557
         3         2        29     1      111.648148      470.523890
         3         2        30     1      111.648148      470.523890
         3         4         5     1      110.441879      652.748052
         3         4        32     1      109.431053      484.472099
         3         4        33     1      109.431053      484.472099
         3        26        25     1      113.895462      593.777120
         4         3        26     1      112.657181      556.361424
         4         3        31     1      109.416946      457.440526
         4         5         6     1      111.079613      623.266799
         4         5        34     1      109.773483      504.850872
         4         5        35     1      109.773483      504.850872
         5         4        32     1      110.383583      503.350216
         5         4        33     1      110.383583      503.350216
         5         6         7     1      113.328896      594.607268
         5         6        25     1      110.180885      597.397133
         5         6        36     1      108.813293      484.520109
         6         5        34     1      109.690323      493.512396
         6         5        35     1      109.690323      493.512396
         6         7         8     1      112.832138      539.061693
         6         7        14     1      108.654358      596.889008
         6         7        37     1      107.204910      478.962787
         6        25        24     1      112.233177      567.866977
         6        25        26     1      111.202919      596.098763
         6        25        47     1      108.455673      466.184592
         7         6        25     1      109.567154      678.098102
         7         6        36     1      107.115433      495.353525
         7         8         9     1      120.675819      480.145730
         7         8        13     1      120.675819      480.145730
         7        14        15     1      118.392113      536.379083
         7        14        43     1      113.211632      469.750690
         8         7        14     1      111.192749      590.960696
         8         7        37     1      107.631065      485.386711
         8         9        10     1      120.662560      709.918234
         8         9        38     1      119.614578      400.532036
         8        13        12     1      120.662560      709.918234
         8        13        42     1      119.614578      400.532036
         9         8        13     1      118.740906      679.590873
         9        10        11     1      120.153175      705.714506
         9        10        39     1      119.816544      429.696851
        10         9        38     1      119.686012      431.264766
        10        11        12     1      119.511429      689.005895
        10        11        40     1      120.255783      430.416551
        11        10        39     1      120.079079      431.521669
        11        12        13     1      120.153175      705.714506
        11        12        41     1      120.079079      431.521669
        12        11        40     1      120.255783      430.416551
        12        13        42     1      119.686012      431.264766
        13        12        41     1      119.816544      429.696851
        14         7        37     1      109.216263      441.919231
        14        15        16     1      119.853516      544.844699
        14        15        24     1      120.381920      586.866970
        15        14        43     1      113.638138      488.207987
        15        16        17     1      120.859085      770.216712
        15        16        44     1      119.257690      424.611327
        15        24        23     1      119.148849      776.854445
        15        24        25     1      119.978683      563.062426
        16        15        24     1      119.169983      656.365638
        16        17        18     1      119.814735      649.825138
        16        17        45     1      119.982407      418.252204
        17        16        44     1      119.795059      441.763486
        17        18        19     1      119.944260      539.726551
        17        18        23     1      119.428001      627.848668
        18        17        45     1      120.115784      419.580102
        18        19        20     1      112.050613      590.814688
        18        19        21     1      112.050613      590.814688
        18        19        22     1      112.050613      590.814688
        18        23        24     1      121.233292      658.046236
        18        23        46     1      119.835167      412.227872
        19        18        23     1      120.179886      484.271952
        20        19        21     1      106.686356      701.106079
        20        19        22     1      106.686356      701.106079
        21        19        22     1      106.686356      701.106079
        23        24        25     1      120.741089      462.558195
        24        23        46     1      118.870621      400.905516
        24        25        26     1      109.587997      626.123444
        24        25        47     1      108.765259      459.778608
        25         6        36     1      107.224136      503.814129
        26         3        31     1      108.403702      453.479912
        26        25        47     1      106.342651      485.821097
        27         1        28     1      108.017235      398.172662
        27         1        48     1      108.017235      398.172662
        28         1        48     1      108.017235      398.172662
        29         2        30     1      109.399826      344.616651
        32         4        33     1      107.026260      357.780393
        34         5        35     1      106.531815      361.918011

[ dihedrals ] ; propers for gromacs 4.5 or higher, use funct 9
;       ai        aj        ak        al funct           phase               k        pn
         1         2         3         4     9        0.000000        1.090762         1
         1         2         3         4     9      180.000000        1.373603         2
         1         2         3         4     9        0.000000        0.753077         3
         1         2         3         4     9      180.000000        0.089759         4
         1         2         3        26     9        0.000000        4.933558         1
         1         2         3        26     9      180.000000       -1.414304         2
         1         2         3        26     9        0.000000        0.682001         3
         1         2         3        26     9      180.000000        0.161066         4
         1         2         3        31     9        0.000000       -0.943546         1
         1         2         3        31     9      180.000000       -1.056634         2
         1         2         3        31     9        0.000000        0.942849         3
         1         2         3        31     9      180.000000        0.000147         4
         2         3         4         5     9        0.000000        0.808489         1
         2         3         4         5     9      180.000000        0.548378         2
         2         3         4         5     9        0.000000        0.398520         3
         2         3         4         5     9      180.000000        0.006765         4
         2         3         4        32     9        0.000000       -0.394748         1
         2         3         4        32     9      180.000000       -0.012608         2
         2         3         4        32     9        0.000000        0.439784         3
         2         3         4        32     9      180.000000        0.044511         4
         2         3         4        33     9        0.000000       -0.394748         1
         2         3         4        33     9      180.000000       -0.012608         2
         2         3         4        33     9        0.000000        0.439784         3
         2         3         4        33     9      180.000000        0.044511         4
         2         3        26        25     9        0.000000       -1.630351         1
         2         3        26        25     9      180.000000       -0.396993         2
         2         3        26        25     9        0.000000        0.602594         3
         2         3        26        25     9      180.000000       -0.037969         4
         3         2         1        27     9        0.000000        0.474952         1
         3         2         1        27     9      180.000000       -0.001070         2
         3         2         1        27     9        0.000000        0.463394         3
         3         2         1        27     9      180.000000       -0.023885         4
         3         2         1        28     9        0.000000        0.474952         1
         3         2         1        28     9      180.000000       -0.001070         2
         3         2         1        28     9        0.000000        0.463394         3
         3         2         1        28     9      180.000000       -0.023885         4
         3         2         1        48     9        0.000000        0.474951         1
         3         2         1        48     9      180.000000       -0.001070         2
         3         2         1        48     9        0.000000        0.463394         3
         3         2         1        48     9      180.000000       -0.023885         4
         3         4         5         6     9        0.000000        0.588398         1
         3         4         5         6     9      180.000000       -0.891111         2
         3         4         5         6     9        0.000000        0.209497         3
         3         4         5         6     9      180.000000        0.002215         4
         3         4         5        34     9        0.000000       -0.071412         1
         3         4         5        34     9      180.000000        0.003587         2
         3         4         5        34     9        0.000000        0.241392         3
         3         4         5        34     9      180.000000        0.000914         4
         3         4         5        35     9        0.000000       -0.071412         1
         3         4         5        35     9      180.000000        0.003587         2
         3         4         5        35     9        0.000000        0.241392         3
         3         4         5        35     9      180.000000        0.000914         4
         3        26        25         6     9        0.000000        6.943874         1
         3        26        25         6     9      180.000000       -2.928177         2
         3        26        25         6     9        0.000000        0.049638         3
         3        26        25         6     9      180.000000        0.245488         4
         3        26        25        24     9        0.000000        0.659510         1
         3        26        25        24     9      180.000000       -1.043418         2
         3        26        25        24     9        0.000000        0.687642         3
         3        26        25        24     9      180.000000        0.119482         4
         3        26        25        47     9        0.000000       -0.236682         1
         3        26        25        47     9      180.000000       -0.093507         2
         3        26        25        47     9        0.000000        0.850675         3
         3        26        25        47     9      180.000000       -0.025357         4
         4         3         2        29     9        0.000000       -0.168153         1
         4         3         2        29     9      180.000000        0.067403         2
         4         3         2        29     9        0.000000        0.714577         3
         4         3         2        29     9      180.000000        0.086267         4
         4         3         2        30     9        0.000000       -0.168153         1
         4         3         2        30     9      180.000000        0.067403         2
         4         3         2        30     9        0.000000        0.714577         3
         4         3         2        30     9      180.000000        0.086267         4
         4         3        26        25     9        0.000000        5.988068         1
         4         3        26        25     9      180.000000       -1.434334         2
         4         3        26        25     9        0.000000       -0.014993         3
         4         3        26        25     9      180.000000        0.104240         4
         4         5         6         7     9        0.000000        0.059170         1
         4         5         6         7     9      180.000000       -0.381864         2
         4         5         6         7     9        0.000000        0.342637         3
         4         5         6         7     9      180.000000        0.030273         4
         4         5         6        25     9        0.000000        0.822802         1
         4         5         6        25     9      180.000000       -0.715976         2
         4         5         6        25     9        0.000000        0.100754         3
         4         5         6        25     9      180.000000        0.089760         4
         4         5         6        36     9        0.000000       -0.895423         1
         4         5         6        36     9      180.000000       -0.032946         2
         4         5         6        36     9        0.000000        0.210822         3
         4         5         6        36     9      180.000000        0.130310         4
         5         4         3        26     9        0.000000       -0.639796         1
         5         4         3        26     9      180.000000       -0.067353         2
         5         4         3        26     9        0.000000        0.281048         3
         5         4         3        26     9      180.000000       -0.059251         4
         5         4         3        31     9        0.000000       -0.493982         1
         5         4         3        31     9      180.000000       -0.010701         2
         5         4         3        31     9        0.000000        0.422816         3
         5         4         3        31     9      180.000000        0.032578         4
         5         6         7         8     9        0.000000        1.353326         1
         5         6         7         8     9      180.000000       -0.508273         2
         5         6         7         8     9        0.000000        0.898716         3
         5         6         7         8     9      180.000000        0.106653         4
         5         6         7        14     9        0.000000       -1.633119         1
         5         6         7        14     9      180.000000        0.708535         2
         5         6         7        14     9        0.000000        0.330455         3
         5         6         7        14     9      180.000000       -0.098155         4
         5         6         7        37     9        0.000000       -0.330422         1
         5         6         7        37     9      180.000000        0.178701         2
         5         6         7        37     9        0.000000        0.519501         3
         5         6         7        37     9      180.000000       -0.013983         4
         5         6        25        24     9        0.000000        0.781402         1
         5         6        25        24     9      180.000000       -1.418269         2
         5         6        25        24     9        0.000000        0.333501         3
         5         6        25        24     9      180.000000        0.069045         4
         5         6        25        26     9        0.000000        0.269068         1
         5         6        25        26     9      180.000000       -1.666318         2
         5         6        25        26     9        0.000000        0.259963         3
         5         6        25        26     9      180.000000        0.174184         4
         5         6        25        47     9        0.000000       -0.071141         1
         5         6        25        47     9      180.000000        0.159360         2
         5         6        25        47     9        0.000000        0.292224         3
         5         6        25        47     9      180.000000        0.094285         4
         6         5         4        32     9        0.000000       -0.087353         1
         6         5         4        32     9      180.000000        0.053933         2
         6         5         4        32     9        0.000000        0.218893         3
         6         5         4        32     9      180.000000        0.007595         4
         6         5         4        33     9        0.000000       -0.087353         1
         6         5         4        33     9      180.000000        0.053933         2
         6         5         4        33     9        0.000000        0.218893         3
         6         5         4        33     9      180.000000        0.007595         4
         6         7         8         9     9        0.000000       -0.353839         1
         6         7         8         9     9      180.000000       -0.104567         2
         6         7         8         9     9        0.000000        0.105252         3
         6         7         8         9     9      180.000000        0.005143         4
         6         7         8        13     9        0.000000       -0.353839         1
         6         7         8        13     9      180.000000       -0.104567         2
         6         7         8        13     9        0.000000        0.105252         3
         6         7         8        13     9      180.000000        0.005143         4
         6         7        14        15     9        0.000000        5.940338         1
         6         7        14        15     9      180.000000       -3.136762         2
         6         7        14        15     9        0.000000       -0.048298         3
         6         7        14        15     9      180.000000        0.710952         4
         6         7        14        43     9        0.000000        3.523494         1
         6         7        14        43     9      180.000000       -3.065427         2
         6         7        14        43     9        0.000000        0.126340         3
         6         7        14        43     9      180.000000        0.382838         4
         6        25        24        15     9        0.000000        4.633798         1
         6        25        24        15     9      180.000000       -3.889905         2
         6        25        24        15     9        0.000000       -0.247986         3
         6        25        24        15     9      180.000000        0.842276         4
         6        25        24        23     9        0.000000       -0.639587         1
         6        25        24        23     9      180.000000       -0.827696         2
         6        25        24        23     9        0.000000       -0.592729         3
         6        25        24        23     9      180.000000        0.255337         4
         7         6         5        34     9        0.000000       -0.011244         1
         7         6         5        34     9      180.000000        0.026542         2
         7         6         5        34     9        0.000000        0.298064         3
         7         6         5        34     9      180.000000       -0.002558         4
         7         6         5        35     9        0.000000       -0.011244         1
         7         6         5        35     9      180.000000        0.026542         2
         7         6         5        35     9        0.000000        0.298064         3
         7         6         5        35     9      180.000000       -0.002558         4
         7         6        25        24     9        0.000000        2.211175         1
         7         6        25        24     9      180.000000       -2.782245         2
         7         6        25        24     9        0.000000        0.013965         3
         7         6        25        24     9      180.000000        0.212796         4
         7         6        25        26     9        0.000000        0.960717         1
         7         6        25        26     9      180.000000       -4.236487         2
         7         6        25        26     9        0.000000        0.152822         3
         7         6        25        26     9      180.000000        0.440327         4
         7         6        25        47     9        0.000000       -0.361868         1
         7         6        25        47     9      180.000000        0.121142         2
         7         6        25        47     9        0.000000        0.073836         3
         7         6        25        47     9      180.000000        0.153866         4
         7         8         9        10     9        0.000000        0.090192         1
         7         8         9        10     9      180.000000       14.679497         2
         7         8         9        10     9        0.000000       -0.138716         3
         7         8         9        10     9      180.000000       -0.078603         4
         7         8         9        38     9        0.000000       -0.040954         1
         7         8         9        38     9      180.000000       12.731300         2
         7         8         9        38     9        0.000000       -0.361223         3
         7         8         9        38     9      180.000000        0.182937         4
         7         8        13        12     9        0.000000        0.090192         1
         7         8        13        12     9      180.000000       14.679497         2
         7         8        13        12     9        0.000000       -0.138716         3
         7         8        13        12     9      180.000000       -0.078603         4
         7         8        13        42     9        0.000000       -0.040954         1
         7         8        13        42     9      180.000000       12.731300         2
         7         8        13        42     9        0.000000       -0.361223         3
         7         8        13        42     9      180.000000        0.182937         4
         7        14        15        16     9        0.000000       -0.720221         1
         7        14        15        16     9      180.000000        3.224797         2
         7        14        15        16     9        0.000000        0.007484         3
         7        14        15        16     9      180.000000        0.386793         4
         7        14        15        24     9        0.000000        3.392995         1
         7        14        15        24     9      180.000000        0.902665         2
         7        14        15        24     9        0.000000       -0.216725         3
         7        14        15        24     9      180.000000        0.933904         4
         8         7         6        25     9        0.000000       -0.350425         1
         8         7         6        25     9      180.000000       -0.242829         2
         8         7         6        25     9        0.000000        0.345237         3
         8         7         6        25     9      180.000000        0.078747         4
         8         7         6        36     9        0.000000        0.044425         1
         8         7         6        36     9      180.000000       -0.036011         2
         8         7         6        36     9        0.000000        0.459679         3
         8         7         6        36     9      180.000000       -0.060270         4
         8         7        14        15     9        0.000000        1.082018         1
         8         7        14        15     9      180.000000       -0.660171         2
         8         7        14        15     9        0.000000        0.773072         3
         8         7        14        15     9      180.000000        0.092282         4
         8         7        14        43     9        0.000000        3.195029         1
         8         7        14        43     9      180.000000       -1.053801         2
         8         7        14        43     9        0.000000        0.110169         3
         8         7        14        43     9      180.000000       -0.141080         4
         8         9        10        11     9        0.000000        0.027332         1
         8         9        10        11     9      180.000000       18.735526         2
         8         9        10        11     9        0.000000       -1.491713         3
         8         9        10        11     9      180.000000       -0.406339         4
         8         9        10        39     9        0.000000        0.060410         1
         8         9        10        39     9      180.000000       14.990249         2
         8         9        10        39     9        0.000000       -0.580982         3
         8         9        10        39     9      180.000000        0.057213         4
         8        13        12        11     9        0.000000        0.027332         1
         8        13        12        11     9      180.000000       18.735526         2
         8        13        12        11     9        0.000000       -1.491713         3
         8        13        12        11     9      180.000000       -0.406339         4
         8        13        12        41     9        0.000000        0.060410         1
         8        13        12        41     9      180.000000       14.990249         2
         8        13        12        41     9        0.000000       -0.580982         3
         8        13        12        41     9      180.000000        0.057213         4
         9         8         7        14     9        0.000000       -0.070386         1
         9         8         7        14     9      180.000000        0.892704         2
         9         8         7        14     9        0.000000       -0.026553         3
         9         8         7        14     9      180.000000        0.262291         4
         9         8         7        37     9        0.000000        0.166578         1
         9         8         7        37     9      180.000000        0.665435         2
         9         8         7        37     9        0.000000        0.050777         3
         9         8         7        37     9      180.000000       -0.152664         4
         9         8        13        12     9        0.000000       -0.144446         1
         9         8        13        12     9      180.000000       19.062213         2
         9         8        13        12     9        0.000000       -1.504557         3
         9         8        13        12     9      180.000000       -0.477342         4
         9         8        13        42     9        0.000000       -0.069577         1
         9         8        13        42     9      180.000000       14.508781         2
         9         8        13        42     9        0.000000       -0.591210         3
         9         8        13        42     9      180.000000       -0.002966         4
         9        10        11        12     9        0.000000       -0.058928         1
         9        10        11        12     9      180.000000       18.660778         2
         9        10        11        12     9        0.000000       -1.621207         3
         9        10        11        12     9      180.000000       -0.382782         4
         9        10        11        40     9        0.000000        0.016777         1
         9        10        11        40     9      180.000000       14.282109         2
         9        10        11        40     9        0.000000       -0.780702         3
         9        10        11        40     9      180.000000        0.125906         4
        10         9         8        13     9        0.000000       -0.144446         1
        10         9         8        13     9      180.000000       19.062213         2
        10         9         8        13     9        0.000000       -1.504557         3
        10         9         8        13     9      180.000000       -0.477342         4
        10        11        12        13     9        0.000000       -0.058928         1
        10        11        12        13     9      180.000000       18.660778         2
        10        11        12        13     9        0.000000       -1.621207         3
        10        11        12        13     9      180.000000       -0.382782         4
        10        11        12        41     9        0.000000        0.010660         1
        10        11        12        41     9      180.000000       14.271862         2
        10        11        12        41     9        0.000000       -0.794146         3
        10        11        12        41     9      180.000000        0.157356         4
        11        10         9        38     9        0.000000        0.060923         1
        11        10         9        38     9      180.000000       14.800027         2
        11        10         9        38     9        0.000000       -0.680405         3
        11        10         9        38     9      180.000000        0.105082         4
        11        12        13        42     9        0.000000        0.060923         1
        11        12        13        42     9      180.000000       14.800027         2
        11        12        13        42     9        0.000000       -0.680405         3
        11        12        13        42     9      180.000000        0.105082         4
        12        11        10        39     9        0.000000        0.010660         1
        12        11        10        39     9      180.000000       14.271862         2
        12        11        10        39     9        0.000000       -0.794146         3
        12        11        10        39     9      180.000000        0.157356         4
        13         8         7        14     9        0.000000       -0.070386         1
        13         8         7        14     9      180.000000        0.892704         2
        13         8         7        14     9        0.000000       -0.026553         3
        13         8         7        14     9      180.000000        0.262291         4
        13         8         7        37     9        0.000000        0.166578         1
        13         8         7        37     9      180.000000        0.665435         2
        13         8         7        37     9        0.000000        0.050777         3
        13         8         7        37     9      180.000000       -0.152664         4
        13         8         9        38     9        0.000000       -0.069577         1
        13         8         9        38     9      180.000000       14.508781         2
        13         8         9        38     9        0.000000       -0.591210         3
        13         8         9        38     9      180.000000       -0.002966         4
        13        12        11        40     9        0.000000        0.016777         1
        13        12        11        40     9      180.000000       14.282109         2
        13        12        11        40     9        0.000000       -0.780702         3
        13        12        11        40     9      180.000000        0.125906         4
        14         7         6        25     9        0.000000       -0.120464         1
        14         7         6        25     9      180.000000       -1.543956         2
        14         7         6        25     9        0.000000       -0.245586         3
        14         7         6        25     9      180.000000        0.187407         4
        14         7         6        36     9        0.000000       -0.081846         1
        14         7         6        36     9      180.000000        0.009201         2
        14         7         6        36     9        0.000000        0.106304         3
        14         7         6        36     9      180.000000        0.240746         4
        14        15        16        17     9        0.000000        0.394468         1
        14        15        16        17     9      180.000000       18.736531         2
        14        15        16        17     9        0.000000        0.460433         3
        14        15        16        17     9      180.000000       -0.281804         4
        14        15        16        44     9        0.000000       -0.277982         1
        14        15        16        44     9      180.000000       15.530411         2
        14        15        16        44     9        0.000000       -0.156391         3
        14        15        16        44     9      180.000000        0.040111         4
        14        15        24        23     9        0.000000        0.175401         1
        14        15        24        23     9      180.000000       17.341016         2
        14        15        24        23     9        0.000000        0.120033         3
        14        15        24        23     9      180.000000       -0.597496         4
        14        15        24        25     9        0.000000       -0.025325         1
        14        15        24        25     9      180.000000       15.731625         2
        14        15        24        25     9        0.000000        0.477358         3
        14        15        24        25     9      180.000000       -0.524083         4
        15        14         7        37     9        0.000000       -0.112048         1
        15        14         7        37     9      180.000000       -0.155155         2
        15        14         7        37     9        0.000000        0.621816         3
        15        14         7        37     9      180.000000       -0.029643         4
        15        16        17        18     9        0.000000        0.055675         1
        15        16        17        18     9      180.000000       18.406921         2
        15        16        17        18     9        0.000000       -1.912952         3
        15        16        17        18     9      180.000000       -0.412704         4
        15        16        17        45     9        0.000000        0.076473         1
        15        16        17        45     9      180.000000       14.070312         2
        15        16        17        45     9        0.000000       -0.680251         3
        15        16        17        45     9      180.000000        0.120126         4
        15        24        23        18     9        0.000000       -0.001933         1
        15        24        23        18     9      180.000000       18.915734         2
        15        24        23        18     9        0.000000       -1.767628         3
        15        24        23        18     9      180.000000       -0.421815         4
        15        24        23        46     9        0.000000        0.151073         1
        15        24        23        46     9      180.000000       14.320046         2
        15        24        23        46     9        0.000000       -0.365312         3
        15        24        23        46     9      180.000000        0.114163         4
        15        24        25        26     9        0.000000       -2.531781         1
        15        24        25        26     9      180.000000       -1.797779         2
        15        24        25        26     9        0.000000        0.755772         3
        15        24        25        26     9      180.000000       -0.194476         4
        15        24        25        47     9        0.000000       -0.138183         1
        15        24        25        47     9      180.000000        0.439349         2
        15        24        25        47     9        0.000000        0.120215         3
        15        24        25        47     9      180.000000        0.012886         4
        16        15        14        43     9        0.000000       -0.833285         1
        16        15        14        43     9      180.000000        4.468193         2
        16        15        14        43     9        0.000000        0.018400         3
        16        15        14        43     9      180.000000        0.261817         4
        16        15        24        23     9        0.000000        0.026765         1
        16        15        24        23     9      180.000000       14.737099         2
        16        15        24        23     9        0.000000       -0.705376         3
        16        15        24        23     9      180.000000       -0.274300         4
        16        15        24        25     9        0.000000        0.037109         1
        16        15        24        25     9      180.000000       12.132040         2
        16        15        24        25     9        0.000000       -0.168069         3
        16        15        24        25     9      180.000000       -0.084717         4
        16        17        18        19     9        0.000000        0.032550         1
        16        17        18        19     9      180.000000       14.438455         2
        16        17        18        19     9        0.000000       -0.070405         3
        16        17        18        19     9      180.000000       -0.263928         4
        16        17        18        23     9        0.000000       -0.087046         1
        16        17        18        23     9      180.000000       18.415396         2
        16        17        18        23     9        0.000000       -1.600674         3
        16        17        18        23     9      180.000000       -0.395144         4
        17        16        15        24     9        0.000000        0.031509         1
        17        16        15        24     9      180.000000       16.807129         2
        17        16        15        24     9        0.000000       -0.691304         3
        17        16        15        24     9      180.000000       -0.383093         4
        17        18        19        20     9        0.000000       -0.000026         1
        17        18        19        20     9      180.000000        0.048574         2
        17        18        19        20     9        0.000000        0.186873         3
        17        18        19        20     9      180.000000        0.032348         4
        17        18        19        21     9        0.000000       -0.000026         1
        17        18        19        21     9      180.000000        0.048574         2
        17        18        19        21     9        0.000000        0.186873         3
        17        18        19        21     9      180.000000        0.032348         4
        17        18        19        22     9        0.000000       -0.000026         1
        17        18        19        22     9      180.000000        0.048574         2
        17        18        19        22     9        0.000000        0.186873         3
        17        18        19        22     9      180.000000        0.032348         4
        17        18        23        24     9        0.000000       -0.011174         1
        17        18        23        24     9      180.000000       17.759799         2
        17        18        23        24     9        0.000000       -1.674413         3
        17        18        23        24     9      180.000000       -0.400159         4
        17        18        23        46     9        0.000000        0.124949         1
        17        18        23        46     9      180.000000       14.034475         2
        17        18        23        46     9        0.000000       -0.702800         3
        17        18        23        46     9      180.000000        0.060916         4
        18        17        16        44     9        0.000000        0.072241         1
        18        17        16        44     9      180.000000       15.427600         2
        18        17        16        44     9        0.000000       -0.713637         3
        18        17        16        44     9      180.000000        0.090772         4
        18        23        24        25     9        0.000000       -0.025940         1
        18        23        24        25     9      180.000000       17.497985         2
        18        23        24        25     9        0.000000       -0.555785         3
        18        23        24        25     9      180.000000       -0.414233         4
        19        18        17        45     9        0.000000        0.122363         1
        19        18        17        45     9      180.000000       11.493078         2
        19        18        17        45     9        0.000000       -0.272450         3
        19        18        17        45     9      180.000000        0.132038         4
        19        18        23        24     9        0.000000        0.031312         1
        19        18        23        24     9      180.000000       14.343546         2
        19        18        23        24     9        0.000000       -0.113217         3
        19        18        23        24     9      180.000000       -0.321206         4
        19        18        23        46     9        0.000000        0.021233         1
        19        18        23        46     9      180.000000       11.255695         2
        19        18        23        46     9        0.000000       -0.353476         3
        19        18        23        46     9      180.000000        0.163687         4
        20        19        18        23     9        0.000000       -0.028912         1
        20        19        18        23     9      180.000000        0.059371         2
        20        19        18        23     9        0.000000        0.082074         3
        20        19        18        23     9      180.000000        0.049959         4
        21        19        18        23     9        0.000000       -0.028912         1
        21        19        18        23     9      180.000000        0.059371         2
        21        19        18        23     9        0.000000        0.082074         3
        21        19        18        23     9      180.000000        0.049959         4
        22        19        18        23     9        0.000000       -0.028912         1
        22        19        18        23     9      180.000000        0.059371         2
        22        19        18        23     9        0.000000        0.082074         3
        22        19        18        23     9      180.000000        0.049959         4
        23        18        17        45     9        0.000000        0.163703         1
        23        18        17        45     9      180.000000       13.957222         2
        23        18        17        45     9        0.000000       -0.633766         3
        23        18        17        45     9      180.000000        0.029795         4
        23        24        25        26     9        0.000000       -0.229593         1
        23        24        25        26     9      180.000000        0.306083         2
        23        24        25        26     9        0.000000       -0.713649         3
        23        24        25        26     9      180.000000        0.107308         4
        23        24        25        47     9        0.000000       -0.268514         1
        23        24        25        47     9      180.000000       -0.034409         2
        23        24        25        47     9        0.000000       -0.636113         3
        23        24        25        47     9      180.000000        0.014176         4
        24        15        14        43     9        0.000000        5.986842         1
        24        15        14        43     9      180.000000        4.005795         2
        24        15        14        43     9        0.000000       -0.592975         3
        24        15        14        43     9      180.000000        0.382814         4
        24        15        16        44     9        0.000000        0.020995         1
        24        15        16        44     9      180.000000       12.789966         2
        24        15        16        44     9        0.000000       -0.209460         3
        24        15        16        44     9      180.000000        0.003016         4
        24        25         6        36     9        0.000000       -0.089454         1
        24        25         6        36     9      180.000000       -0.004564         2
        24        25         6        36     9        0.000000        0.119985         3
        24        25         6        36     9      180.000000        0.251201         4
        25         6         5        34     9        0.000000       -0.091881         1
        25         6         5        34     9      180.000000        0.059686         2
        25         6         5        34     9        0.000000        0.162435         3
        25         6         5        34     9      180.000000        0.032515         4
        25         6         5        35     9        0.000000       -0.091881         1
        25         6         5        35     9      180.000000        0.059686         2
        25         6         5        35     9        0.000000        0.162435         3
        25         6         5        35     9      180.000000        0.032515         4
        25         6         7        37     9        0.000000       -0.205145         1
        25         6         7        37     9      180.000000        0.005190         2
        25         6         7        37     9        0.000000        0.111424         3
        25         6         7        37     9      180.000000        0.140077         4
        25        24        23        46     9        0.000000       -0.048835         1
        25        24        23        46     9      180.000000       12.777158         2
        25        24        23        46     9        0.000000       -0.287924         3
        25        24        23        46     9      180.000000        0.170445         4
        25        26         3        31     9        0.000000       -1.002237         1
        25        26         3        31     9      180.000000        0.265006         2
        25        26         3        31     9        0.000000        0.617177         3
        25        26         3        31     9      180.000000        0.180958         4
        26         3         2        29     9        0.000000       -0.187572         1
        26         3         2        29     9      180.000000        0.079946         2
        26         3         2        29     9        0.000000        0.618009         3
        26         3         2        29     9      180.000000        0.024398         4
        26         3         2        30     9        0.000000       -0.187572         1
        26         3         2        30     9      180.000000        0.079946         2
        26         3         2        30     9        0.000000        0.618009         3
        26         3         2        30     9      180.000000        0.024398         4
        26         3         4        32     9        0.000000        0.054503         1
        26         3         4        32     9      180.000000        0.048353         2
        26         3         4        32     9        0.000000        0.325307         3
        26         3         4        32     9      180.000000        0.011967         4
        26         3         4        33     9        0.000000        0.054503         1
        26         3         4        33     9      180.000000        0.048353         2
        26         3         4        33     9        0.000000        0.325307         3
        26         3         4        33     9      180.000000        0.011967         4
        26        25         6        36     9        0.000000       -0.727631         1
        26        25         6        36     9      180.000000       -0.041165         2
        26        25         6        36     9        0.000000        0.048643         3
        26        25         6        36     9      180.000000        0.165681         4
        27         1         2        29     9        0.000000       -0.027856         1
        27         1         2        29     9      180.000000       -0.030401         2
        27         1         2        29     9        0.000000        0.468413         3
        27         1         2        29     9      180.000000        0.028982         4
        27         1         2        30     9        0.000000       -0.027856         1
        27         1         2        30     9      180.000000       -0.030401         2
        27         1         2        30     9        0.000000        0.468413         3
        27         1         2        30     9      180.000000        0.028982         4
        28         1         2        29     9        0.000000       -0.027856         1
        28         1         2        29     9      180.000000       -0.030401         2
        28         1         2        29     9        0.000000        0.468413         3
        28         1         2        29     9      180.000000        0.028982         4
        28         1         2        30     9        0.000000       -0.027856         1
        28         1         2        30     9      180.000000       -0.030401         2
        28         1         2        30     9        0.000000        0.468413         3
        28         1         2        30     9      180.000000        0.028982         4
        29         2         1        48     9        0.000000       -0.027855         1
        29         2         1        48     9      180.000000       -0.030401         2
        29         2         1        48     9        0.000000        0.468414         3
        29         2         1        48     9      180.000000        0.028982         4
        29         2         3        31     9        0.000000       -0.135878         1
        29         2         3        31     9      180.000000        0.144491         2
        29         2         3        31     9        0.000000        0.686654         3
        29         2         3        31     9      180.000000       -0.031838         4
        30         2         1        48     9        0.000000       -0.027855         1
        30         2         1        48     9      180.000000       -0.030401         2
        30         2         1        48     9        0.000000        0.468414         3
        30         2         1        48     9      180.000000        0.028982         4
        30         2         3        31     9        0.000000       -0.135878         1
        30         2         3        31     9      180.000000        0.144491         2
        30         2         3        31     9        0.000000        0.686654         3
        30         2         3        31     9      180.000000       -0.031838         4
        31         3         4        32     9        0.000000        0.097815         1
        31         3         4        32     9      180.000000        0.000764         2
        31         3         4        32     9        0.000000        0.497151         3
        31         3         4        32     9      180.000000       -0.077773         4
        31         3         4        33     9        0.000000        0.097815         1
        31         3         4        33     9      180.000000        0.000764         2
        31         3         4        33     9        0.000000        0.497151         3
        31         3         4        33     9      180.000000       -0.077773         4
        32         4         5        34     9        0.000000        0.002356         1
        32         4         5        34     9      180.000000        0.001543         2
        32         4         5        34     9        0.000000        0.293072         3
        32         4         5        34     9      180.000000        0.023594         4
        32         4         5        35     9        0.000000        0.002356         1
        32         4         5        35     9      180.000000        0.001543         2
        32         4         5        35     9        0.000000        0.293072         3
        32         4         5        35     9      180.000000        0.023594         4
        33         4         5        34     9        0.000000        0.002356         1
        33         4         5        34     9      180.000000        0.001543         2
        33         4         5        34     9        0.000000        0.293072         3
        33         4         5        34     9      180.000000        0.023594         4
        33         4         5        35     9        0.000000        0.002356         1
        33         4         5        35     9      180.000000        0.001543         2
        33         4         5        35     9        0.000000        0.293072         3
        33         4         5        35     9      180.000000        0.023594         4
        34         5         6        36     9        0.000000        0.300282         1
        34         5         6        36     9      180.000000        0.083330         2
        34         5         6        36     9        0.000000        0.383292         3
        34         5         6        36     9      180.000000       -0.056411         4
        35         5         6        36     9        0.000000        0.300282         1
        35         5         6        36     9      180.000000        0.083330         2
        35         5         6        36     9        0.000000        0.383292         3
        35         5         6        36     9      180.000000       -0.056411         4
        36         6         7        37     9        0.000000        0.589951         1
        36         6         7        37     9      180.000000        0.106993         2
        36         6         7        37     9        0.000000        0.459468         3
        36         6         7        37     9      180.000000       -0.274357         4
        36         6        25        47     9        0.000000        0.061020         1
        36         6        25        47     9      180.000000        0.058922         2
        36         6        25        47     9        0.000000        0.272865         3
        36         6        25        47     9      180.000000       -0.080540         4
        37         7        14        43     9        0.000000       -0.890253         1
        37         7        14        43     9      180.000000       -0.260122         2
        37         7        14        43     9        0.000000        0.459100         3
        37         7        14        43     9      180.000000       -0.171435         4
        38         9        10        39     9        0.000000       -0.180341         1
        38         9        10        39     9      180.000000       11.789161         2
        38         9        10        39     9        0.000000       -0.659630         3
        38         9        10        39     9      180.000000        0.310085         4
        39        10        11        40     9        0.000000       -0.084557         1
        39        10        11        40     9      180.000000       11.520938         2
        39        10        11        40     9        0.000000       -0.587926         3
        39        10        11        40     9      180.000000        0.263272         4
        40        11        12        41     9        0.000000       -0.084557         1
        40        11        12        41     9      180.000000       11.520938         2
        40        11        12        41     9        0.000000       -0.587926         3
        40        11        12        41     9      180.000000        0.263272         4
        41        12        13        42     9        0.000000       -0.180341         1
        41        12        13        42     9      180.000000       11.789161         2
        41        12        13        42     9        0.000000       -0.659630         3
        41        12        13        42     9      180.000000        0.310085         4
        44        16        17        45     9        0.000000       -0.149691         1
        44        16        17        45     9      180.000000       12.317767         2
        44        16        17        45     9        0.000000       -0.778015         3
        44        16        17        45     9      180.000000        0.331038         4

[ dihedrals ] ; impropers
;       ai        aj        ak        al funct           phase               k        pn
         9         8        10        38     4      180.000000        0.182436         2
         9        10        38         8     4      180.000000        0.182436         2
         9        38         8        10     4      180.000000        0.182436         2
        10         9        11        39     4      180.000000        0.258179         2
        10        11        39         9     4      180.000000        0.258179         2
        10        39         9        11     4      180.000000        0.258179         2
        11        10        12        40     4      180.000000        0.333131         2
        11        12        40        10     4      180.000000        0.333131         2
        11        40        10        12     4      180.000000        0.333131         2
        12        11        13        41     4      180.000000        0.258179         2
        12        13        41        11     4      180.000000        0.258179         2
        12        41        11        13     4      180.000000        0.258179         2
        13         8        12        42     4      180.000000        0.182436         2
        13        12        42         8     4      180.000000        0.182436         2
        13        42         8        12     4      180.000000        0.182436         2

[ pairs ]
;       ai        aj funct
         1         4     1
         1        26     1
         1        31     1
         2         5     1
         2        25     1
         2        32     1
         2        33     1
         3         6     1
         3        24     1
         3        27     1
         3        28     1
         3        34     1
         3        35     1
         3        47     1
         3        48     1
         4         7     1
         4        25     1
         4        29     1
         4        30     1
         4        36     1
         5         8     1
         5        14     1
         5        24     1
         5        26     1
         5        31     1
         5        37     1
         5        47     1
         6         9     1
         6        13     1
         6        15     1
         6        23     1
         6        32     1
         6        33     1
         6        43     1
         7        10     1
         7        12     1
         7        16     1
         7        24     1
         7        26     1
         7        34     1
         7        35     1
         7        38     1
         7        42     1
         7        47     1
         8        11     1
         8        15     1
         8        25     1
         8        36     1
         8        39     1
         8        41     1
         8        43     1
         9        12     1
         9        14     1
         9        37     1
         9        40     1
         9        42     1
        10        13     1
        10        41     1
        11        38     1
        11        42     1
        12        39     1
        13        14     1
        13        37     1
        13        38     1
        13        40     1
        14        17     1
        14        23     1
        14        25     1
        14        36     1
        14        44     1
        15        18     1
        15        26     1
        15        37     1
        15        45     1
        15        46     1
        15        47     1
        16        19     1
        16        23     1
        16        25     1
        16        43     1
        17        20     1
        17        21     1
        17        22     1
        17        24     1
        17        46     1
        18        25     1
        18        44     1
        19        24     1
        19        45     1
        19        46     1
        20        23     1
        21        23     1
        22        23     1
        23        26     1
        23        45     1
        23        47     1
        24        36     1
        24        43     1
        24        44     1
        25        31     1
        25        34     1
        25        35     1
        25        37     1
        25        46     1
        26        29     1
        26        30     1
        26        32     1
        26        33     1
        26        36     1
        27        29     1
        27        30     1
        28        29     1
        28        30     1
        29        31     1
        29        48     1
        30        31     1
        30        48     1
        31        32     1
        31        33     1
        32        34     1
        32        35     1
        33        34     1
        33        35     1
        34        36     1
        35        36     1
        36        37     1
        36        47     1
        37        43     1
        38        39     1
        39        40     1
        40        41     1
        41        42     1
        44        45     1
