; ITP file created by ByteFF-ML, 2026-02-21 07:39:15.145572

[ atomtypes ]
;name           bonded.type        at.num        mass        charge   ptype           sigma         epsilon
 c0bf                                   6      0.0000       0.00000       A     3.39828e-01     4.48488e-01
 n1bf                                   7      0.0000       0.00000       A     2.67231e-01     7.08236e+00
 c2bf                                   6      0.0000       0.00000       A     3.39891e-01     4.48109e-01
 c3bf                                   6      0.0000       0.00000       A     3.39681e-01     4.49622e-01
 c4bf                                   6      0.0000       0.00000       A     3.39758e-01     4.52854e-01
 c5bf                                   6      0.0000       0.00000       A     3.39932e-01     4.52805e-01
 c6bf                                   6      0.0000       0.00000       A     3.40169e-01     4.50500e-01
 c7bf                                   6      0.0000       0.00000       A     3.39147e-01     4.50542e-01
 c8bf                                   6      0.0000       0.00000       A     3.31471e-01     4.12367e-01
 c9bf                                   6      0.0000       0.00000       A     3.31455e-01     4.13420e-01
 c10bf                                  6      0.0000       0.00000       A     3.31576e-01     4.12605e-01
 c11bf                                  6      0.0000       0.00000       A     3.31475e-01     4.12975e-01
 s12bf                                 16      0.0000       0.00000       A     3.53166e-01     1.17899e+00
 n13bf                                  7      0.0000       0.00000       A     3.28384e-01     6.42333e-01
 c14bf                                  6      0.0000       0.00000       A     3.31451e-01     4.11826e-01
 c15bf                                  6      0.0000       0.00000       A     3.31496e-01     4.14206e-01
 c16bf                                  6      0.0000       0.00000       A     3.31494e-01     4.12775e-01
 c17bf                                  6      0.0000       0.00000       A     3.31513e-01     4.12297e-01
 c18bf                                  6      0.0000       0.00000       A     3.39867e-01     4.54082e-01
 c19bf                                  6      0.0000       0.00000       A     3.39772e-01     4.50374e-01
 c20bf                                  6      0.0000       0.00000       A     3.39772e-01     4.50374e-01
 c21bf                                  6      0.0000       0.00000       A     3.39772e-01     4.50374e-01
 c22bf                                  6      0.0000       0.00000       A     3.31271e-01     4.12345e-01
 c23bf                                  6      0.0000       0.00000       A     3.31284e-01     4.09408e-01
 c24bf                                  6      0.0000       0.00000       A     3.39584e-01     4.52976e-01
 o25bf                                  8      0.0000       0.00000       A     3.16035e-01     3.06500e-01
 h26bf                                  1      0.0000       0.00000       A     1.88028e-01     8.70799e-02
 h27bf                                  1      0.0000       0.00000       A     1.88028e-01     8.70799e-02
 h28bf                                  1      0.0000       0.00000       A     1.88028e-01     8.70799e-02
 h29bf                                  1      0.0000       0.00000       A     1.10814e-01     4.12951e-02
 h30bf                                  1      0.0000       0.00000       A     1.87691e-01     8.61032e-02
 h31bf                                  1      0.0000       0.00000       A     1.87691e-01     8.61032e-02
 h32bf                                  1      0.0000       0.00000       A     2.42371e-01     8.77264e-02
 h33bf                                  1      0.0000       0.00000       A     2.60071e-01     8.65692e-02
 h34bf                                  1      0.0000       0.00000       A     2.60071e-01     8.65692e-02
 h35bf                                  1      0.0000       0.00000       A     2.60011e-01     8.63521e-02
 h36bf                                  1      0.0000       0.00000       A     2.60011e-01     8.63521e-02
 h37bf                                  1      0.0000       0.00000       A     2.59619e-01     8.68645e-02
 h38bf                                  1      0.0000       0.00000       A     2.42521e-01     8.87287e-02
 h39bf                                  1      0.0000       0.00000       A     2.62725e-01     6.73669e-02
 h40bf                                  1      0.0000       0.00000       A     2.62621e-01     6.75345e-02
 h41bf                                  1      0.0000       0.00000       A     2.53905e-01     6.64779e-02
 h42bf                                  1      0.0000       0.00000       A     1.11066e-01     4.14962e-02
 h43bf                                  1      0.0000       0.00000       A     2.62406e-01     6.70142e-02
 h44bf                                  1      0.0000       0.00000       A     2.62486e-01     6.76526e-02
 h45bf                                  1      0.0000       0.00000       A     2.59968e-01     8.75795e-02
 h46bf                                  1      0.0000       0.00000       A     2.59968e-01     8.75795e-02
 h47bf                                  1      0.0000       0.00000       A     2.59968e-01     8.75795e-02
 h48bf                                  1      0.0000       0.00000       A     2.59968e-01     8.75795e-02
 h49bf                                  1      0.0000       0.00000       A     2.59968e-01     8.75795e-02
 h50bf                                  1      0.0000       0.00000       A     2.59968e-01     8.75795e-02
 h51bf                                  1      0.0000       0.00000       A     2.59968e-01     8.75795e-02
 h52bf                                  1      0.0000       0.00000       A     2.59968e-01     8.75795e-02
 h53bf                                  1      0.0000       0.00000       A     2.59968e-01     8.75795e-02
 h54bf                                  1      0.0000       0.00000       A     2.62333e-01     6.71626e-02
 h55bf                                  1      0.0000       0.00000       A     2.42758e-01     8.84190e-02
 h56bf                                  1      0.0000       0.00000       A     1.10814e-01     4.12951e-02

[ moleculetype ]
;name             nrexcl
 CHEMBL1077227         3

[ atoms ]
;       nr            type      resi   res      atom      cgnr      charge          mass ; qtot
         1            c0bf         1   UNL        c0         1     0.09470       12.0110 ; qtot    0.095
         2            n1bf         1   UNL        n1         2    -0.83582       14.0070 ; qtot   -0.741
         3            c2bf         1   UNL        c2         3     0.09252       12.0110 ; qtot   -0.649
         4            c3bf         1   UNL        c3         4     0.14942       12.0110 ; qtot   -0.499
         5            c4bf         1   UNL        c4         5    -0.09828       12.0110 ; qtot   -0.597
         6            c5bf         1   UNL        c5         6    -0.06574       12.0110 ; qtot   -0.663
         7            c6bf         1   UNL        c6         7    -0.09716       12.0110 ; qtot   -0.760
         8            c7bf         1   UNL        c7         8     0.28687       12.0110 ; qtot   -0.473
         9            c8bf         1   UNL        c8         9    -0.22436       12.0110 ; qtot   -0.698
        10            c9bf         1   UNL        c9        10    -0.11229       12.0110 ; qtot   -0.810
        11           c10bf         1   UNL       c10        11    -0.13459       12.0110 ; qtot   -0.945
        12           c11bf         1   UNL       c11        12    -0.21763       12.0110 ; qtot   -1.162
        13           s12bf         1   UNL       s12        13     0.17270       32.0670 ; qtot   -0.990
        14           n13bf         1   UNL       n13        14    -0.92076       14.0070 ; qtot   -1.910
        15           c14bf         1   UNL       c14        15     0.29043       12.0110 ; qtot   -1.620
        16           c15bf         1   UNL       c15        16    -0.17157       12.0110 ; qtot   -1.792
        17           c16bf         1   UNL       c16        17    -0.07276       12.0110 ; qtot   -1.864
        18           c17bf         1   UNL       c17        18    -0.10900       12.0110 ; qtot   -1.973
        19           c18bf         1   UNL       c18        19     0.00063       12.0110 ; qtot   -1.973
        20           c19bf         1   UNL       c19        20    -0.08750       12.0110 ; qtot   -2.060
        21           c20bf         1   UNL       c20        21    -0.08750       12.0110 ; qtot   -2.148
        22           c21bf         1   UNL       c21        22    -0.08750       12.0110 ; qtot   -2.235
        23           c22bf         1   UNL       c22        23    -0.05231       12.0110 ; qtot   -2.288
        24           c23bf         1   UNL       c23        24    -0.16223       12.0110 ; qtot   -2.450
        25           c24bf         1   UNL       c24        25     0.23884       12.0110 ; qtot   -2.211
        26           o25bf         1   UNL       o25        26    -0.46202       15.9990 ; qtot   -2.673
        27           h26bf         1   UNL       h26        27     0.10802        1.0080 ; qtot   -2.565
        28           h27bf         1   UNL       h27        28     0.10802        1.0080 ; qtot   -2.457
        29           h28bf         1   UNL       h28        29     0.10802        1.0080 ; qtot   -2.349
        30           h29bf         1   UNL       h29        30     0.51632        1.0080 ; qtot   -1.833
        31           h30bf         1   UNL       h30        31     0.11656        1.0080 ; qtot   -1.716
        32           h31bf         1   UNL       h31        32     0.11656        1.0080 ; qtot   -1.599
        33           h32bf         1   UNL       h32        33     0.08641        1.0080 ; qtot   -1.513
        34           h33bf         1   UNL       h33        34     0.06662        1.0080 ; qtot   -1.446
        35           h34bf         1   UNL       h34        35     0.06662        1.0080 ; qtot   -1.380
        36           h35bf         1   UNL       h35        36     0.05466        1.0080 ; qtot   -1.325
        37           h36bf         1   UNL       h36        37     0.05466        1.0080 ; qtot   -1.270
        38           h37bf         1   UNL       h37        38     0.06803        1.0080 ; qtot   -1.202
        39           h38bf         1   UNL       h38        39     0.05850        1.0080 ; qtot   -1.144
        40           h39bf         1   UNL       h39        40     0.14008        1.0080 ; qtot   -1.004
        41           h40bf         1   UNL       h40        41     0.13685        1.0080 ; qtot   -0.867
        42           h41bf         1   UNL       h41        42     0.14936        1.0080 ; qtot   -0.718
        43           h42bf         1   UNL       h42        43     0.45778        1.0080 ; qtot   -0.260
        44           h43bf         1   UNL       h43        44     0.11606        1.0080 ; qtot   -0.144
        45           h44bf         1   UNL       h44        45     0.11563        1.0080 ; qtot   -0.028
        46           h45bf         1   UNL       h45        46     0.03657        1.0080 ; qtot    0.008
        47           h46bf         1   UNL       h46        47     0.03657        1.0080 ; qtot    0.045
        48           h47bf         1   UNL       h47        48     0.03657        1.0080 ; qtot    0.082
        49           h48bf         1   UNL       h48        49     0.03657        1.0080 ; qtot    0.118
        50           h49bf         1   UNL       h49        50     0.03657        1.0080 ; qtot    0.155
        51           h50bf         1   UNL       h50        51     0.03657        1.0080 ; qtot    0.191
        52           h51bf         1   UNL       h51        52     0.03657        1.0080 ; qtot    0.228
        53           h52bf         1   UNL       h52        53     0.03657        1.0080 ; qtot    0.264
        54           h53bf         1   UNL       h53        54     0.03657        1.0080 ; qtot    0.301
        55           h54bf         1   UNL       h54        55     0.11995        1.0080 ; qtot    0.421
        56           h55bf         1   UNL       h55        56     0.06272        1.0080 ; qtot    0.484
        57           h56bf         1   UNL       h56        57     0.51635        1.0080 ; qtot    1.000

[ bonds ]
;       ai        aj funct               r               k
         1         2     1        0.150678   160703.433228
         1        27     1        0.108854   320317.529980
         1        28     1        0.108854   320317.529980
         1        29     1        0.108854   320317.529980
         2         3     1        0.151399   142318.795752
         2        30     1        0.102819   378731.216113
         2        57     1        0.102819   378731.216113
         3         4     1        0.153307   175832.931982
         3        31     1        0.109027   314180.400781
         3        32     1        0.109027   314180.400781
         4         5     1        0.153734   171223.943408
         4        26     1        0.142799   186929.738110
         4        33     1        0.109778   291513.585889
         5         6     1        0.153730   182060.896680
         5        34     1        0.109432   298927.468408
         5        35     1        0.109432   298927.468408
         6         7     1        0.153694   176973.738501
         6        36     1        0.109413   298526.637939
         6        37     1        0.109413   298526.637939
         7         8     1        0.154560   158379.377515
         7        25     1        0.153798   166518.667163
         7        38     1        0.109648   297216.865137
         8         9     1        0.150881   197066.323389
         8        14     1        0.146814   190849.773779
         8        39     1        0.109864   283404.174658
         9        10     1        0.137361   368447.524316
         9        13     1        0.174617   144631.193774
        10        11     1        0.143069   260091.628418
        10        40     1        0.108446   325099.813379
        11        12     1        0.137224   382260.648926
        11        41     1        0.108440   326828.905518
        12        13     1        0.173372   170134.836768
        12        42     1        0.108226   338223.691406
        14        15     1        0.140205   266666.923340
        14        43     1        0.101359   410467.765234
        15        16     1        0.140511   280546.444434
        15        24     1        0.140962   267961.910156
        16        17     1        0.139229   329370.230957
        16        44     1        0.108690   314873.707764
        17        18     1        0.140490   282236.771240
        17        45     1        0.108572   318246.879004
        18        19     1        0.153459   164414.192285
        18        23     1        0.140242   281430.053955
        19        20     1        0.154414   170954.539673
        19        21     1        0.154414   170954.539673
        19        22     1        0.154414   170954.539673
        20        46     1        0.109415   298687.904785
        20        47     1        0.109415   298687.904785
        20        48     1        0.109415   298687.904785
        21        49     1        0.109415   298687.904785
        21        50     1        0.109415   298687.904785
        21        51     1        0.109415   298687.904785
        22        52     1        0.109415   298687.904785
        22        53     1        0.109415   298687.904785
        22        54     1        0.109415   298687.904785
        23        24     1        0.139680   302536.704688
        23        55     1        0.108557   317207.927246
        24        25     1        0.150991   191654.065039
        25        26     1        0.144976   161901.838696
        25        56     1        0.109941   282136.155029

[ angles ]
;       ai        aj        ak funct           theta             cth
         1         2         3     1      115.187744      598.576820
         1         2        30     1      109.700928      498.669519
         1         2        57     1      109.700928      498.669583
         2         1        27     1      108.587814      556.078792
         2         1        28     1      108.587814      556.078792
         2         1        29     1      108.587814      556.078792
         2         3         4     1      109.782944      666.941322
         2         3        31     1      107.335121      541.874094
         2         3        32     1      107.335121      541.874094
         3         2        30     1      107.926857      485.947378
         3         2        57     1      107.926857      485.947378
         3         4         5     1      113.564735      579.552567
         3         4        26     1      104.662491      644.063200
         3         4        33     1      108.838211      491.167067
         4         3        31     1      111.428970      470.995113
         4         3        32     1      111.428970      470.995113
         4         5         6     1      110.441246      650.565076
         4         5        34     1      109.442688      484.428431
         4         5        35     1      109.442688      484.428431
         4        26        25     1      113.866959      593.043247
         5         4        26     1      112.559959      554.304729
         5         4        33     1      109.469742      457.584907
         5         6         7     1      111.123962      622.041593
         5         6        36     1      109.769775      504.700969
         5         6        37     1      109.769775      504.700969
         6         5        34     1      110.386375      503.355515
         6         5        35     1      110.386391      503.355515
         6         7         8     1      113.296242      591.532089
         6         7        25     1      110.137489      596.988667
         6         7        38     1      108.731361      484.579004
         7         6        36     1      109.667625      493.610682
         7         6        37     1      109.667625      493.610682
         7         8         9     1      113.157654      512.292865
         7         8        14     1      108.590225      593.642093
         7         8        39     1      107.204712      477.593902
         7        25        24     1      112.238403      568.689336
         7        25        26     1      111.193031      593.874161
         7        25        56     1      108.485962      465.431854
         8         7        25     1      109.633812      679.017310
         8         7        38     1      107.003212      494.654766
         8         9        10     1      128.074631      436.146918
         8         9        13     1      121.107521      445.431733
         8        14        15     1      118.535866      534.323090
         8        14        43     1      113.062477      471.531744
         9         8        14     1      111.166183      551.482113
         9         8        39     1      107.503922      481.359700
         9        10        11     1      113.359573      367.846323
         9        10        40     1      122.701599      383.003172
         9        13        12     1       91.942963      207.193246
        10         9        13     1      110.783958      167.360000
        10        11        12     1      112.551598      398.726147
        10        11        41     1      124.110802      408.870732
        11        10        40     1      124.009071      403.879217
        11        12        13     1      111.641495      167.360000
        11        12        42     1      128.425446      387.424699
        12        11        41     1      123.394737      399.435855
        13        12        42     1      120.042458      363.772739
        14         8        39     1      109.149033      445.710087
        14        15        16     1      120.124657      538.437757
        14        15        24     1      120.507957      576.099439
        15        14        43     1      113.566116      491.064057
        15        16        17     1      120.851013      766.439518
        15        16        44     1      119.259865      422.419605
        15        24        23     1      119.204880      767.258493
        15        24        25     1      120.039200      558.868530
        16        15        24     1      118.736610      649.967060
        16        17        18     1      121.563881      682.117004
        16        17        45     1      118.572372      426.345265
        17        16        44     1      119.754227      440.477853
        17        18        19     1      121.634232      520.072937
        17        18        23     1      116.841629      645.210391
        18        17        45     1      119.969864      408.296498
        18        19        20     1      110.375267      651.238617
        18        19        21     1      110.375267      651.238617
        18        19        22     1      110.375267      651.238617
        18        23        24     1      122.758034      676.921032
        18        23        55     1      119.777512      396.482074
        19        18        23     1      121.651917      457.842672
        19        20        46     1      111.037216      474.616435
        19        20        47     1      111.037216      474.616435
        19        20        48     1      111.037216      474.616435
        19        21        49     1      111.037216      474.616435
        19        21        50     1      111.037216      474.616435
        19        21        51     1      111.037216      474.616435
        19        22        52     1      111.037216      474.616435
        19        22        53     1      111.037216      474.616435
        19        22        54     1      111.037216      474.616435
        20        19        21     1      108.597389      558.465044
        20        19        22     1      108.597389      558.465044
        21        19        22     1      108.597389      558.465044
        23        24        25     1      120.689697      465.278982
        24        23        55     1      117.884827      403.355833
        24        25        26     1      109.640335      627.064359
        24        25        56     1      108.879196      458.791950
        25         7        38     1      107.181442      504.057179
        26         4        33     1      108.373520      453.777260
        26        25        56     1      106.349258      485.610161
        27         1        28     1      110.439980      348.692566
        27         1        29     1      110.439980      348.692566
        28         1        29     1      110.439980      348.692566
        30         2        57     1      106.186768      403.175637
        31         3        32     1      109.253494      345.162060
        34         5        35     1      107.029518      357.738735
        36         6        37     1      106.521019      362.012275
        46        20        47     1      107.883377      362.487840
        46        20        48     1      107.883377      362.487840
        47        20        48     1      107.883377      362.487840
        49        21        50     1      107.883377      362.487840
        49        21        51     1      107.883377      362.487840
        50        21        51     1      107.883377      362.487840
        52        22        53     1      107.883377      362.487840
        52        22        54     1      107.883377      362.487840
        53        22        54     1      107.883377      362.487840

[ dihedrals ] ; propers for gromacs 4.5 or higher, use funct 9
;       ai        aj        ak        al funct           phase               k        pn
         1         2         3         4     9        0.000000       -0.148125         1
         1         2         3         4     9      180.000000       -0.408852         2
         1         2         3         4     9        0.000000        0.731077         3
         1         2         3         4     9      180.000000        0.103734         4
         1         2         3        31     9        0.000000       -0.129659         1
         1         2         3        31     9      180.000000        0.160150         2
         1         2         3        31     9        0.000000        0.778493         3
         1         2         3        31     9      180.000000        0.001367         4
         1         2         3        32     9        0.000000       -0.129659         1
         1         2         3        32     9      180.000000        0.160150         2
         1         2         3        32     9        0.000000        0.778493         3
         1         2         3        32     9      180.000000        0.001367         4
         2         3         4         5     9        0.000000        2.027393         1
         2         3         4         5     9      180.000000        1.220786         2
         2         3         4         5     9        0.000000        0.741087         3
         2         3         4         5     9      180.000000        0.029827         4
         2         3         4        26     9        0.000000        7.432989         1
         2         3         4        26     9      180.000000       -1.903457         2
         2         3         4        26     9        0.000000        0.622436         3
         2         3         4        26     9      180.000000        0.233995         4
         2         3         4        33     9        0.000000       -0.850898         1
         2         3         4        33     9      180.000000       -1.223401         2
         2         3         4        33     9        0.000000        0.896097         3
         2         3         4        33     9      180.000000        0.031154         4
         3         2         1        27     9        0.000000       -0.025776         1
         3         2         1        27     9      180.000000        0.084966         2
         3         2         1        27     9        0.000000        0.554715         3
         3         2         1        27     9      180.000000       -0.036748         4
         3         2         1        28     9        0.000000       -0.025776         1
         3         2         1        28     9      180.000000        0.084966         2
         3         2         1        28     9        0.000000        0.554715         3
         3         2         1        28     9      180.000000       -0.036748         4
         3         2         1        29     9        0.000000       -0.025776         1
         3         2         1        29     9      180.000000        0.084966         2
         3         2         1        29     9        0.000000        0.554715         3
         3         2         1        29     9      180.000000       -0.036748         4
         3         4         5         6     9        0.000000        0.977830         1
         3         4         5         6     9      180.000000        0.560929         2
         3         4         5         6     9        0.000000        0.410520         3
         3         4         5         6     9      180.000000        0.003317         4
         3         4         5        34     9        0.000000       -0.366757         1
         3         4         5        34     9      180.000000       -0.036968         2
         3         4         5        34     9        0.000000        0.428964         3
         3         4         5        34     9      180.000000        0.049623         4
         3         4         5        35     9        0.000000       -0.366757         1
         3         4         5        35     9      180.000000       -0.036968         2
         3         4         5        35     9        0.000000        0.428964         3
         3         4         5        35     9      180.000000        0.049623         4
         3         4        26        25     9        0.000000       -0.958733         1
         3         4        26        25     9      180.000000       -0.350114         2
         3         4        26        25     9        0.000000        0.590930         3
         3         4        26        25     9      180.000000       -0.029918         4
         4         3         2        30     9        0.000000        0.737996         1
         4         3         2        30     9      180.000000        0.138845         2
         4         3         2        30     9        0.000000        0.428803         3
         4         3         2        30     9      180.000000       -0.076223         4
         4         3         2        57     9        0.000000        0.737996         1
         4         3         2        57     9      180.000000        0.138845         2
         4         3         2        57     9        0.000000        0.428803         3
         4         3         2        57     9      180.000000       -0.076223         4
         4         5         6         7     9        0.000000        0.645858         1
         4         5         6         7     9      180.000000       -0.901849         2
         4         5         6         7     9        0.000000        0.219294         3
         4         5         6         7     9      180.000000        0.003502         4
         4         5         6        36     9        0.000000       -0.074061         1
         4         5         6        36     9      180.000000        0.006691         2
         4         5         6        36     9        0.000000        0.240543         3
         4         5         6        36     9      180.000000        0.003705         4
         4         5         6        37     9        0.000000       -0.074061         1
         4         5         6        37     9      180.000000        0.006691         2
         4         5         6        37     9        0.000000        0.240543         3
         4         5         6        37     9      180.000000        0.003705         4
         4        26        25         7     9        0.000000        7.073757         1
         4        26        25         7     9      180.000000       -2.966880         2
         4        26        25         7     9        0.000000        0.101432         3
         4        26        25         7     9      180.000000        0.247128         4
         4        26        25        24     9        0.000000        0.576441         1
         4        26        25        24     9      180.000000       -0.904905         2
         4        26        25        24     9        0.000000        0.710871         3
         4        26        25        24     9      180.000000        0.089128         4
         4        26        25        56     9        0.000000       -0.212972         1
         4        26        25        56     9      180.000000       -0.031832         2
         4        26        25        56     9        0.000000        0.868413         3
         4        26        25        56     9      180.000000       -0.033699         4
         5         4         3        31     9        0.000000       -0.226638         1
         5         4         3        31     9      180.000000        0.094536         2
         5         4         3        31     9        0.000000        0.703513         3
         5         4         3        31     9      180.000000        0.086981         4
         5         4         3        32     9        0.000000       -0.226638         1
         5         4         3        32     9      180.000000        0.094536         2
         5         4         3        32     9        0.000000        0.703513         3
         5         4         3        32     9      180.000000        0.086981         4
         5         4        26        25     9        0.000000        5.836336         1
         5         4        26        25     9      180.000000       -1.413684         2
         5         4        26        25     9        0.000000       -0.030030         3
         5         4        26        25     9      180.000000        0.098568         4
         5         6         7         8     9        0.000000        0.177772         1
         5         6         7         8     9      180.000000       -0.412359         2
         5         6         7         8     9        0.000000        0.354898         3
         5         6         7         8     9      180.000000        0.033719         4
         5         6         7        25     9        0.000000        0.886369         1
         5         6         7        25     9      180.000000       -0.797095         2
         5         6         7        25     9        0.000000        0.107558         3
         5         6         7        25     9      180.000000        0.089609         4
         5         6         7        38     9        0.000000       -0.903996         1
         5         6         7        38     9      180.000000       -0.043291         2
         5         6         7        38     9        0.000000        0.221632         3
         5         6         7        38     9      180.000000        0.131308         4
         6         5         4        26     9        0.000000       -0.495262         1
         6         5         4        26     9      180.000000       -0.091915         2
         6         5         4        26     9        0.000000        0.293506         3
         6         5         4        26     9      180.000000       -0.045840         4
         6         5         4        33     9        0.000000       -0.455614         1
         6         5         4        33     9      180.000000       -0.019407         2
         6         5         4        33     9        0.000000        0.415850         3
         6         5         4        33     9      180.000000        0.035827         4
         6         7         8         9     9        0.000000        1.012816         1
         6         7         8         9     9      180.000000       -0.379613         2
         6         7         8         9     9        0.000000        0.853264         3
         6         7         8         9     9      180.000000        0.089577         4
         6         7         8        14     9        0.000000       -1.548822         1
         6         7         8        14     9      180.000000        0.708228         2
         6         7         8        14     9        0.000000        0.325074         3
         6         7         8        14     9      180.000000       -0.117823         4
         6         7         8        39     9        0.000000       -0.393755         1
         6         7         8        39     9      180.000000        0.211151         2
         6         7         8        39     9        0.000000        0.544111         3
         6         7         8        39     9      180.000000       -0.017463         4
         6         7        25        24     9        0.000000        0.660848         1
         6         7        25        24     9      180.000000       -1.465867         2
         6         7        25        24     9        0.000000        0.345898         3
         6         7        25        24     9      180.000000        0.037968         4
         6         7        25        26     9        0.000000        0.064308         1
         6         7        25        26     9      180.000000       -1.636634         2
         6         7        25        26     9        0.000000        0.262256         3
         6         7        25        26     9      180.000000        0.150133         4
         6         7        25        56     9        0.000000       -0.052229         1
         6         7        25        56     9      180.000000        0.147669         2
         6         7        25        56     9        0.000000        0.299453         3
         6         7        25        56     9      180.000000        0.107479         4
         7         6         5        34     9        0.000000       -0.087218         1
         7         6         5        34     9      180.000000        0.058658         2
         7         6         5        34     9        0.000000        0.220496         3
         7         6         5        34     9      180.000000        0.008566         4
         7         6         5        35     9        0.000000       -0.087218         1
         7         6         5        35     9      180.000000        0.058658         2
         7         6         5        35     9        0.000000        0.220496         3
         7         6         5        35     9      180.000000        0.008566         4
         7         8         9        10     9        0.000000        0.267018         1
         7         8         9        10     9      180.000000       -0.343432         2
         7         8         9        10     9        0.000000        0.047028         3
         7         8         9        10     9      180.000000       -0.019435         4
         7         8         9        13     9        0.000000       -0.850636         1
         7         8         9        13     9      180.000000       -0.494786         2
         7         8         9        13     9        0.000000        0.329588         3
         7         8         9        13     9      180.000000        0.009686         4
         7         8        14        15     9        0.000000        6.439237         1
         7         8        14        15     9      180.000000       -2.961761         2
         7         8        14        15     9        0.000000       -0.020339         3
         7         8        14        15     9      180.000000        0.621811         4
         7         8        14        43     9        0.000000        3.496755         1
         7         8        14        43     9      180.000000       -2.905029         2
         7         8        14        43     9        0.000000        0.140340         3
         7         8        14        43     9      180.000000        0.357321         4
         7        25        24        15     9        0.000000        4.567773         1
         7        25        24        15     9      180.000000       -3.902941         2
         7        25        24        15     9        0.000000       -0.204774         3
         7        25        24        15     9      180.000000        0.849748         4
         7        25        24        23     9        0.000000       -1.114398         1
         7        25        24        23     9      180.000000       -0.909295         2
         7        25        24        23     9        0.000000       -0.583194         3
         7        25        24        23     9      180.000000        0.286053         4
         8         7         6        36     9        0.000000        0.006100         1
         8         7         6        36     9      180.000000        0.023922         2
         8         7         6        36     9        0.000000        0.291366         3
         8         7         6        36     9      180.000000        0.001580         4
         8         7         6        37     9        0.000000        0.006100         1
         8         7         6        37     9      180.000000        0.023922         2
         8         7         6        37     9        0.000000        0.291366         3
         8         7         6        37     9      180.000000        0.001580         4
         8         7        25        24     9        0.000000        1.961911         1
         8         7        25        24     9      180.000000       -2.824607         2
         8         7        25        24     9        0.000000        0.042275         3
         8         7        25        24     9      180.000000        0.159744         4
         8         7        25        26     9        0.000000        0.715886         1
         8         7        25        26     9      180.000000       -4.500424         2
         8         7        25        26     9        0.000000        0.127026         3
         8         7        25        26     9      180.000000        0.431839         4
         8         7        25        56     9        0.000000       -0.354699         1
         8         7        25        56     9      180.000000        0.092225         2
         8         7        25        56     9        0.000000        0.078983         3
         8         7        25        56     9      180.000000        0.151169         4
         8         9        10        11     9        0.000000        0.545102         1
         8         9        10        11     9      180.000000       17.448944         2
         8         9        10        11     9        0.000000       -0.030412         3
         8         9        10        11     9      180.000000       -0.920901         4
         8         9        10        40     9        0.000000        0.051433         1
         8         9        10        40     9      180.000000       12.772431         2
         8         9        10        40     9        0.000000       -0.198430         3
         8         9        10        40     9      180.000000        0.010499         4
         8         9        13        12     9        0.000000        0.754646         1
         8         9        13        12     9      180.000000       12.465232         2
         8         9        13        12     9        0.000000        0.775853         3
         8         9        13        12     9      180.000000       -0.427180         4
         8        14        15        16     9        0.000000       -0.573630         1
         8        14        15        16     9      180.000000        2.697533         2
         8        14        15        16     9        0.000000       -0.004600         3
         8        14        15        16     9      180.000000        0.442806         4
         8        14        15        24     9        0.000000        3.156579         1
         8        14        15        24     9      180.000000        0.354835         2
         8        14        15        24     9        0.000000       -0.137490         3
         8        14        15        24     9      180.000000        1.062278         4
         9         8         7        25     9        0.000000       -0.618529         1
         9         8         7        25     9      180.000000       -0.193874         2
         9         8         7        25     9        0.000000        0.363126         3
         9         8         7        25     9      180.000000        0.113565         4
         9         8         7        38     9        0.000000        0.118467         1
         9         8         7        38     9      180.000000       -0.015525         2
         9         8         7        38     9        0.000000        0.480856         3
         9         8         7        38     9      180.000000       -0.031145         4
         9         8        14        15     9        0.000000        1.083053         1
         9         8        14        15     9      180.000000       -0.639621         2
         9         8        14        15     9        0.000000        0.715997         3
         9         8        14        15     9      180.000000        0.136096         4
         9         8        14        43     9        0.000000        3.561389         1
         9         8        14        43     9      180.000000       -1.102818         2
         9         8        14        43     9        0.000000        0.193070         3
         9         8        14        43     9      180.000000       -0.115025         4
         9        10        11        12     9        0.000000       -0.148139         1
         9        10        11        12     9      180.000000       22.561825         2
         9        10        11        12     9        0.000000       -4.912245         3
         9        10        11        12     9      180.000000       -0.466586         4
         9        10        11        41     9        0.000000        0.539188         1
         9        10        11        41     9      180.000000       11.372047         2
         9        10        11        41     9        0.000000       -0.250378         3
         9        10        11        41     9      180.000000       -0.165705         4
         9        13        12        11     9        0.000000       -0.352231         1
         9        13        12        11     9      180.000000       28.622036         2
         9        13        12        11     9        0.000000       -5.274873         3
         9        13        12        11     9      180.000000       -0.234016         4
         9        13        12        42     9        0.000000        0.935206         1
         9        13        12        42     9      180.000000       11.712239         2
         9        13        12        42     9        0.000000        0.809820         3
         9        13        12        42     9      180.000000       -0.225842         4
        10         9         8        14     9        0.000000        0.277901         1
        10         9         8        14     9      180.000000        0.520898         2
        10         9         8        14     9        0.000000       -0.131817         3
        10         9         8        14     9      180.000000        0.162031         4
        10         9         8        39     9        0.000000        0.017841         1
        10         9         8        39     9      180.000000        0.667637         2
        10         9         8        39     9        0.000000       -0.071621         3
        10         9         8        39     9      180.000000        0.007649         4
        10         9        13        12     9        0.000000       -0.213256         1
        10         9        13        12     9      180.000000       28.746633         2
        10         9        13        12     9        0.000000       -5.982481         3
        10         9        13        12     9      180.000000        0.030816         4
        10        11        12        13     9        0.000000       -0.169239         1
        10        11        12        13     9      180.000000       28.126959         2
        10        11        12        13     9        0.000000       -4.843074         3
        10        11        12        13     9      180.000000       -0.798899         4
        10        11        12        42     9        0.000000        0.415103         1
        10        11        12        42     9      180.000000       17.025978         2
        10        11        12        42     9        0.000000       -0.155469         3
        10        11        12        42     9      180.000000       -0.586056         4
        11        10         9        13     9        0.000000       -0.356002         1
        11        10         9        13     9      180.000000       27.931832         2
        11        10         9        13     9        0.000000       -5.476218         3
        11        10         9        13     9      180.000000       -0.617699         4
        12        11        10        40     9        0.000000        0.808282         1
        12        11        10        40     9      180.000000       12.113813         2
        12        11        10        40     9        0.000000       -0.349078         3
        12        11        10        40     9      180.000000       -0.267576         4
        13         9         8        14     9        0.000000       -2.113274         1
        13         9         8        14     9      180.000000        0.029200         2
        13         9         8        14     9        0.000000        0.235280         3
        13         9         8        14     9      180.000000        0.165494         4
        13         9         8        39     9        0.000000        0.547659         1
        13         9         8        39     9      180.000000        0.494276         2
        13         9         8        39     9        0.000000        0.424435         3
        13         9         8        39     9      180.000000       -0.013187         4
        13         9        10        40     9        0.000000        0.207784         1
        13         9        10        40     9      180.000000       15.500047         2
        13         9        10        40     9        0.000000       -0.385203         3
        13         9        10        40     9      180.000000       -0.307926         4
        13        12        11        41     9        0.000000        0.287040         1
        13        12        11        41     9      180.000000       16.348193         2
        13        12        11        41     9        0.000000       -0.379211         3
        13        12        11        41     9      180.000000       -0.470325         4
        14         8         7        25     9        0.000000        0.172703         1
        14         8         7        25     9      180.000000       -1.669431         2
        14         8         7        25     9        0.000000       -0.206525         3
        14         8         7        25     9      180.000000        0.133886         4
        14         8         7        38     9        0.000000       -0.108464         1
        14         8         7        38     9      180.000000        0.127594         2
        14         8         7        38     9        0.000000        0.117221         3
        14         8         7        38     9      180.000000        0.208376         4
        14        15        16        17     9        0.000000        0.346453         1
        14        15        16        17     9      180.000000       19.034707         2
        14        15        16        17     9        0.000000        0.290474         3
        14        15        16        17     9      180.000000       -0.305904         4
        14        15        16        44     9        0.000000       -0.247396         1
        14        15        16        44     9      180.000000       15.516332         2
        14        15        16        44     9        0.000000       -0.138322         3
        14        15        16        44     9      180.000000        0.019795         4
        14        15        24        23     9        0.000000        0.184591         1
        14        15        24        23     9      180.000000       17.203407         2
        14        15        24        23     9        0.000000        0.122117         3
        14        15        24        23     9      180.000000       -0.530172         4
        14        15        24        25     9        0.000000       -0.055936         1
        14        15        24        25     9      180.000000       15.768050         2
        14        15        24        25     9        0.000000        0.504204         3
        14        15        24        25     9      180.000000       -0.490662         4
        15        14         8        39     9        0.000000       -0.162039         1
        15        14         8        39     9      180.000000        0.008976         2
        15        14         8        39     9        0.000000        0.644861         3
        15        14         8        39     9      180.000000       -0.010964         4
        15        16        17        18     9        0.000000        0.055193         1
        15        16        17        18     9      180.000000       17.842593         2
        15        16        17        18     9        0.000000       -1.816540         3
        15        16        17        18     9      180.000000       -0.374664         4
        15        16        17        45     9        0.000000        0.125900         1
        15        16        17        45     9      180.000000       13.842380         2
        15        16        17        45     9        0.000000       -0.659410         3
        15        16        17        45     9      180.000000        0.184493         4
        15        24        23        18     9        0.000000        0.086945         1
        15        24        23        18     9      180.000000       18.696258         2
        15        24        23        18     9        0.000000       -1.673696         3
        15        24        23        18     9      180.000000       -0.421155         4
        15        24        23        55     9        0.000000        0.165569         1
        15        24        23        55     9      180.000000       13.951727         2
        15        24        23        55     9        0.000000       -0.248537         3
        15        24        23        55     9      180.000000        0.185880         4
        15        24        25        26     9        0.000000       -2.534642         1
        15        24        25        26     9      180.000000       -1.866578         2
        15        24        25        26     9        0.000000        0.703397         3
        15        24        25        26     9      180.000000       -0.162778         4
        15        24        25        56     9        0.000000       -0.035257         1
        15        24        25        56     9      180.000000        0.445616         2
        15        24        25        56     9        0.000000        0.125839         3
        15        24        25        56     9      180.000000        0.021596         4
        16        15        14        43     9        0.000000       -0.552191         1
        16        15        14        43     9      180.000000        4.097904         2
        16        15        14        43     9        0.000000       -0.086359         3
        16        15        14        43     9      180.000000        0.277649         4
        16        15        24        23     9        0.000000       -0.006450         1
        16        15        24        23     9      180.000000       14.898102         2
        16        15        24        23     9        0.000000       -0.797426         3
        16        15        24        23     9      180.000000       -0.255614         4
        16        15        24        25     9        0.000000        0.074258         1
        16        15        24        25     9      180.000000       12.109719         2
        16        15        24        25     9        0.000000       -0.168703         3
        16        15        24        25     9      180.000000       -0.080934         4
        16        17        18        19     9        0.000000       -0.012280         1
        16        17        18        19     9      180.000000       14.438512         2
        16        17        18        19     9        0.000000       -0.038221         3
        16        17        18        19     9      180.000000       -0.169980         4
        16        17        18        23     9        0.000000       -0.092843         1
        16        17        18        23     9      180.000000       18.822934         2
        16        17        18        23     9        0.000000       -1.481357         3
        16        17        18        23     9      180.000000       -0.421607         4
        17        16        15        24     9        0.000000        0.005199         1
        17        16        15        24     9      180.000000       17.242076         2
        17        16        15        24     9        0.000000       -0.812692         3
        17        16        15        24     9      180.000000       -0.348129         4
        17        18        19        20     9        0.000000        0.066118         1
        17        18        19        20     9      180.000000        0.256920         2
        17        18        19        20     9        0.000000        0.081785         3
        17        18        19        20     9      180.000000        0.232755         4
        17        18        19        21     9        0.000000        0.066118         1
        17        18        19        21     9      180.000000        0.256920         2
        17        18        19        21     9        0.000000        0.081785         3
        17        18        19        21     9      180.000000        0.232755         4
        17        18        19        22     9        0.000000        0.066118         1
        17        18        19        22     9      180.000000        0.256920         2
        17        18        19        22     9        0.000000        0.081785         3
        17        18        19        22     9      180.000000        0.232755         4
        17        18        23        24     9        0.000000       -0.065301         1
        17        18        23        24     9      180.000000       18.732346         2
        17        18        23        24     9        0.000000       -1.586504         3
        17        18        23        24     9      180.000000       -0.481249         4
        17        18        23        55     9        0.000000       -0.055041         1
        17        18        23        55     9      180.000000       14.417531         2
        17        18        23        55     9        0.000000       -0.625288         3
        17        18        23        55     9      180.000000        0.064387         4
        18        17        16        44     9        0.000000        0.015357         1
        18        17        16        44     9      180.000000       14.700804         2
        18        17        16        44     9        0.000000       -0.663278         3
        18        17        16        44     9      180.000000        0.171045         4
        18        19        20        46     9        0.000000       -0.010429         1
        18        19        20        46     9      180.000000        0.022823         2
        18        19        20        46     9        0.000000        0.616609         3
        18        19        20        46     9      180.000000       -0.012818         4
        18        19        20        47     9        0.000000       -0.010429         1
        18        19        20        47     9      180.000000        0.022823         2
        18        19        20        47     9        0.000000        0.616609         3
        18        19        20        47     9      180.000000       -0.012818         4
        18        19        20        48     9        0.000000       -0.010429         1
        18        19        20        48     9      180.000000        0.022823         2
        18        19        20        48     9        0.000000        0.616609         3
        18        19        20        48     9      180.000000       -0.012818         4
        18        19        21        49     9        0.000000       -0.010429         1
        18        19        21        49     9      180.000000        0.022823         2
        18        19        21        49     9        0.000000        0.616609         3
        18        19        21        49     9      180.000000       -0.012818         4
        18        19        21        50     9        0.000000       -0.010429         1
        18        19        21        50     9      180.000000        0.022823         2
        18        19        21        50     9        0.000000        0.616609         3
        18        19        21        50     9      180.000000       -0.012818         4
        18        19        21        51     9        0.000000       -0.010429         1
        18        19        21        51     9      180.000000        0.022823         2
        18        19        21        51     9        0.000000        0.616609         3
        18        19        21        51     9      180.000000       -0.012818         4
        18        19        22        52     9        0.000000       -0.010429         1
        18        19        22        52     9      180.000000        0.022823         2
        18        19        22        52     9        0.000000        0.616609         3
        18        19        22        52     9      180.000000       -0.012818         4
        18        19        22        53     9        0.000000       -0.010429         1
        18        19        22        53     9      180.000000        0.022823         2
        18        19        22        53     9        0.000000        0.616609         3
        18        19        22        53     9      180.000000       -0.012818         4
        18        19        22        54     9        0.000000       -0.010429         1
        18        19        22        54     9      180.000000        0.022823         2
        18        19        22        54     9        0.000000        0.616609         3
        18        19        22        54     9      180.000000       -0.012818         4
        18        23        24        25     9        0.000000        0.030339         1
        18        23        24        25     9      180.000000       16.555423         2
        18        23        24        25     9        0.000000       -0.225676         3
        18        23        24        25     9      180.000000       -0.291807         4
        19        18        17        45     9        0.000000       -0.003085         1
        19        18        17        45     9      180.000000       12.620196         2
        19        18        17        45     9        0.000000       -0.269329         3
        19        18        17        45     9      180.000000        0.172534         4
        19        18        23        24     9        0.000000       -0.008721         1
        19        18        23        24     9      180.000000       14.246142         2
        19        18        23        24     9        0.000000       -0.052115         3
        19        18        23        24     9      180.000000       -0.246226         4
        19        18        23        55     9        0.000000       -0.016809         1
        19        18        23        55     9      180.000000       12.814781         2
        19        18        23        55     9        0.000000       -0.264071         3
        19        18        23        55     9      180.000000        0.141285         4
        20        19        18        23     9        0.000000       -0.084443         1
        20        19        18        23     9      180.000000        0.316333         2
        20        19        18        23     9        0.000000       -0.069832         3
        20        19        18        23     9      180.000000        0.262308         4
        20        19        21        49     9        0.000000       -0.087545         1
        20        19        21        49     9      180.000000        0.034290         2
        20        19        21        49     9        0.000000        0.537560         3
        20        19        21        49     9      180.000000        0.036946         4
        20        19        21        50     9        0.000000       -0.087545         1
        20        19        21        50     9      180.000000        0.034290         2
        20        19        21        50     9        0.000000        0.537560         3
        20        19        21        50     9      180.000000        0.036946         4
        20        19        21        51     9        0.000000       -0.087545         1
        20        19        21        51     9      180.000000        0.034290         2
        20        19        21        51     9        0.000000        0.537560         3
        20        19        21        51     9      180.000000        0.036946         4
        20        19        22        52     9        0.000000       -0.087545         1
        20        19        22        52     9      180.000000        0.034290         2
        20        19        22        52     9        0.000000        0.537560         3
        20        19        22        52     9      180.000000        0.036946         4
        20        19        22        53     9        0.000000       -0.087545         1
        20        19        22        53     9      180.000000        0.034290         2
        20        19        22        53     9        0.000000        0.537560         3
        20        19        22        53     9      180.000000        0.036946         4
        20        19        22        54     9        0.000000       -0.087545         1
        20        19        22        54     9      180.000000        0.034290         2
        20        19        22        54     9        0.000000        0.537560         3
        20        19        22        54     9      180.000000        0.036946         4
        21        19        18        23     9        0.000000       -0.084443         1
        21        19        18        23     9      180.000000        0.316333         2
        21        19        18        23     9        0.000000       -0.069832         3
        21        19        18        23     9      180.000000        0.262308         4
        21        19        20        46     9        0.000000       -0.087545         1
        21        19        20        46     9      180.000000        0.034290         2
        21        19        20        46     9        0.000000        0.537560         3
        21        19        20        46     9      180.000000        0.036946         4
        21        19        20        47     9        0.000000       -0.087545         1
        21        19        20        47     9      180.000000        0.034290         2
        21        19        20        47     9        0.000000        0.537560         3
        21        19        20        47     9      180.000000        0.036946         4
        21        19        20        48     9        0.000000       -0.087545         1
        21        19        20        48     9      180.000000        0.034290         2
        21        19        20        48     9        0.000000        0.537560         3
        21        19        20        48     9      180.000000        0.036946         4
        21        19        22        52     9        0.000000       -0.087545         1
        21        19        22        52     9      180.000000        0.034290         2
        21        19        22        52     9        0.000000        0.537560         3
        21        19        22        52     9      180.000000        0.036946         4
        21        19        22        53     9        0.000000       -0.087545         1
        21        19        22        53     9      180.000000        0.034290         2
        21        19        22        53     9        0.000000        0.537560         3
        21        19        22        53     9      180.000000        0.036946         4
        21        19        22        54     9        0.000000       -0.087545         1
        21        19        22        54     9      180.000000        0.034290         2
        21        19        22        54     9        0.000000        0.537560         3
        21        19        22        54     9      180.000000        0.036946         4
        22        19        18        23     9        0.000000       -0.084443         1
        22        19        18        23     9      180.000000        0.316333         2
        22        19        18        23     9        0.000000       -0.069832         3
        22        19        18        23     9      180.000000        0.262308         4
        22        19        20        46     9        0.000000       -0.087545         1
        22        19        20        46     9      180.000000        0.034290         2
        22        19        20        46     9        0.000000        0.537560         3
        22        19        20        46     9      180.000000        0.036946         4
        22        19        20        47     9        0.000000       -0.087545         1
        22        19        20        47     9      180.000000        0.034290         2
        22        19        20        47     9        0.000000        0.537560         3
        22        19        20        47     9      180.000000        0.036946         4
        22        19        20        48     9        0.000000       -0.087545         1
        22        19        20        48     9      180.000000        0.034290         2
        22        19        20        48     9        0.000000        0.537560         3
        22        19        20        48     9      180.000000        0.036946         4
        22        19        21        49     9        0.000000       -0.087545         1
        22        19        21        49     9      180.000000        0.034290         2
        22        19        21        49     9        0.000000        0.537560         3
        22        19        21        49     9      180.000000        0.036946         4
        22        19        21        50     9        0.000000       -0.087545         1
        22        19        21        50     9      180.000000        0.034290         2
        22        19        21        50     9        0.000000        0.537560         3
        22        19        21        50     9      180.000000        0.036946         4
        22        19        21        51     9        0.000000       -0.087545         1
        22        19        21        51     9      180.000000        0.034290         2
        22        19        21        51     9        0.000000        0.537560         3
        22        19        21        51     9      180.000000        0.036946         4
        23        18        17        45     9        0.000000       -0.000999         1
        23        18        17        45     9      180.000000       14.590484         2
        23        18        17        45     9        0.000000       -0.653741         3
        23        18        17        45     9      180.000000        0.015673         4
        23        24        25        26     9        0.000000        0.076065         1
        23        24        25        26     9      180.000000        0.299592         2
        23        24        25        26     9        0.000000       -0.697798         3
        23        24        25        26     9      180.000000        0.096561         4
        23        24        25        56     9        0.000000       -0.015994         1
        23        24        25        56     9      180.000000       -0.027670         2
        23        24        25        56     9        0.000000       -0.663514         3
        23        24        25        56     9      180.000000       -0.011071         4
        24        15        14        43     9        0.000000        6.497391         1
        24        15        14        43     9      180.000000        3.876122         2
        24        15        14        43     9        0.000000       -0.625857         3
        24        15        14        43     9      180.000000        0.409799         4
        24        15        16        44     9        0.000000        0.009776         1
        24        15        16        44     9      180.000000       12.811945         2
        24        15        16        44     9        0.000000       -0.225942         3
        24        15        16        44     9      180.000000        0.008526         4
        24        25         7        38     9        0.000000       -0.049177         1
        24        25         7        38     9      180.000000       -0.052870         2
        24        25         7        38     9        0.000000        0.152040         3
        24        25         7        38     9      180.000000        0.237785         4
        25         7         6        36     9        0.000000       -0.090555         1
        25         7         6        36     9      180.000000        0.051441         2
        25         7         6        36     9        0.000000        0.177038         3
        25         7         6        36     9      180.000000        0.028900         4
        25         7         6        37     9        0.000000       -0.090555         1
        25         7         6        37     9      180.000000        0.051441         2
        25         7         6        37     9        0.000000        0.177038         3
        25         7         6        37     9      180.000000        0.028900         4
        25         7         8        39     9        0.000000       -0.260057         1
        25         7         8        39     9      180.000000       -0.007102         2
        25         7         8        39     9        0.000000        0.143891         3
        25         7         8        39     9      180.000000        0.122866         4
        25        24        23        55     9        0.000000       -0.033245         1
        25        24        23        55     9      180.000000       12.695301         2
        25        24        23        55     9        0.000000       -0.226616         3
        25        24        23        55     9      180.000000        0.173469         4
        25        26         4        33     9        0.000000       -0.877971         1
        25        26         4        33     9      180.000000        0.206204         2
        25        26         4        33     9        0.000000        0.599063         3
        25        26         4        33     9      180.000000        0.164838         4
        26         4         3        31     9        0.000000       -0.212147         1
        26         4         3        31     9      180.000000        0.106700         2
        26         4         3        31     9        0.000000        0.612487         3
        26         4         3        31     9      180.000000        0.027777         4
        26         4         3        32     9        0.000000       -0.212147         1
        26         4         3        32     9      180.000000        0.106700         2
        26         4         3        32     9        0.000000        0.612487         3
        26         4         3        32     9      180.000000        0.027777         4
        26         4         5        34     9        0.000000        0.057189         1
        26         4         5        34     9      180.000000        0.037771         2
        26         4         5        34     9        0.000000        0.321805         3
        26         4         5        34     9      180.000000        0.018290         4
        26         4         5        35     9        0.000000        0.057189         1
        26         4         5        35     9      180.000000        0.037771         2
        26         4         5        35     9        0.000000        0.321805         3
        26         4         5        35     9      180.000000        0.018290         4
        26        25         7        38     9        0.000000       -0.708655         1
        26        25         7        38     9      180.000000        0.003072         2
        26        25         7        38     9        0.000000        0.058812         3
        26        25         7        38     9      180.000000        0.160904         4
        27         1         2        30     9        0.000000       -0.209414         1
        27         1         2        30     9      180.000000        0.092757         2
        27         1         2        30     9        0.000000        0.403927         3
        27         1         2        30     9      180.000000        0.036922         4
        27         1         2        57     9        0.000000       -0.209414         1
        27         1         2        57     9      180.000000        0.092757         2
        27         1         2        57     9        0.000000        0.403927         3
        27         1         2        57     9      180.000000        0.036923         4
        28         1         2        30     9        0.000000       -0.209414         1
        28         1         2        30     9      180.000000        0.092757         2
        28         1         2        30     9        0.000000        0.403927         3
        28         1         2        30     9      180.000000        0.036922         4
        28         1         2        57     9        0.000000       -0.209414         1
        28         1         2        57     9      180.000000        0.092757         2
        28         1         2        57     9        0.000000        0.403927         3
        28         1         2        57     9      180.000000        0.036923         4
        29         1         2        30     9        0.000000       -0.209414         1
        29         1         2        30     9      180.000000        0.092757         2
        29         1         2        30     9        0.000000        0.403927         3
        29         1         2        30     9      180.000000        0.036922         4
        29         1         2        57     9        0.000000       -0.209414         1
        29         1         2        57     9      180.000000        0.092757         2
        29         1         2        57     9        0.000000        0.403927         3
        29         1         2        57     9      180.000000        0.036923         4
        30         2         3        31     9        0.000000       -0.010031         1
        30         2         3        31     9      180.000000       -0.011853         2
        30         2         3        31     9        0.000000        0.447966         3
        30         2         3        31     9      180.000000        0.047175         4
        30         2         3        32     9        0.000000       -0.010031         1
        30         2         3        32     9      180.000000       -0.011853         2
        30         2         3        32     9        0.000000        0.447966         3
        30         2         3        32     9      180.000000        0.047175         4
        31         3         2        57     9        0.000000       -0.010032         1
        31         3         2        57     9      180.000000       -0.011852         2
        31         3         2        57     9        0.000000        0.447966         3
        31         3         2        57     9      180.000000        0.047175         4
        31         3         4        33     9        0.000000       -0.147414         1
        31         3         4        33     9      180.000000        0.142584         2
        31         3         4        33     9        0.000000        0.671232         3
        31         3         4        33     9      180.000000       -0.039688         4
        32         3         2        57     9        0.000000       -0.010032         1
        32         3         2        57     9      180.000000       -0.011852         2
        32         3         2        57     9        0.000000        0.447966         3
        32         3         2        57     9      180.000000        0.047175         4
        32         3         4        33     9        0.000000       -0.147414         1
        32         3         4        33     9      180.000000        0.142584         2
        32         3         4        33     9        0.000000        0.671232         3
        32         3         4        33     9      180.000000       -0.039688         4
        33         4         5        34     9        0.000000        0.103261         1
        33         4         5        34     9      180.000000       -0.001816         2
        33         4         5        34     9        0.000000        0.497023         3
        33         4         5        34     9      180.000000       -0.075715         4
        33         4         5        35     9        0.000000        0.103261         1
        33         4         5        35     9      180.000000       -0.001816         2
        33         4         5        35     9        0.000000        0.497023         3
        33         4         5        35     9      180.000000       -0.075715         4
        34         5         6        36     9        0.000000       -0.001037         1
        34         5         6        36     9      180.000000        0.002684         2
        34         5         6        36     9        0.000000        0.294674         3
        34         5         6        36     9      180.000000        0.024083         4
        34         5         6        37     9        0.000000       -0.001037         1
        34         5         6        37     9      180.000000        0.002684         2
        34         5         6        37     9        0.000000        0.294674         3
        34         5         6        37     9      180.000000        0.024083         4
        35         5         6        36     9        0.000000       -0.001037         1
        35         5         6        36     9      180.000000        0.002684         2
        35         5         6        36     9        0.000000        0.294674         3
        35         5         6        36     9      180.000000        0.024083         4
        35         5         6        37     9        0.000000       -0.001037         1
        35         5         6        37     9      180.000000        0.002684         2
        35         5         6        37     9        0.000000        0.294674         3
        35         5         6        37     9      180.000000        0.024083         4
        36         6         7        38     9        0.000000        0.269499         1
        36         6         7        38     9      180.000000        0.077784         2
        36         6         7        38     9        0.000000        0.387635         3
        36         6         7        38     9      180.000000       -0.049318         4
        37         6         7        38     9        0.000000        0.269499         1
        37         6         7        38     9      180.000000        0.077784         2
        37         6         7        38     9        0.000000        0.387635         3
        37         6         7        38     9      180.000000       -0.049318         4
        38         7         8        39     9        0.000000        0.747809         1
        38         7         8        39     9      180.000000        0.209443         2
        38         7         8        39     9        0.000000        0.474931         3
        38         7         8        39     9      180.000000       -0.277034         4
        38         7        25        56     9        0.000000        0.053716         1
        38         7        25        56     9      180.000000        0.063141         2
        38         7        25        56     9        0.000000        0.277534         3
        38         7        25        56     9      180.000000       -0.092274         4
        39         8        14        43     9        0.000000       -1.050101         1
        39         8        14        43     9      180.000000       -0.049373         2
        39         8        14        43     9        0.000000        0.429034         3
        39         8        14        43     9      180.000000       -0.241352         4
        40        10        11        41     9        0.000000       -0.385872         1
        40        10        11        41     9      180.000000        7.777025         2
        40        10        11        41     9        0.000000       -0.591634         3
        40        10        11        41     9      180.000000        0.230951         4
        41        11        12        42     9        0.000000       -0.087124         1
        41        11        12        42     9      180.000000       12.236619         2
        41        11        12        42     9        0.000000       -0.626466         3
        41        11        12        42     9      180.000000        0.162328         4
        44        16        17        45     9        0.000000       -0.111849         1
        44        16        17        45     9      180.000000       12.002967         2
        44        16        17        45     9        0.000000       -0.737181         3
        44        16        17        45     9      180.000000        0.369919         4

[ pairs ]
;       ai        aj funct
         1         4     1
         1        31     1
         1        32     1
         2         5     1
         2        26     1
         2        33     1
         3         6     1
         3        25     1
         3        27     1
         3        28     1
         3        29     1
         3        34     1
         3        35     1
         4         7     1
         4        24     1
         4        30     1
         4        36     1
         4        37     1
         4        56     1
         4        57     1
         5         8     1
         5        25     1
         5        31     1
         5        32     1
         5        38     1
         6         9     1
         6        14     1
         6        24     1
         6        26     1
         6        33     1
         6        39     1
         6        56     1
         7        10     1
         7        13     1
         7        15     1
         7        23     1
         7        34     1
         7        35     1
         7        43     1
         8        11     1
         8        12     1
         8        16     1
         8        24     1
         8        26     1
         8        36     1
         8        37     1
         8        40     1
         8        56     1
         9        15     1
         9        25     1
         9        38     1
         9        41     1
         9        42     1
         9        43     1
        10        14     1
        10        39     1
        10        42     1
        12        40     1
        13        14     1
        13        39     1
        13        40     1
        13        41     1
        14        17     1
        14        23     1
        14        25     1
        14        38     1
        14        44     1
        15        18     1
        15        26     1
        15        39     1
        15        45     1
        15        55     1
        15        56     1
        16        19     1
        16        23     1
        16        25     1
        16        43     1
        17        20     1
        17        21     1
        17        22     1
        17        24     1
        17        55     1
        18        25     1
        18        44     1
        18        46     1
        18        47     1
        18        48     1
        18        49     1
        18        50     1
        18        51     1
        18        52     1
        18        53     1
        18        54     1
        19        24     1
        19        45     1
        19        55     1
        20        23     1
        20        49     1
        20        50     1
        20        51     1
        20        52     1
        20        53     1
        20        54     1
        21        23     1
        21        46     1
        21        47     1
        21        48     1
        21        52     1
        21        53     1
        21        54     1
        22        23     1
        22        46     1
        22        47     1
        22        48     1
        22        49     1
        22        50     1
        22        51     1
        23        26     1
        23        45     1
        23        56     1
        24        38     1
        24        43     1
        24        44     1
        25        33     1
        25        36     1
        25        37     1
        25        39     1
        25        55     1
        26        31     1
        26        32     1
        26        34     1
        26        35     1
        26        38     1
        27        30     1
        27        57     1
        28        30     1
        28        57     1
        29        30     1
        29        57     1
        30        31     1
        30        32     1
        31        33     1
        31        57     1
        32        33     1
        32        57     1
        33        34     1
        33        35     1
        34        36     1
        34        37     1
        35        36     1
        35        37     1
        36        38     1
        37        38     1
        38        39     1
        38        56     1
        39        43     1
        40        41     1
        41        42     1
        44        45     1
