; ITP file created by ByteFF-ML, 2026-02-21 07:38:02.542161

[ atomtypes ]
;name           bonded.type        at.num        mass        charge   ptype           sigma         epsilon
 c0bf                                   6      0.0000       0.00000       A     3.39756e-01     4.50676e-01
 c1bf                                   6      0.0000       0.00000       A     3.39622e-01     4.50998e-01
 n2bf                                   7      0.0000       0.00000       A     3.36339e-01     3.59184e-01
 c3bf                                   6      0.0000       0.00000       A     3.39783e-01     4.50818e-01
 c4bf                                   6      0.0000       0.00000       A     3.39723e-01     4.52913e-01
 o5bf                                   8      0.0000       0.00000       A     3.24501e-01     3.87337e-01
 c6bf                                   6      0.0000       0.00000       A     3.39840e-01     4.49354e-01
 c7bf                                   6      0.0000       0.00000       A     3.39785e-01     4.51977e-01
 c8bf                                   6      0.0000       0.00000       A     3.39844e-01     4.50513e-01
 c9bf                                   6      0.0000       0.00000       A     3.39938e-01     4.52179e-01
 c10bf                                  6      0.0000       0.00000       A     3.40218e-01     4.51818e-01
 c11bf                                  6      0.0000       0.00000       A     3.39362e-01     4.50344e-01
 c12bf                                  6      0.0000       0.00000       A     3.31416e-01     4.11566e-01
 c13bf                                  6      0.0000       0.00000       A     3.31559e-01     4.13032e-01
 c14bf                                  6      0.0000       0.00000       A     3.31517e-01     4.13352e-01
 c15bf                                  6      0.0000       0.00000       A     3.31506e-01     4.12855e-01
 c16bf                                  6      0.0000       0.00000       A     3.31517e-01     4.13352e-01
 c17bf                                  6      0.0000       0.00000       A     3.31559e-01     4.13032e-01
 n18bf                                  7      0.0000       0.00000       A     3.28286e-01     6.41163e-01
 c19bf                                  6      0.0000       0.00000       A     3.31454e-01     4.11042e-01
 c20bf                                  6      0.0000       0.00000       A     3.31495e-01     4.14234e-01
 c21bf                                  6      0.0000       0.00000       A     3.31494e-01     4.12775e-01
 c22bf                                  6      0.0000       0.00000       A     3.31513e-01     4.12293e-01
 c23bf                                  6      0.0000       0.00000       A     3.39867e-01     4.54080e-01
 c24bf                                  6      0.0000       0.00000       A     3.39772e-01     4.50374e-01
 c25bf                                  6      0.0000       0.00000       A     3.39772e-01     4.50374e-01
 c26bf                                  6      0.0000       0.00000       A     3.39772e-01     4.50374e-01
 c27bf                                  6      0.0000       0.00000       A     3.31271e-01     4.12345e-01
 c28bf                                  6      0.0000       0.00000       A     3.31283e-01     4.09290e-01
 c29bf                                  6      0.0000       0.00000       A     3.39738e-01     4.51731e-01
 o30bf                                  8      0.0000       0.00000       A     3.15764e-01     3.04658e-01
 h31bf                                  1      0.0000       0.00000       A     2.60045e-01     8.75620e-02
 h32bf                                  1      0.0000       0.00000       A     2.60045e-01     8.75620e-02
 h33bf                                  1      0.0000       0.00000       A     2.60045e-01     8.75620e-02
 h34bf                                  1      0.0000       0.00000       A     2.42110e-01     8.69842e-02
 h35bf                                  1      0.0000       0.00000       A     2.42110e-01     8.69842e-02
 h36bf                                  1      0.0000       0.00000       A     2.42108e-01     8.67512e-02
 h37bf                                  1      0.0000       0.00000       A     2.42108e-01     8.67512e-02
 h38bf                                  1      0.0000       0.00000       A     2.42012e-01     8.70384e-02
 h39bf                                  1      0.0000       0.00000       A     2.42012e-01     8.70384e-02
 h40bf                                  1      0.0000       0.00000       A     5.36358e-02     2.03467e-02
 h41bf                                  1      0.0000       0.00000       A     2.41938e-01     8.70831e-02
 h42bf                                  1      0.0000       0.00000       A     2.41938e-01     8.70831e-02
 h43bf                                  1      0.0000       0.00000       A     2.42738e-01     8.71534e-02
 h44bf                                  1      0.0000       0.00000       A     2.59821e-01     8.71677e-02
 h45bf                                  1      0.0000       0.00000       A     2.59821e-01     8.71677e-02
 h46bf                                  1      0.0000       0.00000       A     2.60017e-01     8.63234e-02
 h47bf                                  1      0.0000       0.00000       A     2.60017e-01     8.63234e-02
 h48bf                                  1      0.0000       0.00000       A     2.59608e-01     8.66043e-02
 h49bf                                  1      0.0000       0.00000       A     2.42675e-01     8.80520e-02
 h50bf                                  1      0.0000       0.00000       A     2.62512e-01     6.76287e-02
 h51bf                                  1      0.0000       0.00000       A     2.62458e-01     6.72647e-02
 h52bf                                  1      0.0000       0.00000       A     2.62457e-01     6.73477e-02
 h53bf                                  1      0.0000       0.00000       A     2.62458e-01     6.72647e-02
 h54bf                                  1      0.0000       0.00000       A     2.62512e-01     6.76287e-02
 h55bf                                  1      0.0000       0.00000       A     1.10887e-01     4.11451e-02
 h56bf                                  1      0.0000       0.00000       A     2.62406e-01     6.70142e-02
 h57bf                                  1      0.0000       0.00000       A     2.62486e-01     6.76526e-02
 h58bf                                  1      0.0000       0.00000       A     2.59968e-01     8.75795e-02
 h59bf                                  1      0.0000       0.00000       A     2.59968e-01     8.75795e-02
 h60bf                                  1      0.0000       0.00000       A     2.59968e-01     8.75795e-02
 h61bf                                  1      0.0000       0.00000       A     2.59968e-01     8.75795e-02
 h62bf                                  1      0.0000       0.00000       A     2.59968e-01     8.75795e-02
 h63bf                                  1      0.0000       0.00000       A     2.59968e-01     8.75795e-02
 h64bf                                  1      0.0000       0.00000       A     2.59968e-01     8.75795e-02
 h65bf                                  1      0.0000       0.00000       A     2.59968e-01     8.75795e-02
 h66bf                                  1      0.0000       0.00000       A     2.59968e-01     8.75795e-02
 h67bf                                  1      0.0000       0.00000       A     2.62333e-01     6.71626e-02
 h68bf                                  1      0.0000       0.00000       A     2.42774e-01     8.84398e-02

[ moleculetype ]
;name             nrexcl
 CHEMBL1084935_1       3

[ atoms ]
;       nr            type      resi   res      atom      cgnr      charge          mass ; qtot
         1            c0bf         1   UNL        c0         1    -0.10425       12.0110 ; qtot   -0.104
         2            c1bf         1   UNL        c1         2     0.16758       12.0110 ; qtot    0.063
         3            n2bf         1   UNL        n2         3    -0.73848       14.0070 ; qtot   -0.675
         4            c3bf         1   UNL        c3         4     0.14787       12.0110 ; qtot   -0.527
         5            c4bf         1   UNL        c4         5     0.14860       12.0110 ; qtot   -0.379
         6            o5bf         1   UNL        o5         6    -0.66846       15.9990 ; qtot   -1.047
         7            c6bf         1   UNL        c6         7     0.17223       12.0110 ; qtot   -0.875
         8            c7bf         1   UNL        c7         8     0.16497       12.0110 ; qtot   -0.710
         9            c8bf         1   UNL        c8         9    -0.10185       12.0110 ; qtot   -0.812
        10            c9bf         1   UNL        c9        10    -0.06679       12.0110 ; qtot   -0.879
        11           c10bf         1   UNL       c10        11    -0.09765       12.0110 ; qtot   -0.976
        12           c11bf         1   UNL       c11        12     0.26107       12.0110 ; qtot   -0.715
        13           c12bf         1   UNL       c12        13    -0.10768       12.0110 ; qtot   -0.823
        14           c13bf         1   UNL       c13        14    -0.09640       12.0110 ; qtot   -0.919
        15           c14bf         1   UNL       c14        15    -0.11334       12.0110 ; qtot   -1.033
        16           c15bf         1   UNL       c15        16    -0.10684       12.0110 ; qtot   -1.139
        17           c16bf         1   UNL       c16        17    -0.11334       12.0110 ; qtot   -1.253
        18           c17bf         1   UNL       c17        18    -0.09640       12.0110 ; qtot   -1.349
        19           n18bf         1   UNL       n18        19    -0.92305       14.0070 ; qtot   -2.272
        20           c19bf         1   UNL       c19        20     0.29034       12.0110 ; qtot   -1.982
        21           c20bf         1   UNL       c20        21    -0.17114       12.0110 ; qtot   -2.153
        22           c21bf         1   UNL       c21        22    -0.07284       12.0110 ; qtot   -2.226
        23           c22bf         1   UNL       c22        23    -0.10900       12.0110 ; qtot   -2.335
        24           c23bf         1   UNL       c23        24     0.00063       12.0110 ; qtot   -2.334
        25           c24bf         1   UNL       c24        25    -0.08750       12.0110 ; qtot   -2.422
        26           c25bf         1   UNL       c25        26    -0.08750       12.0110 ; qtot   -2.509
        27           c26bf         1   UNL       c26        27    -0.08750       12.0110 ; qtot   -2.597
        28           c27bf         1   UNL       c27        28    -0.05217       12.0110 ; qtot   -2.649
        29           c28bf         1   UNL       c28        29    -0.15727       12.0110 ; qtot   -2.806
        30           c29bf         1   UNL       c29        30     0.22867       12.0110 ; qtot   -2.577
        31           o30bf         1   UNL       o30        31    -0.45708       15.9990 ; qtot   -3.035
        32           h31bf         1   UNL       h31        32     0.03810        1.0080 ; qtot   -2.996
        33           h32bf         1   UNL       h32        33     0.03810        1.0080 ; qtot   -2.958
        34           h33bf         1   UNL       h33        34     0.03810        1.0080 ; qtot   -2.920
        35           h34bf         1   UNL       h34        35     0.03552        1.0080 ; qtot   -2.885
        36           h35bf         1   UNL       h35        36     0.03552        1.0080 ; qtot   -2.849
        37           h36bf         1   UNL       h36        37     0.04397        1.0080 ; qtot   -2.805
        38           h37bf         1   UNL       h37        38     0.04397        1.0080 ; qtot   -2.761
        39           h38bf         1   UNL       h38        39     0.04033        1.0080 ; qtot   -2.721
        40           h39bf         1   UNL       h39        40     0.04033        1.0080 ; qtot   -2.681
        41           h40bf         1   UNL       h40        41     0.44871        1.0080 ; qtot   -2.232
        42           h41bf         1   UNL       h41        42     0.04275        1.0080 ; qtot   -2.189
        43           h42bf         1   UNL       h42        43     0.04275        1.0080 ; qtot   -2.146
        44           h43bf         1   UNL       h43        44     0.05126        1.0080 ; qtot   -2.095
        45           h44bf         1   UNL       h44        45     0.05178        1.0080 ; qtot   -2.043
        46           h45bf         1   UNL       h45        46     0.05178        1.0080 ; qtot   -1.992
        47           h46bf         1   UNL       h46        47     0.04867        1.0080 ; qtot   -1.943
        48           h47bf         1   UNL       h47        48     0.04867        1.0080 ; qtot   -1.894
        49           h48bf         1   UNL       h48        49     0.06779        1.0080 ; qtot   -1.826
        50           h49bf         1   UNL       h49        50     0.05590        1.0080 ; qtot   -1.771
        51           h50bf         1   UNL       h50        51     0.11749        1.0080 ; qtot   -1.653
        52           h51bf         1   UNL       h51        52     0.11433        1.0080 ; qtot   -1.539
        53           h52bf         1   UNL       h52        53     0.11376        1.0080 ; qtot   -1.425
        54           h53bf         1   UNL       h53        54     0.11433        1.0080 ; qtot   -1.311
        55           h54bf         1   UNL       h54        55     0.11749        1.0080 ; qtot   -1.193
        56           h55bf         1   UNL       h55        56     0.45777        1.0080 ; qtot   -0.735
        57           h56bf         1   UNL       h56        57     0.11606        1.0080 ; qtot   -0.619
        58           h57bf         1   UNL       h57        58     0.11563        1.0080 ; qtot   -0.504
        59           h58bf         1   UNL       h58        59     0.03657        1.0080 ; qtot   -0.467
        60           h59bf         1   UNL       h59        60     0.03657        1.0080 ; qtot   -0.431
        61           h60bf         1   UNL       h60        61     0.03657        1.0080 ; qtot   -0.394
        62           h61bf         1   UNL       h61        62     0.03657        1.0080 ; qtot   -0.357
        63           h62bf         1   UNL       h62        63     0.03657        1.0080 ; qtot   -0.321
        64           h63bf         1   UNL       h63        64     0.03657        1.0080 ; qtot   -0.284
        65           h64bf         1   UNL       h64        65     0.03657        1.0080 ; qtot   -0.248
        66           h65bf         1   UNL       h65        66     0.03657        1.0080 ; qtot   -0.211
        67           h66bf         1   UNL       h66        67     0.03657        1.0080 ; qtot   -0.175
        68           h67bf         1   UNL       h67        68     0.11995        1.0080 ; qtot   -0.055
        69           h68bf         1   UNL       h68        69     0.05463        1.0080 ; qtot    0.000

[ bonds ]
;       ai        aj funct               r               k
         1         2     1        0.153371   187128.276367
         1        32     1        0.109405   299884.548193
         1        33     1        0.109405   299884.548193
         1        34     1        0.109405   299884.548193
         2         3     1        0.146741   189340.607227
         2        35     1        0.109836   284393.456738
         2        36     1        0.109836   284393.456738
         3         4     1        0.146388   192752.799170
         3         7     1        0.146430   191706.339502
         4         5     1        0.153274   180060.038623
         4        37     1        0.109828   285128.108301
         4        38     1        0.109828   285128.108301
         5         6     1        0.143046   209485.326123
         5        39     1        0.109687   289940.806396
         5        40     1        0.109687   289940.806396
         6        41     1        0.097061   468688.390820
         7         8     1        0.153476   173977.852515
         7        42     1        0.109808   285475.336377
         7        43     1        0.109808   285475.336377
         8         9     1        0.153497   174641.242773
         8        31     1        0.143767   176635.486719
         8        44     1        0.109836   286524.988184
         9        10     1        0.153614   184098.221729
         9        45     1        0.109500   296275.873730
         9        46     1        0.109500   296275.873730
        10        11     1        0.153644   177808.316772
        10        47     1        0.109464   296701.219824
        10        48     1        0.109464   296701.219824
        11        12     1        0.154231   162728.360010
        11        30     1        0.153712   167978.432178
        11        49     1        0.109661   296507.444238
        12        13     1        0.152011   180470.777490
        12        19     1        0.146639   193821.552734
        12        50     1        0.109903   282326.764014
        13        14     1        0.140235   288447.651611
        13        18     1        0.140235   288447.651611
        14        15     1        0.139815   313021.067090
        14        51     1        0.108668   316228.272656
        15        16     1        0.139918   306554.100586
        15        52     1        0.108647   318864.672754
        16        17     1        0.139918   306554.100586
        16        53     1        0.108625   319984.475000
        17        18     1        0.139815   313021.067090
        17        54     1        0.108647   318864.672754
        18        55     1        0.108668   316228.272656
        19        20     1        0.140120   267840.276904
        19        56     1        0.101355   410549.688281
        20        21     1        0.140519   280318.270361
        20        29     1        0.140980   267415.773535
        21        22     1        0.139232   329254.803223
        21        57     1        0.108692   314821.944043
        22        23     1        0.140490   282236.796777
        22        58     1        0.108572   318246.879004
        23        24     1        0.153459   164414.179517
        23        28     1        0.140242   281430.079492
        24        25     1        0.154414   170954.565210
        24        26     1        0.154414   170954.565210
        24        27     1        0.154414   170954.565210
        25        59     1        0.109415   298687.904785
        25        60     1        0.109415   298687.904785
        25        61     1        0.109415   298687.904785
        26        62     1        0.109415   298687.904785
        26        63     1        0.109415   298687.904785
        26        64     1        0.109415   298687.904785
        27        65     1        0.109415   298687.904785
        27        66     1        0.109415   298687.904785
        27        67     1        0.109415   298687.904785
        28        29     1        0.139680   302581.496777
        28        68     1        0.108557   317207.927246
        29        30     1        0.151141   191241.768408
        30        31     1        0.143295   182338.408447
        30        69     1        0.110020   279291.065674

[ angles ]
;       ai        aj        ak funct           theta             cth
         1         2         3     1      114.213173      586.679464
         1         2        35     1      109.022850      493.372548
         1         2        36     1      109.022850      493.372548
         2         1        32     1      110.910118      517.877192
         2         1        33     1      110.910118      517.877192
         2         1        34     1      110.910118      517.877192
         2         3         4     1      113.473831      602.427050
         2         3         7     1      113.514076      599.766211
         3         2        35     1      108.876869      470.167296
         3         2        36     1      108.876869      470.167296
         3         4         5     1      113.894180      546.585947
         3         4        37     1      109.561386      475.467076
         3         4        38     1      109.561386      475.467076
         3         7         8     1      114.412720      513.755758
         3         7        42     1      109.489822      467.388092
         3         7        43     1      109.489822      467.388092
         4         3         7     1      113.766747      590.543037
         4         5         6     1      110.984695      629.667229
         4         5        39     1      109.762650      496.604652
         4         5        40     1      109.762650      496.604652
         5         4        37     1      108.291428      486.508684
         5         4        38     1      108.291428      486.508684
         5         6        41     1      107.556320      590.182389
         6         5        39     1      109.083511      484.285295
         6         5        40     1      109.083511      484.285295
         7         8         9     1      113.352562      603.694903
         7         8        31     1      108.007179      625.606956
         7         8        44     1      108.375366      497.209467
         8         7        42     1      107.855530      488.231226
         8         7        43     1      107.855530      488.231226
         8         9        10     1      110.833374      656.453997
         8         9        45     1      109.196449      481.582384
         8         9        46     1      109.196449      481.582384
         8        31        30     1      113.809021      588.483660
         9         8        31     1      110.797012      559.159781
         9         8        44     1      108.976906      475.827532
         9        10        11     1      110.760391      628.457025
         9        10        47     1      109.851784      507.985361
         9        10        48     1      109.851784      507.985361
        10         9        45     1      110.383423      506.176599
        10         9        46     1      110.383423      506.176599
        10        11        12     1      113.390907      594.475624
        10        11        30     1      109.946129      599.778149
        10        11        49     1      108.811119      484.857167
        11        10        47     1      109.615433      494.102047
        11        10        48     1      109.615433      494.102047
        11        12        13     1      112.832138      539.061693
        11        12        19     1      108.654358      596.888945
        11        12        50     1      107.204910      478.962851
        11        30        29     1      111.962601      576.088203
        11        30        31     1      111.125168      582.316065
        11        30        69     1      108.313766      468.104983
        12        11        30     1      109.536171      678.085908
        12        11        49     1      107.115433      495.353525
        12        13        14     1      120.675819      480.145730
        12        13        18     1      120.675819      480.145730
        12        19        20     1      118.392113      536.379083
        12        19        56     1      113.211632      469.750626
        13        12        19     1      111.192749      590.960696
        13        12        50     1      107.631065      485.386711
        13        14        15     1      120.662560      709.918234
        13        14        51     1      119.614586      400.532036
        13        18        17     1      120.662560      709.918234
        13        18        55     1      119.614586      400.532036
        14        13        18     1      118.740906      679.590873
        14        15        16     1      120.153175      705.714570
        14        15        52     1      119.816528      429.696915
        15        14        51     1      119.686012      431.264766
        15        16        17     1      119.511429      689.005895
        15        16        53     1      120.255775      430.416551
        16        15        52     1      120.079079      431.521669
        16        17        18     1      120.153175      705.714570
        16        17        54     1      120.079079      431.521669
        17        16        53     1      120.255775      430.416551
        17        18        55     1      119.686012      431.264766
        18        17        54     1      119.816528      429.696915
        19        12        50     1      109.216263      441.919263
        19        20        21     1      120.154091      539.485098
        19        20        29     1      120.465164      574.772276
        20        19        56     1      113.638138      488.207987
        20        21        22     1      120.841492      766.110728
        20        21        57     1      119.252686      422.216681
        20        29        28     1      119.200928      766.801123
        20        29        30     1      120.084213      559.855539
        21        20        29     1      118.727333      649.531142
        21        22        23     1      121.554367      682.328132
        21        22        58     1      118.573975      426.395765
        22        21        57     1      119.752075      440.364053
        22        23        24     1      121.634232      520.073000
        22        23        28     1      116.841629      645.210391
        23        22        58     1      119.969864      408.296498
        23        24        25     1      110.375267      651.238617
        23        24        26     1      110.375267      651.238617
        23        24        27     1      110.375267      651.238617
        23        28        29     1      122.749001      676.762128
        23        28        68     1      119.777512      396.482042
        24        23        28     1      121.651917      457.842672
        24        25        59     1      111.037216      474.616371
        24        25        60     1      111.037216      474.616371
        24        25        61     1      111.037216      474.616371
        24        26        62     1      111.037216      474.616371
        24        26        63     1      111.037216      474.616371
        24        26        64     1      111.037216      474.616371
        24        27        65     1      111.037216      474.616371
        24        27        66     1      111.037216      474.616371
        24        27        67     1      111.037216      474.616371
        25        24        26     1      108.597389      558.465044
        25        24        27     1      108.597389      558.465044
        26        24        27     1      108.597389      558.465044
        28        29        30     1      120.735252      469.545818
        29        28        68     1      117.893570      403.193258
        29        30        31     1      109.830894      614.848108
        29        30        69     1      108.631836      460.833131
        30        11        49     1      107.249771      504.973163
        31         8        44     1      107.131454      464.226758
        31        30        69     1      107.330772      474.094712
        32         1        33     1      108.040039      363.918301
        32         1        34     1      108.040039      363.918301
        33         1        34     1      108.040039      363.918301
        35         2        36     1      106.244888      351.254672
        37         4        38     1      106.713074      349.614008
        39         5        40     1      107.763184      341.886830
        42         7        43     1      106.675537      351.880778
        45         9        46     1      107.033180      358.063791
        47        10        48     1      106.517052      361.462844
        59        25        60     1      107.883362      362.487840
        59        25        61     1      107.883362      362.487840
        60        25        61     1      107.883362      362.487840
        62        26        63     1      107.883377      362.487840
        62        26        64     1      107.883377      362.487840
        63        26        64     1      107.883377      362.487840
        65        27        66     1      107.883377      362.487840
        65        27        67     1      107.883377      362.487840
        66        27        67     1      107.883377      362.487840

[ dihedrals ] ; propers for gromacs 4.5 or higher, use funct 9
;       ai        aj        ak        al funct           phase               k        pn
         1         2         3         4     9        0.000000        2.740974         1
         1         2         3         4     9      180.000000       -0.243540         2
         1         2         3         4     9        0.000000        0.877539         3
         1         2         3         4     9      180.000000        0.052137         4
         1         2         3         7     9        0.000000        2.492763         1
         1         2         3         7     9      180.000000       -0.318508         2
         1         2         3         7     9        0.000000        0.842440         3
         1         2         3         7     9      180.000000        0.049381         4
         2         3         4         5     9        0.000000        2.829748         1
         2         3         4         5     9      180.000000       -0.583165         2
         2         3         4         5     9        0.000000        0.744029         3
         2         3         4         5     9      180.000000       -0.020054         4
         2         3         4        37     9        0.000000       -0.315274         1
         2         3         4        37     9      180.000000        0.191984         2
         2         3         4        37     9        0.000000        0.984657         3
         2         3         4        37     9      180.000000        0.045519         4
         2         3         4        38     9        0.000000       -0.315274         1
         2         3         4        38     9      180.000000        0.191984         2
         2         3         4        38     9        0.000000        0.984657         3
         2         3         4        38     9      180.000000        0.045519         4
         2         3         7         8     9        0.000000        4.699791         1
         2         3         7         8     9      180.000000       -1.566847         2
         2         3         7         8     9        0.000000        0.638615         3
         2         3         7         8     9      180.000000        0.084939         4
         2         3         7        42     9        0.000000       -0.407456         1
         2         3         7        42     9      180.000000        0.331462         2
         2         3         7        42     9        0.000000        1.022290         3
         2         3         7        42     9      180.000000        0.034658         4
         2         3         7        43     9        0.000000       -0.407456         1
         2         3         7        43     9      180.000000        0.331462         2
         2         3         7        43     9        0.000000        1.022290         3
         2         3         7        43     9      180.000000        0.034658         4
         3         2         1        32     9        0.000000        0.023526         1
         3         2         1        32     9      180.000000        0.058301         2
         3         2         1        32     9        0.000000        0.456774         3
         3         2         1        32     9      180.000000        0.136879         4
         3         2         1        33     9        0.000000        0.023526         1
         3         2         1        33     9      180.000000        0.058301         2
         3         2         1        33     9        0.000000        0.456774         3
         3         2         1        33     9      180.000000        0.136879         4
         3         2         1        34     9        0.000000        0.023526         1
         3         2         1        34     9      180.000000        0.058301         2
         3         2         1        34     9        0.000000        0.456774         3
         3         2         1        34     9      180.000000        0.136879         4
         3         4         5         6     9        0.000000       -2.228789         1
         3         4         5         6     9      180.000000       -0.895010         2
         3         4         5         6     9        0.000000        0.826014         3
         3         4         5         6     9      180.000000       -0.128135         4
         3         4         5        39     9        0.000000       -0.033251         1
         3         4         5        39     9      180.000000        0.189607         2
         3         4         5        39     9        0.000000        0.681464         3
         3         4         5        39     9      180.000000        0.152373         4
         3         4         5        40     9        0.000000       -0.033251         1
         3         4         5        40     9      180.000000        0.189607         2
         3         4         5        40     9        0.000000        0.681464         3
         3         4         5        40     9      180.000000        0.152373         4
         3         7         8         9     9        0.000000        1.270290         1
         3         7         8         9     9      180.000000        0.343675         2
         3         7         8         9     9        0.000000        0.747868         3
         3         7         8         9     9      180.000000       -0.085864         4
         3         7         8        31     9        0.000000       -3.484480         1
         3         7         8        31     9      180.000000       -0.541192         2
         3         7         8        31     9        0.000000        0.544130         3
         3         7         8        31     9      180.000000       -0.030353         4
         3         7         8        44     9        0.000000       -0.014382         1
         3         7         8        44     9      180.000000        0.151491         2
         3         7         8        44     9        0.000000        0.645156         3
         3         7         8        44     9      180.000000        0.130931         4
         4         3         2        35     9        0.000000       -0.249681         1
         4         3         2        35     9      180.000000        0.207627         2
         4         3         2        35     9        0.000000        1.045188         3
         4         3         2        35     9      180.000000        0.040303         4
         4         3         2        36     9        0.000000       -0.249681         1
         4         3         2        36     9      180.000000        0.207627         2
         4         3         2        36     9        0.000000        1.045188         3
         4         3         2        36     9      180.000000        0.040303         4
         4         3         7         8     9        0.000000        4.814350         1
         4         3         7         8     9      180.000000       -1.704739         2
         4         3         7         8     9        0.000000        0.554426         3
         4         3         7         8     9      180.000000        0.066144         4
         4         3         7        42     9        0.000000       -0.416238         1
         4         3         7        42     9      180.000000        0.296022         2
         4         3         7        42     9        0.000000        0.986477         3
         4         3         7        42     9      180.000000        0.012271         4
         4         3         7        43     9        0.000000       -0.416238         1
         4         3         7        43     9      180.000000        0.296022         2
         4         3         7        43     9        0.000000        0.986477         3
         4         3         7        43     9      180.000000        0.012271         4
         4         5         6        41     9        0.000000        8.900650         1
         4         5         6        41     9      180.000000       -3.404844         2
         4         5         6        41     9        0.000000        1.855264         3
         4         5         6        41     9      180.000000       -0.010909         4
         5         4         3         7     9        0.000000        2.567846         1
         5         4         3         7     9      180.000000       -0.698552         2
         5         4         3         7     9        0.000000        0.607533         3
         5         4         3         7     9      180.000000       -0.046116         4
         6         5         4        37     9        0.000000        0.454245         1
         6         5         4        37     9      180.000000        0.110162         2
         6         5         4        37     9        0.000000        0.717000         3
         6         5         4        37     9      180.000000        0.040841         4
         6         5         4        38     9        0.000000        0.454245         1
         6         5         4        38     9      180.000000        0.110162         2
         6         5         4        38     9        0.000000        0.717000         3
         6         5         4        38     9      180.000000        0.040841         4
         7         3         2        35     9        0.000000       -0.261287         1
         7         3         2        35     9      180.000000        0.109181         2
         7         3         2        35     9        0.000000        0.951625         3
         7         3         2        35     9      180.000000        0.032411         4
         7         3         2        36     9        0.000000       -0.261287         1
         7         3         2        36     9      180.000000        0.109181         2
         7         3         2        36     9        0.000000        0.951625         3
         7         3         2        36     9      180.000000        0.032411         4
         7         3         4        37     9        0.000000       -0.412439         1
         7         3         4        37     9      180.000000        0.092253         2
         7         3         4        37     9        0.000000        0.856684         3
         7         3         4        37     9      180.000000        0.008566         4
         7         3         4        38     9        0.000000       -0.412439         1
         7         3         4        38     9      180.000000        0.092253         2
         7         3         4        38     9        0.000000        0.856684         3
         7         3         4        38     9      180.000000        0.008566         4
         7         8         9        10     9        0.000000       -0.222871         1
         7         8         9        10     9      180.000000        0.355312         2
         7         8         9        10     9        0.000000        0.249522         3
         7         8         9        10     9      180.000000        0.004947         4
         7         8         9        45     9        0.000000       -0.031931         1
         7         8         9        45     9      180.000000       -0.019804         2
         7         8         9        45     9        0.000000        0.308538         3
         7         8         9        45     9      180.000000       -0.004699         4
         7         8         9        46     9        0.000000       -0.031931         1
         7         8         9        46     9      180.000000       -0.019804         2
         7         8         9        46     9        0.000000        0.308538         3
         7         8         9        46     9      180.000000       -0.004699         4
         7         8        31        30     9        0.000000        0.940435         1
         7         8        31        30     9      180.000000       -0.397598         2
         7         8        31        30     9        0.000000        0.268017         3
         7         8        31        30     9      180.000000        0.106132         4
         8         9        10        11     9        0.000000        0.737766         1
         8         9        10        11     9      180.000000       -1.230215         2
         8         9        10        11     9        0.000000        0.086480         3
         8         9        10        11     9      180.000000        0.153671         4
         8         9        10        47     9        0.000000       -0.044130         1
         8         9        10        47     9      180.000000        0.033007         2
         8         9        10        47     9        0.000000        0.168281         3
         8         9        10        47     9      180.000000       -0.000034         4
         8         9        10        48     9        0.000000       -0.044130         1
         8         9        10        48     9      180.000000        0.033007         2
         8         9        10        48     9        0.000000        0.168281         3
         8         9        10        48     9      180.000000       -0.000034         4
         8        31        30        11     9        0.000000        6.161649         1
         8        31        30        11     9      180.000000       -3.100808         2
         8        31        30        11     9        0.000000       -0.021908         3
         8        31        30        11     9      180.000000        0.168340         4
         8        31        30        29     9        0.000000        0.288258         1
         8        31        30        29     9      180.000000       -0.973913         2
         8        31        30        29     9        0.000000        0.682806         3
         8        31        30        29     9      180.000000        0.100113         4
         8        31        30        69     9        0.000000       -0.080585         1
         8        31        30        69     9      180.000000        0.216468         2
         8        31        30        69     9        0.000000        0.589257         3
         8        31        30        69     9      180.000000        0.050740         4
         9         8         7        42     9        0.000000       -0.355861         1
         9         8         7        42     9      180.000000        0.028422         2
         9         8         7        42     9        0.000000        0.601400         3
         9         8         7        42     9      180.000000        0.074438         4
         9         8         7        43     9        0.000000       -0.355861         1
         9         8         7        43     9      180.000000        0.028422         2
         9         8         7        43     9        0.000000        0.601400         3
         9         8         7        43     9      180.000000        0.074438         4
         9         8        31        30     9        0.000000        4.794459         1
         9         8        31        30     9      180.000000       -2.010606         2
         9         8        31        30     9        0.000000        0.039405         3
         9         8        31        30     9      180.000000        0.216707         4
         9        10        11        12     9        0.000000        0.241902         1
         9        10        11        12     9      180.000000       -0.412685         2
         9        10        11        12     9        0.000000        0.342179         3
         9        10        11        12     9      180.000000        0.012911         4
         9        10        11        30     9        0.000000        0.849445         1
         9        10        11        30     9      180.000000       -0.949029         2
         9        10        11        30     9        0.000000        0.111136         3
         9        10        11        30     9      180.000000        0.075647         4
         9        10        11        49     9        0.000000       -0.845886         1
         9        10        11        49     9      180.000000       -0.011644         2
         9        10        11        49     9        0.000000        0.204550         3
         9        10        11        49     9      180.000000        0.137974         4
        10         9         8        31     9        0.000000       -0.305185         1
        10         9         8        31     9      180.000000       -0.429103         2
        10         9         8        31     9        0.000000        0.209308         3
        10         9         8        31     9      180.000000        0.008882         4
        10         9         8        44     9        0.000000       -0.139606         1
        10         9         8        44     9      180.000000        0.007555         2
        10         9         8        44     9        0.000000        0.441335         3
        10         9         8        44     9      180.000000        0.032098         4
        10        11        12        13     9        0.000000        1.303541         1
        10        11        12        13     9      180.000000       -0.496284         2
        10        11        12        13     9        0.000000        0.900889         3
        10        11        12        13     9      180.000000        0.115170         4
        10        11        12        19     9        0.000000       -1.975380         1
        10        11        12        19     9      180.000000        0.761714         2
        10        11        12        19     9        0.000000        0.324624         3
        10        11        12        19     9      180.000000       -0.110841         4
        10        11        12        50     9        0.000000       -0.246554         1
        10        11        12        50     9      180.000000        0.175431         2
        10        11        12        50     9        0.000000        0.515931         3
        10        11        12        50     9      180.000000       -0.011084         4
        10        11        30        29     9        0.000000        0.352663         1
        10        11        30        29     9      180.000000       -1.247164         2
        10        11        30        29     9        0.000000        0.339521         3
        10        11        30        29     9      180.000000       -0.000908         4
        10        11        30        31     9        0.000000       -0.298908         1
        10        11        30        31     9      180.000000       -1.390930         2
        10        11        30        31     9        0.000000        0.279885         3
        10        11        30        31     9      180.000000        0.120904         4
        10        11        30        69     9        0.000000       -0.100620         1
        10        11        30        69     9      180.000000        0.200569         2
        10        11        30        69     9        0.000000        0.270608         3
        10        11        30        69     9      180.000000        0.098303         4
        11        10         9        45     9        0.000000       -0.044875         1
        11        10         9        45     9      180.000000        0.015158         2
        11        10         9        45     9        0.000000        0.182646         3
        11        10         9        45     9      180.000000        0.007207         4
        11        10         9        46     9        0.000000       -0.044875         1
        11        10         9        46     9      180.000000        0.015158         2
        11        10         9        46     9        0.000000        0.182646         3
        11        10         9        46     9      180.000000        0.007207         4
        11        12        13        14     9        0.000000       -0.353839         1
        11        12        13        14     9      180.000000       -0.104567         2
        11        12        13        14     9        0.000000        0.105252         3
        11        12        13        14     9      180.000000        0.005143         4
        11        12        13        18     9        0.000000       -0.353839         1
        11        12        13        18     9      180.000000       -0.104567         2
        11        12        13        18     9        0.000000        0.105252         3
        11        12        13        18     9      180.000000        0.005143         4
        11        12        19        20     9        0.000000        5.940340         1
        11        12        19        20     9      180.000000       -3.136762         2
        11        12        19        20     9        0.000000       -0.048298         3
        11        12        19        20     9      180.000000        0.710953         4
        11        12        19        56     9        0.000000        3.523492         1
        11        12        19        56     9      180.000000       -3.065426         2
        11        12        19        56     9        0.000000        0.126339         3
        11        12        19        56     9      180.000000        0.382838         4
        11        30        29        20     9        0.000000        4.302117         1
        11        30        29        20     9      180.000000       -3.946845         2
        11        30        29        20     9        0.000000       -0.180668         3
        11        30        29        20     9      180.000000        0.798040         4
        11        30        29        28     9        0.000000       -0.994240         1
        11        30        29        28     9      180.000000       -0.914826         2
        11        30        29        28     9        0.000000       -0.574820         3
        11        30        29        28     9      180.000000        0.265040         4
        12        11        10        47     9        0.000000       -0.011596         1
        12        11        10        47     9      180.000000        0.032133         2
        12        11        10        47     9        0.000000        0.284175         3
        12        11        10        47     9      180.000000        0.002952         4
        12        11        10        48     9        0.000000       -0.011596         1
        12        11        10        48     9      180.000000        0.032133         2
        12        11        10        48     9        0.000000        0.284175         3
        12        11        10        48     9      180.000000        0.002952         4
        12        11        30        29     9        0.000000        1.747369         1
        12        11        30        29     9      180.000000       -2.759900         2
        12        11        30        29     9        0.000000        0.061544         3
        12        11        30        29     9      180.000000        0.162213         4
        12        11        30        31     9        0.000000        0.343197         1
        12        11        30        31     9      180.000000       -3.896146         2
        12        11        30        31     9        0.000000        0.118099         3
        12        11        30        31     9      180.000000        0.404581         4
        12        11        30        69     9        0.000000       -0.420341         1
        12        11        30        69     9      180.000000        0.124945         2
        12        11        30        69     9        0.000000        0.063006         3
        12        11        30        69     9      180.000000        0.141844         4
        12        13        14        15     9        0.000000        0.090192         1
        12        13        14        15     9      180.000000       14.679497         2
        12        13        14        15     9        0.000000       -0.138716         3
        12        13        14        15     9      180.000000       -0.078602         4
        12        13        14        51     9        0.000000       -0.040953         1
        12        13        14        51     9      180.000000       12.731300         2
        12        13        14        51     9        0.000000       -0.361223         3
        12        13        14        51     9      180.000000        0.182937         4
        12        13        18        17     9        0.000000        0.090192         1
        12        13        18        17     9      180.000000       14.679497         2
        12        13        18        17     9        0.000000       -0.138716         3
        12        13        18        17     9      180.000000       -0.078602         4
        12        13        18        55     9        0.000000       -0.040953         1
        12        13        18        55     9      180.000000       12.731300         2
        12        13        18        55     9        0.000000       -0.361223         3
        12        13        18        55     9      180.000000        0.182937         4
        12        19        20        21     9        0.000000       -0.663770         1
        12        19        20        21     9      180.000000        2.766191         2
        12        19        20        21     9        0.000000       -0.095313         3
        12        19        20        21     9      180.000000        0.422619         4
        12        19        20        29     9        0.000000        3.334633         1
        12        19        20        29     9      180.000000        0.545825         2
        12        19        20        29     9        0.000000       -0.227181         3
        12        19        20        29     9      180.000000        0.998360         4
        13        12        11        30     9        0.000000       -0.390745         1
        13        12        11        30     9      180.000000       -0.204484         2
        13        12        11        30     9        0.000000        0.350290         3
        13        12        11        30     9      180.000000        0.075818         4
        13        12        11        49     9        0.000000        0.044425         1
        13        12        11        49     9      180.000000       -0.036011         2
        13        12        11        49     9        0.000000        0.459679         3
        13        12        11        49     9      180.000000       -0.060270         4
        13        12        19        20     9        0.000000        1.082019         1
        13        12        19        20     9      180.000000       -0.660171         2
        13        12        19        20     9        0.000000        0.773072         3
        13        12        19        20     9      180.000000        0.092282         4
        13        12        19        56     9        0.000000        3.195030         1
        13        12        19        56     9      180.000000       -1.053801         2
        13        12        19        56     9        0.000000        0.110169         3
        13        12        19        56     9      180.000000       -0.141080         4
        13        14        15        16     9        0.000000        0.027332         1
        13        14        15        16     9      180.000000       18.735526         2
        13        14        15        16     9        0.000000       -1.491713         3
        13        14        15        16     9      180.000000       -0.406339         4
        13        14        15        52     9        0.000000        0.060410         1
        13        14        15        52     9      180.000000       14.990248         2
        13        14        15        52     9        0.000000       -0.580983         3
        13        14        15        52     9      180.000000        0.057213         4
        13        18        17        16     9        0.000000        0.027332         1
        13        18        17        16     9      180.000000       18.735526         2
        13        18        17        16     9        0.000000       -1.491713         3
        13        18        17        16     9      180.000000       -0.406339         4
        13        18        17        54     9        0.000000        0.060410         1
        13        18        17        54     9      180.000000       14.990248         2
        13        18        17        54     9        0.000000       -0.580983         3
        13        18        17        54     9      180.000000        0.057213         4
        14        13        12        19     9        0.000000       -0.070385         1
        14        13        12        19     9      180.000000        0.892704         2
        14        13        12        19     9        0.000000       -0.026553         3
        14        13        12        19     9      180.000000        0.262291         4
        14        13        12        50     9        0.000000        0.166577         1
        14        13        12        50     9      180.000000        0.665434         2
        14        13        12        50     9        0.000000        0.050777         3
        14        13        12        50     9      180.000000       -0.152664         4
        14        13        18        17     9        0.000000       -0.144447         1
        14        13        18        17     9      180.000000       19.062213         2
        14        13        18        17     9        0.000000       -1.504557         3
        14        13        18        17     9      180.000000       -0.477342         4
        14        13        18        55     9        0.000000       -0.069578         1
        14        13        18        55     9      180.000000       14.508781         2
        14        13        18        55     9        0.000000       -0.591210         3
        14        13        18        55     9      180.000000       -0.002966         4
        14        15        16        17     9        0.000000       -0.058929         1
        14        15        16        17     9      180.000000       18.660780         2
        14        15        16        17     9        0.000000       -1.621208         3
        14        15        16        17     9      180.000000       -0.382782         4
        14        15        16        53     9        0.000000        0.016776         1
        14        15        16        53     9      180.000000       14.282110         2
        14        15        16        53     9        0.000000       -0.780703         3
        14        15        16        53     9      180.000000        0.125907         4
        15        14        13        18     9        0.000000       -0.144447         1
        15        14        13        18     9      180.000000       19.062213         2
        15        14        13        18     9        0.000000       -1.504557         3
        15        14        13        18     9      180.000000       -0.477342         4
        15        16        17        18     9        0.000000       -0.058929         1
        15        16        17        18     9      180.000000       18.660780         2
        15        16        17        18     9        0.000000       -1.621208         3
        15        16        17        18     9      180.000000       -0.382782         4
        15        16        17        54     9        0.000000        0.010660         1
        15        16        17        54     9      180.000000       14.271862         2
        15        16        17        54     9        0.000000       -0.794146         3
        15        16        17        54     9      180.000000        0.157356         4
        16        15        14        51     9        0.000000        0.060923         1
        16        15        14        51     9      180.000000       14.800026         2
        16        15        14        51     9        0.000000       -0.680406         3
        16        15        14        51     9      180.000000        0.105081         4
        16        17        18        55     9        0.000000        0.060923         1
        16        17        18        55     9      180.000000       14.800026         2
        16        17        18        55     9        0.000000       -0.680406         3
        16        17        18        55     9      180.000000        0.105081         4
        17        16        15        52     9        0.000000        0.010660         1
        17        16        15        52     9      180.000000       14.271862         2
        17        16        15        52     9        0.000000       -0.794146         3
        17        16        15        52     9      180.000000        0.157356         4
        18        13        12        19     9        0.000000       -0.070385         1
        18        13        12        19     9      180.000000        0.892704         2
        18        13        12        19     9        0.000000       -0.026553         3
        18        13        12        19     9      180.000000        0.262291         4
        18        13        12        50     9        0.000000        0.166577         1
        18        13        12        50     9      180.000000        0.665434         2
        18        13        12        50     9        0.000000        0.050777         3
        18        13        12        50     9      180.000000       -0.152664         4
        18        13        14        51     9        0.000000       -0.069578         1
        18        13        14        51     9      180.000000       14.508781         2
        18        13        14        51     9        0.000000       -0.591210         3
        18        13        14        51     9      180.000000       -0.002966         4
        18        17        16        53     9        0.000000        0.016776         1
        18        17        16        53     9      180.000000       14.282110         2
        18        17        16        53     9        0.000000       -0.780703         3
        18        17        16        53     9      180.000000        0.125907         4
        19        12        11        30     9        0.000000       -0.209611         1
        19        12        11        30     9      180.000000       -1.727949         2
        19        12        11        30     9        0.000000       -0.219876         3
        19        12        11        30     9      180.000000        0.203053         4
        19        12        11        49     9        0.000000       -0.081846         1
        19        12        11        49     9      180.000000        0.009201         2
        19        12        11        49     9        0.000000        0.106304         3
        19        12        11        49     9      180.000000        0.240746         4
        19        20        21        22     9        0.000000        0.311214         1
        19        20        21        22     9      180.000000       18.888932         2
        19        20        21        22     9        0.000000        0.279434         3
        19        20        21        22     9      180.000000       -0.274413         4
        19        20        21        57     9        0.000000       -0.251167         1
        19        20        21        57     9      180.000000       15.379822         2
        19        20        21        57     9        0.000000       -0.154475         3
        19        20        21        57     9      180.000000        0.061062         4
        19        20        29        28     9        0.000000        0.147182         1
        19        20        29        28     9      180.000000       17.209979         2
        19        20        29        28     9        0.000000        0.123035         3
        19        20        29        28     9      180.000000       -0.529324         4
        19        20        29        30     9        0.000000       -0.149140         1
        19        20        29        30     9      180.000000       15.952588         2
        19        20        29        30     9        0.000000        0.420257         3
        19        20        29        30     9      180.000000       -0.536960         4
        20        19        12        50     9        0.000000       -0.112047         1
        20        19        12        50     9      180.000000       -0.155154         2
        20        19        12        50     9        0.000000        0.621817         3
        20        19        12        50     9      180.000000       -0.029643         4
        20        21        22        23     9        0.000000        0.042971         1
        20        21        22        23     9      180.000000       17.877932         2
        20        21        22        23     9        0.000000       -1.815753         3
        20        21        22        23     9      180.000000       -0.374703         4
        20        21        22        58     9        0.000000        0.109939         1
        20        21        22        58     9      180.000000       13.899804         2
        20        21        22        58     9        0.000000       -0.667814         3
        20        21        22        58     9      180.000000        0.187732         4
        20        29        28        23     9        0.000000        0.085880         1
        20        29        28        23     9      180.000000       18.690574         2
        20        29        28        23     9        0.000000       -1.692765         3
        20        29        28        23     9      180.000000       -0.415920         4
        20        29        28        68     9        0.000000        0.151994         1
        20        29        28        68     9      180.000000       13.982435         2
        20        29        28        68     9        0.000000       -0.253584         3
        20        29        28        68     9      180.000000        0.190681         4
        20        29        30        31     9        0.000000       -4.300863         1
        20        29        30        31     9      180.000000       -1.497572         2
        20        29        30        31     9        0.000000        0.673230         3
        20        29        30        31     9      180.000000       -0.176449         4
        20        29        30        69     9        0.000000        0.085082         1
        20        29        30        69     9      180.000000        0.405179         2
        20        29        30        69     9        0.000000        0.152460         3
        20        29        30        69     9      180.000000        0.037464         4
        21        20        19        56     9        0.000000       -0.432817         1
        21        20        19        56     9      180.000000        4.115104         2
        21        20        19        56     9        0.000000       -0.041865         3
        21        20        19        56     9      180.000000        0.279660         4
        21        20        29        28     9        0.000000       -0.003896         1
        21        20        29        28     9      180.000000       14.909950         2
        21        20        29        28     9        0.000000       -0.782506         3
        21        20        29        28     9      180.000000       -0.247489         4
        21        20        29        30     9        0.000000        0.038205         1
        21        20        29        30     9      180.000000       12.204618         2
        21        20        29        30     9        0.000000       -0.211028         3
        21        20        29        30     9      180.000000       -0.087458         4
        21        22        23        24     9        0.000000       -0.015528         1
        21        22        23        24     9      180.000000       14.441999         2
        21        22        23        24     9        0.000000       -0.038910         3
        21        22        23        24     9      180.000000       -0.170463         4
        21        22        23        28     9        0.000000       -0.093126         1
        21        22        23        28     9      180.000000       18.828223         2
        21        22        23        28     9        0.000000       -1.489035         3
        21        22        23        28     9      180.000000       -0.423210         4
        22        21        20        29     9        0.000000       -0.009935         1
        22        21        20        29     9      180.000000       17.225622         2
        22        21        20        29     9        0.000000       -0.806489         3
        22        21        20        29     9      180.000000       -0.352102         4
        22        23        24        25     9        0.000000        0.066118         1
        22        23        24        25     9      180.000000        0.256919         2
        22        23        24        25     9        0.000000        0.081785         3
        22        23        24        25     9      180.000000        0.232755         4
        22        23        24        26     9        0.000000        0.066118         1
        22        23        24        26     9      180.000000        0.256919         2
        22        23        24        26     9        0.000000        0.081785         3
        22        23        24        26     9      180.000000        0.232755         4
        22        23        24        27     9        0.000000        0.066118         1
        22        23        24        27     9      180.000000        0.256919         2
        22        23        24        27     9        0.000000        0.081785         3
        22        23        24        27     9      180.000000        0.232755         4
        22        23        28        29     9        0.000000       -0.066913         1
        22        23        28        29     9      180.000000       18.746197         2
        22        23        28        29     9        0.000000       -1.593052         3
        22        23        28        29     9      180.000000       -0.487764         4
        22        23        28        68     9        0.000000       -0.055040         1
        22        23        28        68     9      180.000000       14.417531         2
        22        23        28        68     9        0.000000       -0.625288         3
        22        23        28        68     9      180.000000        0.064387         4
        23        22        21        57     9        0.000000        0.017016         1
        23        22        21        57     9      180.000000       14.679928         2
        23        22        21        57     9        0.000000       -0.662310         3
        23        22        21        57     9      180.000000        0.174306         4
        23        24        25        59     9        0.000000       -0.010428         1
        23        24        25        59     9      180.000000        0.022823         2
        23        24        25        59     9        0.000000        0.616609         3
        23        24        25        59     9      180.000000       -0.012818         4
        23        24        25        60     9        0.000000       -0.010428         1
        23        24        25        60     9      180.000000        0.022823         2
        23        24        25        60     9        0.000000        0.616609         3
        23        24        25        60     9      180.000000       -0.012818         4
        23        24        25        61     9        0.000000       -0.010428         1
        23        24        25        61     9      180.000000        0.022823         2
        23        24        25        61     9        0.000000        0.616609         3
        23        24        25        61     9      180.000000       -0.012818         4
        23        24        26        62     9        0.000000       -0.010428         1
        23        24        26        62     9      180.000000        0.022823         2
        23        24        26        62     9        0.000000        0.616609         3
        23        24        26        62     9      180.000000       -0.012818         4
        23        24        26        63     9        0.000000       -0.010428         1
        23        24        26        63     9      180.000000        0.022823         2
        23        24        26        63     9        0.000000        0.616609         3
        23        24        26        63     9      180.000000       -0.012818         4
        23        24        26        64     9        0.000000       -0.010428         1
        23        24        26        64     9      180.000000        0.022823         2
        23        24        26        64     9        0.000000        0.616609         3
        23        24        26        64     9      180.000000       -0.012818         4
        23        24        27        65     9        0.000000       -0.010428         1
        23        24        27        65     9      180.000000        0.022823         2
        23        24        27        65     9        0.000000        0.616609         3
        23        24        27        65     9      180.000000       -0.012818         4
        23        24        27        66     9        0.000000       -0.010428         1
        23        24        27        66     9      180.000000        0.022823         2
        23        24        27        66     9        0.000000        0.616609         3
        23        24        27        66     9      180.000000       -0.012818         4
        23        24        27        67     9        0.000000       -0.010428         1
        23        24        27        67     9      180.000000        0.022823         2
        23        24        27        67     9        0.000000        0.616609         3
        23        24        27        67     9      180.000000       -0.012818         4
        23        28        29        30     9        0.000000       -0.020731         1
        23        28        29        30     9      180.000000       16.517022         2
        23        28        29        30     9        0.000000       -0.207703         3
        23        28        29        30     9      180.000000       -0.311461         4
        24        23        22        58     9        0.000000       -0.003085         1
        24        23        22        58     9      180.000000       12.620196         2
        24        23        22        58     9        0.000000       -0.269328         3
        24        23        22        58     9      180.000000        0.172534         4
        24        23        28        29     9        0.000000       -0.007416         1
        24        23        28        29     9      180.000000       14.250899         2
        24        23        28        29     9        0.000000       -0.051831         3
        24        23        28        29     9      180.000000       -0.245943         4
        24        23        28        68     9        0.000000       -0.016809         1
        24        23        28        68     9      180.000000       12.814782         2
        24        23        28        68     9        0.000000       -0.264072         3
        24        23        28        68     9      180.000000        0.141285         4
        25        24        23        28     9        0.000000       -0.084442         1
        25        24        23        28     9      180.000000        0.316334         2
        25        24        23        28     9        0.000000       -0.069832         3
        25        24        23        28     9      180.000000        0.262309         4
        25        24        26        62     9        0.000000       -0.087545         1
        25        24        26        62     9      180.000000        0.034290         2
        25        24        26        62     9        0.000000        0.537560         3
        25        24        26        62     9      180.000000        0.036946         4
        25        24        26        63     9        0.000000       -0.087545         1
        25        24        26        63     9      180.000000        0.034290         2
        25        24        26        63     9        0.000000        0.537560         3
        25        24        26        63     9      180.000000        0.036946         4
        25        24        26        64     9        0.000000       -0.087545         1
        25        24        26        64     9      180.000000        0.034290         2
        25        24        26        64     9        0.000000        0.537560         3
        25        24        26        64     9      180.000000        0.036946         4
        25        24        27        65     9        0.000000       -0.087545         1
        25        24        27        65     9      180.000000        0.034290         2
        25        24        27        65     9        0.000000        0.537560         3
        25        24        27        65     9      180.000000        0.036946         4
        25        24        27        66     9        0.000000       -0.087545         1
        25        24        27        66     9      180.000000        0.034290         2
        25        24        27        66     9        0.000000        0.537560         3
        25        24        27        66     9      180.000000        0.036946         4
        25        24        27        67     9        0.000000       -0.087545         1
        25        24        27        67     9      180.000000        0.034290         2
        25        24        27        67     9        0.000000        0.537560         3
        25        24        27        67     9      180.000000        0.036946         4
        26        24        23        28     9        0.000000       -0.084442         1
        26        24        23        28     9      180.000000        0.316334         2
        26        24        23        28     9        0.000000       -0.069832         3
        26        24        23        28     9      180.000000        0.262309         4
        26        24        25        59     9        0.000000       -0.087545         1
        26        24        25        59     9      180.000000        0.034290         2
        26        24        25        59     9        0.000000        0.537560         3
        26        24        25        59     9      180.000000        0.036946         4
        26        24        25        60     9        0.000000       -0.087545         1
        26        24        25        60     9      180.000000        0.034290         2
        26        24        25        60     9        0.000000        0.537560         3
        26        24        25        60     9      180.000000        0.036946         4
        26        24        25        61     9        0.000000       -0.087545         1
        26        24        25        61     9      180.000000        0.034290         2
        26        24        25        61     9        0.000000        0.537560         3
        26        24        25        61     9      180.000000        0.036946         4
        26        24        27        65     9        0.000000       -0.087545         1
        26        24        27        65     9      180.000000        0.034290         2
        26        24        27        65     9        0.000000        0.537560         3
        26        24        27        65     9      180.000000        0.036946         4
        26        24        27        66     9        0.000000       -0.087545         1
        26        24        27        66     9      180.000000        0.034290         2
        26        24        27        66     9        0.000000        0.537560         3
        26        24        27        66     9      180.000000        0.036946         4
        26        24        27        67     9        0.000000       -0.087545         1
        26        24        27        67     9      180.000000        0.034290         2
        26        24        27        67     9        0.000000        0.537560         3
        26        24        27        67     9      180.000000        0.036946         4
        27        24        23        28     9        0.000000       -0.084442         1
        27        24        23        28     9      180.000000        0.316334         2
        27        24        23        28     9        0.000000       -0.069832         3
        27        24        23        28     9      180.000000        0.262309         4
        27        24        25        59     9        0.000000       -0.087545         1
        27        24        25        59     9      180.000000        0.034290         2
        27        24        25        59     9        0.000000        0.537560         3
        27        24        25        59     9      180.000000        0.036946         4
        27        24        25        60     9        0.000000       -0.087545         1
        27        24        25        60     9      180.000000        0.034290         2
        27        24        25        60     9        0.000000        0.537560         3
        27        24        25        60     9      180.000000        0.036946         4
        27        24        25        61     9        0.000000       -0.087545         1
        27        24        25        61     9      180.000000        0.034290         2
        27        24        25        61     9        0.000000        0.537560         3
        27        24        25        61     9      180.000000        0.036946         4
        27        24        26        62     9        0.000000       -0.087545         1
        27        24        26        62     9      180.000000        0.034290         2
        27        24        26        62     9        0.000000        0.537560         3
        27        24        26        62     9      180.000000        0.036946         4
        27        24        26        63     9        0.000000       -0.087545         1
        27        24        26        63     9      180.000000        0.034290         2
        27        24        26        63     9        0.000000        0.537560         3
        27        24        26        63     9      180.000000        0.036946         4
        27        24        26        64     9        0.000000       -0.087545         1
        27        24        26        64     9      180.000000        0.034290         2
        27        24        26        64     9        0.000000        0.537560         3
        27        24        26        64     9      180.000000        0.036946         4
        28        23        22        58     9        0.000000       -0.000999         1
        28        23        22        58     9      180.000000       14.590486         2
        28        23        22        58     9        0.000000       -0.653741         3
        28        23        22        58     9      180.000000        0.015673         4
        28        29        30        31     9        0.000000       -0.480776         1
        28        29        30        31     9      180.000000        0.293538         2
        28        29        30        31     9        0.000000       -0.781793         3
        28        29        30        31     9      180.000000        0.178080         4
        28        29        30        69     9        0.000000        0.160988         1
        28        29        30        69     9      180.000000       -0.014059         2
        28        29        30        69     9        0.000000       -0.669012         3
        28        29        30        69     9      180.000000       -0.014408         4
        29        20        19        56     9        0.000000        6.767316         1
        29        20        19        56     9      180.000000        3.756262         2
        29        20        19        56     9        0.000000       -0.650740         3
        29        20        19        56     9      180.000000        0.452257         4
        29        20        21        57     9        0.000000        0.009545         1
        29        20        21        57     9      180.000000       12.803698         2
        29        20        21        57     9        0.000000       -0.221226         3
        29        20        21        57     9      180.000000        0.006061         4
        29        30        11        49     9        0.000000       -0.082630         1
        29        30        11        49     9      180.000000        0.046389         2
        29        30        11        49     9        0.000000        0.109437         3
        29        30        11        49     9      180.000000        0.230419         4
        30        11        10        47     9        0.000000       -0.118216         1
        30        11        10        47     9      180.000000        0.073215         2
        30        11        10        47     9        0.000000        0.150839         3
        30        11        10        47     9      180.000000        0.036023         4
        30        11        10        48     9        0.000000       -0.118216         1
        30        11        10        48     9      180.000000        0.073215         2
        30        11        10        48     9        0.000000        0.150839         3
        30        11        10        48     9      180.000000        0.036023         4
        30        11        12        50     9        0.000000       -0.125298         1
        30        11        12        50     9      180.000000       -0.032753         2
        30        11        12        50     9        0.000000        0.097338         3
        30        11        12        50     9      180.000000        0.143143         4
        30        29        28        68     9        0.000000       -0.014211         1
        30        29        28        68     9      180.000000       12.713306         2
        30        29        28        68     9        0.000000       -0.279512         3
        30        29        28        68     9      180.000000        0.176838         4
        30        31         8        44     9        0.000000       -0.464710         1
        30        31         8        44     9      180.000000        0.054401         2
        30        31         8        44     9        0.000000        0.375663         3
        30        31         8        44     9      180.000000        0.039978         4
        31         8         7        42     9        0.000000       -0.019601         1
        31         8         7        42     9      180.000000        0.056447         2
        31         8         7        42     9        0.000000        0.520468         3
        31         8         7        42     9      180.000000        0.042932         4
        31         8         7        43     9        0.000000       -0.019601         1
        31         8         7        43     9      180.000000        0.056447         2
        31         8         7        43     9        0.000000        0.520468         3
        31         8         7        43     9      180.000000        0.042932         4
        31         8         9        45     9        0.000000       -0.048357         1
        31         8         9        45     9      180.000000        0.003486         2
        31         8         9        45     9        0.000000        0.215343         3
        31         8         9        45     9      180.000000       -0.000377         4
        31         8         9        46     9        0.000000       -0.048357         1
        31         8         9        46     9      180.000000        0.003486         2
        31         8         9        46     9        0.000000        0.215343         3
        31         8         9        46     9      180.000000       -0.000377         4
        31        30        11        49     9        0.000000       -0.493472         1
        31        30        11        49     9      180.000000        0.206513         2
        31        30        11        49     9        0.000000        0.016528         3
        31        30        11        49     9      180.000000        0.222969         4
        32         1         2        35     9        0.000000       -0.022310         1
        32         1         2        35     9      180.000000        0.001188         2
        32         1         2        35     9        0.000000        0.632765         3
        32         1         2        35     9      180.000000       -0.026073         4
        32         1         2        36     9        0.000000       -0.022310         1
        32         1         2        36     9      180.000000        0.001188         2
        32         1         2        36     9        0.000000        0.632765         3
        32         1         2        36     9      180.000000       -0.026073         4
        33         1         2        35     9        0.000000       -0.022310         1
        33         1         2        35     9      180.000000        0.001188         2
        33         1         2        35     9        0.000000        0.632765         3
        33         1         2        35     9      180.000000       -0.026073         4
        33         1         2        36     9        0.000000       -0.022310         1
        33         1         2        36     9      180.000000        0.001188         2
        33         1         2        36     9        0.000000        0.632765         3
        33         1         2        36     9      180.000000       -0.026073         4
        34         1         2        35     9        0.000000       -0.022310         1
        34         1         2        35     9      180.000000        0.001188         2
        34         1         2        35     9        0.000000        0.632765         3
        34         1         2        35     9      180.000000       -0.026073         4
        34         1         2        36     9        0.000000       -0.022310         1
        34         1         2        36     9      180.000000        0.001188         2
        34         1         2        36     9        0.000000        0.632765         3
        34         1         2        36     9      180.000000       -0.026073         4
        37         4         5        39     9        0.000000       -0.032458         1
        37         4         5        39     9      180.000000        0.025279         2
        37         4         5        39     9        0.000000        0.729493         3
        37         4         5        39     9      180.000000       -0.075896         4
        37         4         5        40     9        0.000000       -0.032458         1
        37         4         5        40     9      180.000000        0.025279         2
        37         4         5        40     9        0.000000        0.729493         3
        37         4         5        40     9      180.000000       -0.075896         4
        38         4         5        39     9        0.000000       -0.032458         1
        38         4         5        39     9      180.000000        0.025279         2
        38         4         5        39     9        0.000000        0.729493         3
        38         4         5        39     9      180.000000       -0.075896         4
        38         4         5        40     9        0.000000       -0.032458         1
        38         4         5        40     9      180.000000        0.025279         2
        38         4         5        40     9        0.000000        0.729493         3
        38         4         5        40     9      180.000000       -0.075896         4
        39         5         6        41     9        0.000000       -0.251593         1
        39         5         6        41     9      180.000000        0.146635         2
        39         5         6        41     9        0.000000        0.865027         3
        39         5         6        41     9      180.000000        0.103571         4
        40         5         6        41     9        0.000000       -0.251593         1
        40         5         6        41     9      180.000000        0.146635         2
        40         5         6        41     9        0.000000        0.865027         3
        40         5         6        41     9      180.000000        0.103571         4
        42         7         8        44     9        0.000000        0.123230         1
        42         7         8        44     9      180.000000       -0.013479         2
        42         7         8        44     9        0.000000        0.699567         3
        42         7         8        44     9      180.000000       -0.142189         4
        43         7         8        44     9        0.000000        0.123230         1
        43         7         8        44     9      180.000000       -0.013479         2
        43         7         8        44     9        0.000000        0.699567         3
        43         7         8        44     9      180.000000       -0.142189         4
        44         8         9        45     9        0.000000        0.019753         1
        44         8         9        45     9      180.000000       -0.006178         2
        44         8         9        45     9        0.000000        0.474797         3
        44         8         9        45     9      180.000000       -0.063919         4
        44         8         9        46     9        0.000000        0.019753         1
        44         8         9        46     9      180.000000       -0.006178         2
        44         8         9        46     9        0.000000        0.474797         3
        44         8         9        46     9      180.000000       -0.063919         4
        45         9        10        47     9        0.000000        0.004322         1
        45         9        10        47     9      180.000000       -0.015361         2
        45         9        10        47     9        0.000000        0.281084         3
        45         9        10        47     9      180.000000        0.007740         4
        45         9        10        48     9        0.000000        0.004322         1
        45         9        10        48     9      180.000000       -0.015361         2
        45         9        10        48     9        0.000000        0.281084         3
        45         9        10        48     9      180.000000        0.007740         4
        46         9        10        47     9        0.000000        0.004322         1
        46         9        10        47     9      180.000000       -0.015361         2
        46         9        10        47     9        0.000000        0.281084         3
        46         9        10        47     9      180.000000        0.007740         4
        46         9        10        48     9        0.000000        0.004322         1
        46         9        10        48     9      180.000000       -0.015361         2
        46         9        10        48     9        0.000000        0.281084         3
        46         9        10        48     9      180.000000        0.007740         4
        47        10        11        49     9        0.000000        0.307712         1
        47        10        11        49     9      180.000000        0.073108         2
        47        10        11        49     9        0.000000        0.368973         3
        47        10        11        49     9      180.000000       -0.053939         4
        48        10        11        49     9        0.000000        0.307712         1
        48        10        11        49     9      180.000000        0.073108         2
        48        10        11        49     9        0.000000        0.368973         3
        48        10        11        49     9      180.000000       -0.053939         4
        49        11        12        50     9        0.000000        0.589952         1
        49        11        12        50     9      180.000000        0.106994         2
        49        11        12        50     9        0.000000        0.459468         3
        49        11        12        50     9      180.000000       -0.274357         4
        49        11        30        69     9        0.000000        0.101714         1
        49        11        30        69     9      180.000000        0.049917         2
        49        11        30        69     9        0.000000        0.246326         3
        49        11        30        69     9      180.000000       -0.118900         4
        50        12        19        56     9        0.000000       -0.890253         1
        50        12        19        56     9      180.000000       -0.260122         2
        50        12        19        56     9        0.000000        0.459101         3
        50        12        19        56     9      180.000000       -0.171435         4
        51        14        15        52     9        0.000000       -0.180341         1
        51        14        15        52     9      180.000000       11.789159         2
        51        14        15        52     9        0.000000       -0.659630         3
        51        14        15        52     9      180.000000        0.310085         4
        52        15        16        53     9        0.000000       -0.084558         1
        52        15        16        53     9      180.000000       11.520937         2
        52        15        16        53     9        0.000000       -0.587926         3
        52        15        16        53     9      180.000000        0.263272         4
        53        16        17        54     9        0.000000       -0.084558         1
        53        16        17        54     9      180.000000       11.520937         2
        53        16        17        54     9        0.000000       -0.587926         3
        53        16        17        54     9      180.000000        0.263272         4
        54        17        18        55     9        0.000000       -0.180341         1
        54        17        18        55     9      180.000000       11.789160         2
        54        17        18        55     9        0.000000       -0.659630         3
        54        17        18        55     9      180.000000        0.310085         4
        57        21        22        58     9        0.000000       -0.108113         1
        57        21        22        58     9      180.000000       12.008827         2
        57        21        22        58     9        0.000000       -0.736420         3
        57        21        22        58     9      180.000000        0.369129         4

[ dihedrals ] ; impropers
;       ai        aj        ak        al funct           phase               k        pn
        14        13        15        51     4      180.000000        0.182437         2
        14        15        51        13     4      180.000000        0.182437         2
        14        51        13        15     4      180.000000        0.182437         2
        15        14        16        52     4      180.000000        0.258179         2
        15        16        52        14     4      180.000000        0.258179         2
        15        52        14        16     4      180.000000        0.258179         2
        16        15        17        53     4      180.000000        0.333131         2
        16        17        53        15     4      180.000000        0.333131         2
        16        53        15        17     4      180.000000        0.333131         2
        17        16        18        54     4      180.000000        0.258179         2
        17        18        54        16     4      180.000000        0.258179         2
        17        54        16        18     4      180.000000        0.258179         2
        18        13        17        55     4      180.000000        0.182437         2
        18        17        55        13     4      180.000000        0.182437         2
        18        55        13        17     4      180.000000        0.182437         2

[ pairs ]
;       ai        aj funct
         1         4     1
         1         7     1
         2         5     1
         2         8     1
         2        37     1
         2        38     1
         2        42     1
         2        43     1
         3         6     1
         3         9     1
         3        31     1
         3        32     1
         3        33     1
         3        34     1
         3        39     1
         3        40     1
         3        44     1
         4         8     1
         4        35     1
         4        36     1
         4        41     1
         4        42     1
         4        43     1
         5         7     1
         6        37     1
         6        38     1
         7        10     1
         7        30     1
         7        35     1
         7        36     1
         7        37     1
         7        38     1
         7        45     1
         7        46     1
         8        11     1
         8        29     1
         8        47     1
         8        48     1
         8        69     1
         9        12     1
         9        30     1
         9        42     1
         9        43     1
         9        49     1
        10        13     1
        10        19     1
        10        29     1
        10        31     1
        10        44     1
        10        50     1
        10        69     1
        11        14     1
        11        18     1
        11        20     1
        11        28     1
        11        45     1
        11        46     1
        11        56     1
        12        15     1
        12        17     1
        12        21     1
        12        29     1
        12        31     1
        12        47     1
        12        48     1
        12        51     1
        12        55     1
        12        69     1
        13        16     1
        13        20     1
        13        30     1
        13        49     1
        13        52     1
        13        54     1
        13        56     1
        14        17     1
        14        19     1
        14        50     1
        14        53     1
        14        55     1
        15        18     1
        15        54     1
        16        51     1
        16        55     1
        17        52     1
        18        19     1
        18        50     1
        18        51     1
        18        53     1
        19        22     1
        19        28     1
        19        30     1
        19        49     1
        19        57     1
        20        23     1
        20        31     1
        20        50     1
        20        58     1
        20        68     1
        20        69     1
        21        24     1
        21        28     1
        21        30     1
        21        56     1
        22        25     1
        22        26     1
        22        27     1
        22        29     1
        22        68     1
        23        30     1
        23        57     1
        23        59     1
        23        60     1
        23        61     1
        23        62     1
        23        63     1
        23        64     1
        23        65     1
        23        66     1
        23        67     1
        24        29     1
        24        58     1
        24        68     1
        25        28     1
        25        62     1
        25        63     1
        25        64     1
        25        65     1
        25        66     1
        25        67     1
        26        28     1
        26        59     1
        26        60     1
        26        61     1
        26        65     1
        26        66     1
        26        67     1
        27        28     1
        27        59     1
        27        60     1
        27        61     1
        27        62     1
        27        63     1
        27        64     1
        28        31     1
        28        58     1
        28        69     1
        29        49     1
        29        56     1
        29        57     1
        30        44     1
        30        47     1
        30        48     1
        30        50     1
        30        68     1
        31        42     1
        31        43     1
        31        45     1
        31        46     1
        31        49     1
        32        35     1
        32        36     1
        33        35     1
        33        36     1
        34        35     1
        34        36     1
        37        39     1
        37        40     1
        38        39     1
        38        40     1
        39        41     1
        40        41     1
        42        44     1
        43        44     1
        44        45     1
        44        46     1
        45        47     1
        45        48     1
        46        47     1
        46        48     1
        47        49     1
        48        49     1
        49        50     1
        49        69     1
        50        56     1
        51        52     1
        52        53     1
        53        54     1
        54        55     1
        57        58     1
