; ITP file created by ByteFF-ML, 2026-02-21 07:38:21.043688

[ atomtypes ]
;name           bonded.type        at.num        mass        charge   ptype           sigma         epsilon
 c0bf                                   6      0.0000       0.00000       A     3.39709e-01     4.50232e-01
 n1bf                                   7      0.0000       0.00000       A     2.58821e-01     1.06400e+01
 c2bf                                   6      0.0000       0.00000       A     3.39709e-01     4.50232e-01
 c3bf                                   6      0.0000       0.00000       A     3.39843e-01     4.50649e-01
 c4bf                                   6      0.0000       0.00000       A     3.39431e-01     4.52524e-01
 o5bf                                   8      0.0000       0.00000       A     3.15851e-01     3.09558e-01
 c6bf                                   6      0.0000       0.00000       A     3.31237e-01     4.15142e-01
 o7bf                                   8      0.0000       0.00000       A     3.04812e-01     6.13697e-01
 n8bf                                   7      0.0000       0.00000       A     3.27057e-01     4.94285e-01
 c9bf                                   6      0.0000       0.00000       A     3.40009e-01     4.49973e-01
 c10bf                                  6      0.0000       0.00000       A     3.39826e-01     4.51833e-01
 c11bf                                  6      0.0000       0.00000       A     3.39840e-01     4.50605e-01
 c12bf                                  6      0.0000       0.00000       A     3.39938e-01     4.52179e-01
 c13bf                                  6      0.0000       0.00000       A     3.40218e-01     4.51818e-01
 c14bf                                  6      0.0000       0.00000       A     3.39362e-01     4.50344e-01
 c15bf                                  6      0.0000       0.00000       A     3.31416e-01     4.11566e-01
 c16bf                                  6      0.0000       0.00000       A     3.31559e-01     4.13032e-01
 c17bf                                  6      0.0000       0.00000       A     3.31517e-01     4.13352e-01
 c18bf                                  6      0.0000       0.00000       A     3.31506e-01     4.12855e-01
 c19bf                                  6      0.0000       0.00000       A     3.31517e-01     4.13352e-01
 c20bf                                  6      0.0000       0.00000       A     3.31559e-01     4.13032e-01
 n21bf                                  7      0.0000       0.00000       A     3.28286e-01     6.41163e-01
 c22bf                                  6      0.0000       0.00000       A     3.31454e-01     4.11042e-01
 c23bf                                  6      0.0000       0.00000       A     3.31569e-01     4.14507e-01
 c24bf                                  6      0.0000       0.00000       A     3.31508e-01     4.13091e-01
 c25bf                                  6      0.0000       0.00000       A     3.31488e-01     4.14461e-01
 c26bf                                  6      0.0000       0.00000       A     3.39788e-01     4.48602e-01
 f27bf                                  9      0.0000       0.00000       A     3.03460e-01     3.47943e-01
 f28bf                                  9      0.0000       0.00000       A     3.03460e-01     3.47943e-01
 f29bf                                  9      0.0000       0.00000       A     3.03460e-01     3.47943e-01
 c30bf                                  6      0.0000       0.00000       A     3.31217e-01     4.13522e-01
 c31bf                                  6      0.0000       0.00000       A     3.31287e-01     4.10150e-01
 c32bf                                  6      0.0000       0.00000       A     3.39738e-01     4.51731e-01
 o33bf                                  8      0.0000       0.00000       A     3.15742e-01     3.04824e-01
 h34bf                                  1      0.0000       0.00000       A     1.88202e-01     8.71518e-02
 h35bf                                  1      0.0000       0.00000       A     1.88202e-01     8.71518e-02
 h36bf                                  1      0.0000       0.00000       A     1.88202e-01     8.71518e-02
 h37bf                                  1      0.0000       0.00000       A     1.88202e-01     8.71518e-02
 h38bf                                  1      0.0000       0.00000       A     1.88202e-01     8.71518e-02
 h39bf                                  1      0.0000       0.00000       A     1.88202e-01     8.71518e-02
 h40bf                                  1      0.0000       0.00000       A     1.87608e-01     8.48790e-02
 h41bf                                  1      0.0000       0.00000       A     1.87608e-01     8.48790e-02
 h42bf                                  1      0.0000       0.00000       A     2.41847e-01     8.76274e-02
 h43bf                                  1      0.0000       0.00000       A     2.41847e-01     8.76274e-02
 h44bf                                  1      0.0000       0.00000       A     1.10573e-01     4.05992e-02
 h45bf                                  1      0.0000       0.00000       A     2.41638e-01     8.78588e-02
 h46bf                                  1      0.0000       0.00000       A     2.41638e-01     8.78588e-02
 h47bf                                  1      0.0000       0.00000       A     2.42565e-01     8.73098e-02
 h48bf                                  1      0.0000       0.00000       A     2.59821e-01     8.71677e-02
 h49bf                                  1      0.0000       0.00000       A     2.59821e-01     8.71677e-02
 h50bf                                  1      0.0000       0.00000       A     2.60017e-01     8.63234e-02
 h51bf                                  1      0.0000       0.00000       A     2.60017e-01     8.63234e-02
 h52bf                                  1      0.0000       0.00000       A     2.59608e-01     8.66043e-02
 h53bf                                  1      0.0000       0.00000       A     2.42675e-01     8.80520e-02
 h54bf                                  1      0.0000       0.00000       A     2.62512e-01     6.76287e-02
 h55bf                                  1      0.0000       0.00000       A     2.62458e-01     6.72647e-02
 h56bf                                  1      0.0000       0.00000       A     2.62457e-01     6.73477e-02
 h57bf                                  1      0.0000       0.00000       A     2.62458e-01     6.72647e-02
 h58bf                                  1      0.0000       0.00000       A     2.62512e-01     6.76287e-02
 h59bf                                  1      0.0000       0.00000       A     1.10887e-01     4.11451e-02
 h60bf                                  1      0.0000       0.00000       A     2.62406e-01     6.70142e-02
 h61bf                                  1      0.0000       0.00000       A     2.62597e-01     6.75951e-02
 h62bf                                  1      0.0000       0.00000       A     2.62549e-01     6.73222e-02
 h63bf                                  1      0.0000       0.00000       A     2.42774e-01     8.84398e-02
 h64bf                                  1      0.0000       0.00000       A     1.10894e-01     4.25416e-02

[ moleculetype ]
;name             nrexcl
 CHEMBL1084676         3

[ atoms ]
;       nr            type      resi   res      atom      cgnr      charge          mass ; qtot
         1            c0bf         1   UNL        c0         1     0.08840       12.0110 ; qtot    0.088
         2            n1bf         1   UNL        n1         2    -0.68055       14.0070 ; qtot   -0.592
         3            c2bf         1   UNL        c2         3     0.08840       12.0110 ; qtot   -0.504
         4            c3bf         1   UNL        c3         4     0.08869       12.0110 ; qtot   -0.415
         5            c4bf         1   UNL        c4         5     0.15324       12.0110 ; qtot   -0.262
         6            o5bf         1   UNL        o5         6    -0.43707       15.9990 ; qtot   -0.699
         7            c6bf         1   UNL        c6         7     0.64866       12.0110 ; qtot   -0.050
         8            o7bf         1   UNL        o7         8    -0.55621       15.9990 ; qtot   -0.606
         9            n8bf         1   UNL        n8         9    -0.47631       14.0070 ; qtot   -1.083
        10            c9bf         1   UNL        c9        10     0.10140       12.0110 ; qtot   -0.981
        11           c10bf         1   UNL       c10        11     0.14392       12.0110 ; qtot   -0.837
        12           c11bf         1   UNL       c11        12    -0.10119       12.0110 ; qtot   -0.939
        13           c12bf         1   UNL       c12        13    -0.06653       12.0110 ; qtot   -1.005
        14           c13bf         1   UNL       c13        14    -0.09765       12.0110 ; qtot   -1.103
        15           c14bf         1   UNL       c14        15     0.26107       12.0110 ; qtot   -0.842
        16           c15bf         1   UNL       c15        16    -0.10768       12.0110 ; qtot   -0.949
        17           c16bf         1   UNL       c16        17    -0.09640       12.0110 ; qtot   -1.046
        18           c17bf         1   UNL       c17        18    -0.11334       12.0110 ; qtot   -1.159
        19           c18bf         1   UNL       c18        19    -0.10684       12.0110 ; qtot   -1.266
        20           c19bf         1   UNL       c19        20    -0.11334       12.0110 ; qtot   -1.379
        21           c20bf         1   UNL       c20        21    -0.09640       12.0110 ; qtot   -1.476
        22           n21bf         1   UNL       n21        22    -0.92305       14.0070 ; qtot   -2.399
        23           c22bf         1   UNL       c22        23     0.30845       12.0110 ; qtot   -2.090
        24           c23bf         1   UNL       c23        24    -0.17966       12.0110 ; qtot   -2.270
        25           c24bf         1   UNL       c24        25    -0.01484       12.0110 ; qtot   -2.285
        26           c25bf         1   UNL       c25        26    -0.23480       12.0110 ; qtot   -2.520
        27           c26bf         1   UNL       c26        27     0.34500       12.0110 ; qtot   -2.175
        28           f27bf         1   UNL       f27        28    -0.10402       18.9980 ; qtot   -2.279
        29           f28bf         1   UNL       f28        29    -0.10402       18.9980 ; qtot   -2.383
        30           f29bf         1   UNL       f29        30    -0.10402       18.9980 ; qtot   -2.487
        31           c30bf         1   UNL       c30        31     0.01257       12.0110 ; qtot   -2.474
        32           c31bf         1   UNL       c31        32    -0.16291       12.0110 ; qtot   -2.637
        33           c32bf         1   UNL       c32        33     0.22672       12.0110 ; qtot   -2.410
        34           o33bf         1   UNL       o33        34    -0.45728       15.9990 ; qtot   -2.868
        35           h34bf         1   UNL       h34        35     0.10281        1.0080 ; qtot   -2.765
        36           h35bf         1   UNL       h35        36     0.10281        1.0080 ; qtot   -2.662
        37           h36bf         1   UNL       h36        37     0.10281        1.0080 ; qtot   -2.559
        38           h37bf         1   UNL       h37        38     0.10281        1.0080 ; qtot   -2.456
        39           h38bf         1   UNL       h38        39     0.10281        1.0080 ; qtot   -2.354
        40           h39bf         1   UNL       h39        40     0.10281        1.0080 ; qtot   -2.251
        41           h40bf         1   UNL       h40        41     0.11023        1.0080 ; qtot   -2.141
        42           h41bf         1   UNL       h41        42     0.11023        1.0080 ; qtot   -2.030
        43           h42bf         1   UNL       h42        43     0.09190        1.0080 ; qtot   -1.938
        44           h43bf         1   UNL       h43        44     0.09190        1.0080 ; qtot   -1.846
        45           h44bf         1   UNL       h44        45     0.33458        1.0080 ; qtot   -1.512
        46           h45bf         1   UNL       h45        46     0.06757        1.0080 ; qtot   -1.444
        47           h46bf         1   UNL       h46        47     0.06757        1.0080 ; qtot   -1.377
        48           h47bf         1   UNL       h47        48     0.05998        1.0080 ; qtot   -1.317
        49           h48bf         1   UNL       h48        49     0.05251        1.0080 ; qtot   -1.264
        50           h49bf         1   UNL       h49        50     0.05251        1.0080 ; qtot   -1.212
        51           h50bf         1   UNL       h50        51     0.04867        1.0080 ; qtot   -1.163
        52           h51bf         1   UNL       h51        52     0.04867        1.0080 ; qtot   -1.114
        53           h52bf         1   UNL       h52        53     0.06779        1.0080 ; qtot   -1.047
        54           h53bf         1   UNL       h53        54     0.05590        1.0080 ; qtot   -0.991
        55           h54bf         1   UNL       h54        55     0.11749        1.0080 ; qtot   -0.873
        56           h55bf         1   UNL       h55        56     0.11433        1.0080 ; qtot   -0.759
        57           h56bf         1   UNL       h56        57     0.11376        1.0080 ; qtot   -0.645
        58           h57bf         1   UNL       h57        58     0.11433        1.0080 ; qtot   -0.531
        59           h58bf         1   UNL       h58        59     0.11749        1.0080 ; qtot   -0.413
        60           h59bf         1   UNL       h59        60     0.45777        1.0080 ; qtot    0.044
        61           h60bf         1   UNL       h60        61     0.11995        1.0080 ; qtot    0.164
        62           h61bf         1   UNL       h61        62     0.13153        1.0080 ; qtot    0.296
        63           h62bf         1   UNL       h62        63     0.13526        1.0080 ; qtot    0.431
        64           h63bf         1   UNL       h63        64     0.05463        1.0080 ; qtot    0.486
        65           h64bf         1   UNL       h64        65     0.51418        1.0080 ; qtot    1.000

[ bonds ]
;       ai        aj funct               r               k
         1         2     1        0.150716   157271.143579
         1        35     1        0.108877   319054.362402
         1        36     1        0.108877   319054.362402
         1        37     1        0.108877   319054.362402
         2         3     1        0.150716   157271.143579
         2         4     1        0.151700   138196.889233
         2        65     1        0.102956   372383.354688
         3        38     1        0.108877   319054.362402
         3        39     1        0.108877   319054.362402
         3        40     1        0.108877   319054.362402
         4         5     1        0.153006   186109.486157
         4        41     1        0.109033   313345.848047
         4        42     1        0.109033   313345.848047
         5         6     1        0.143037   194150.777148
         5        43     1        0.109203   306051.785645
         5        44     1        0.109203   306051.785645
         6         7     1        0.137850   191668.161523
         7         8     1        0.123217   573721.551270
         7         9     1        0.134749   345204.515625
         9        10     1        0.145482   216403.150293
         9        45     1        0.101164   422850.147754
        10        11     1        0.153238   178328.673682
        10        46     1        0.109315   300657.530957
        10        47     1        0.109315   300657.530957
        11        12     1        0.153413   176224.620166
        11        34     1        0.143570   179967.441064
        11        48     1        0.109806   287524.919238
        12        13     1        0.153620   184015.890088
        12        49     1        0.109499   296516.203467
        12        50     1        0.109499   296516.203467
        13        14     1        0.153644   177808.316772
        13        51     1        0.109464   296701.219824
        13        52     1        0.109464   296701.219824
        14        15     1        0.154231   162728.360010
        14        33     1        0.153712   167978.432178
        14        53     1        0.109661   296507.444238
        15        16     1        0.152011   180470.777490
        15        22     1        0.146639   193821.578271
        15        54     1        0.109903   282326.764014
        16        17     1        0.140235   288447.651611
        16        21     1        0.140235   288447.651611
        17        18     1        0.139815   313021.067090
        17        55     1        0.108668   316228.272656
        18        19     1        0.139918   306554.100586
        18        56     1        0.108647   318864.672754
        19        20     1        0.139918   306554.100586
        19        57     1        0.108625   319984.475000
        20        21     1        0.139815   313021.067090
        20        58     1        0.108647   318864.672754
        21        59     1        0.108668   316228.272656
        22        23     1        0.140120   267840.276904
        22        60     1        0.101355   410549.688281
        23        24     1        0.140735   277586.412549
        23        32     1        0.141215   263372.840527
        24        25     1        0.139041   333166.424414
        24        61     1        0.108629   317015.479590
        25        26     1        0.140173   293861.288965
        25        62     1        0.108531   322344.512500
        26        27     1        0.150293   195287.357275
        26        31     1        0.139887   297622.803027
        27        28     1        0.135840   221716.758789
        27        29     1        0.135840   221716.758789
        27        30     1        0.135840   221716.758789
        31        32     1        0.139370   310255.806738
        31        63     1        0.108550   319487.752686
        32        33     1        0.151162   190895.612891
        33        34     1        0.143394   181167.749048
        33        64     1        0.110020   279291.065674

[ angles ]
;       ai        aj        ak funct           theta             cth
         1         2         3     1      111.492432      628.501524
         1         2         4     1      112.379211      611.324945
         1         2        65     1      107.354294      501.104131
         2         1        35     1      108.785568      543.184021
         2         1        36     1      108.785568      543.184021
         2         1        37     1      108.785568      543.184021
         2         3        38     1      108.785568      543.184021
         2         3        39     1      108.785568      543.184021
         2         3        40     1      108.785568      543.184021
         2         4         5     1      112.704346      653.291481
         2         4        41     1      107.102280      546.188908
         2         4        42     1      107.102280      546.188908
         3         2         4     1      112.379211      611.324945
         3         2        65     1      107.354294      501.104131
         4         2        65     1      105.712402      501.147066
         4         5         6     1      110.133461      579.428329
         4         5        43     1      110.734756      476.166154
         4         5        44     1      110.734756      476.166154
         5         4        41     1      110.536415      477.830312
         5         4        42     1      110.536415      477.830312
         5         6         7     1      115.162392      600.432410
         6         5        43     1      108.633278      470.864778
         6         5        44     1      108.633278      470.864778
         6         7         8     1      122.603966      549.098351
         6         7         9     1      110.760193      568.664054
         7         9        10     1      122.303757      506.260329
         7         9        45     1      117.769691      483.400626
         8         7         9     1      126.150894      508.323057
         9        10        11     1      112.594833      508.031870
         9        10        46     1      108.499069      520.892678
         9        10        47     1      108.499069      520.892678
        10         9        45     1      118.804222      424.723180
        10        11        12     1      113.371544      592.845909
        10        11        34     1      107.193604      613.992296
        10        11        48     1      108.174149      489.527681
        11        10        46     1      109.416183      479.999498
        11        10        47     1      109.416183      479.999498
        11        12        13     1      110.772903      657.330686
        11        12        49     1      109.168228      483.949929
        11        12        50     1      109.168236      483.949929
        11        34        33     1      113.825478      589.383588
        12        11        34     1      111.130234      560.498500
        12        11        48     1      109.254837      472.487406
        12        13        14     1      110.789017      628.541170
        12        13        51     1      109.847366      507.215321
        12        13        52     1      109.847366      507.215321
        13        12        49     1      110.407860      506.069216
        13        12        50     1      110.407860      506.069216
        13        14        15     1      113.390907      594.475624
        13        14        33     1      109.946129      599.778149
        13        14        53     1      108.811119      484.857167
        14        13        51     1      109.615433      494.102047
        14        13        52     1      109.615433      494.102047
        14        15        16     1      112.832138      539.061693
        14        15        22     1      108.654358      596.888945
        14        15        54     1      107.204910      478.962851
        14        33        32     1      112.032791      573.279695
        14        33        34     1      111.157120      582.465138
        14        33        64     1      108.313766      468.104983
        15        14        33     1      109.536171      678.085908
        15        14        53     1      107.115433      495.353525
        15        16        17     1      120.675819      480.145730
        15        16        21     1      120.675819      480.145730
        15        22        23     1      118.392113      536.379083
        15        22        60     1      113.211632      469.750690
        16        15        22     1      111.192749      590.960696
        16        15        54     1      107.631065      485.386711
        16        17        18     1      120.662560      709.918234
        16        17        55     1      119.614586      400.532036
        16        21        20     1      120.662560      709.918234
        16        21        59     1      119.614586      400.532036
        17        16        21     1      118.740906      679.590873
        17        18        19     1      120.153175      705.714570
        17        18        56     1      119.816528      429.696915
        18        17        55     1      119.686012      431.264766
        18        19        20     1      119.511429      689.005895
        18        19        57     1      120.255775      430.416551
        19        18        56     1      120.079079      431.521669
        19        20        21     1      120.153175      705.714570
        19        20        58     1      120.079079      431.521669
        20        19        57     1      120.255775      430.416551
        20        21        59     1      119.686012      431.264766
        21        20        58     1      119.816528      429.696915
        22        15        54     1      109.216263      441.919263
        22        23        24     1      119.853516      544.844699
        22        23        32     1      120.381920      586.867034
        23        22        60     1      113.638138      488.207987
        23        24        25     1      120.859085      770.216712
        23        24        61     1      119.257690      424.611327
        23        32        31     1      119.148849      776.854445
        23        32        33     1      120.031204      561.946773
        24        23        32     1      119.169983      656.365511
        24        25        26     1      119.814743      649.825138
        24        25        62     1      119.982407      418.252204
        25        24        61     1      119.795059      441.763454
        25        26        27     1      119.944260      539.726551
        25        26        31     1      119.428001      627.848668
        26        25        62     1      120.115784      419.580102
        26        27        28     1      112.050613      590.814624
        26        27        29     1      112.050613      590.814624
        26        27        30     1      112.050613      590.814624
        26        31        32     1      121.233292      658.046236
        26        31        63     1      119.835167      412.227904
        27        26        31     1      120.179886      484.271952
        28        27        29     1      106.686356      701.106079
        28        27        30     1      106.686356      701.106079
        29        27        30     1      106.686356      701.106079
        31        32        33     1      120.783203      466.032423
        32        31        63     1      118.870621      400.905548
        32        33        34     1      109.718704      615.516734
        32        33        64     1      108.529274      462.167286
        33        14        53     1      107.249771      504.973163
        34        11        48     1      107.409164      461.131309
        34        33        64     1      107.237808      474.082071
        35         1        36     1      110.254288      348.487503
        35         1        37     1      110.254288      348.487503
        36         1        37     1      110.254288      348.487503
        38         3        39     1      110.254288      348.487503
        38         3        40     1      110.254288      348.487503
        39         3        40     1      110.254288      348.487503
        41         4        42     1      109.005798      348.750790
        43         5        44     1      108.666847      344.080212
        46        10        47     1      108.034119      349.319246
        49        12        50     1      107.051476      358.357723
        51        13        52     1      106.517052      361.462876

[ dihedrals ] ; propers for gromacs 4.5 or higher, use funct 9
;       ai        aj        ak        al funct           phase               k        pn
         1         2         3        38     9        0.000000        0.002052         1
         1         2         3        38     9      180.000000        0.048327         2
         1         2         3        38     9        0.000000        0.655378         3
         1         2         3        38     9      180.000000       -0.004745         4
         1         2         3        39     9        0.000000        0.002052         1
         1         2         3        39     9      180.000000        0.048327         2
         1         2         3        39     9        0.000000        0.655378         3
         1         2         3        39     9      180.000000       -0.004745         4
         1         2         3        40     9        0.000000        0.002052         1
         1         2         3        40     9      180.000000        0.048327         2
         1         2         3        40     9        0.000000        0.655378         3
         1         2         3        40     9      180.000000       -0.004745         4
         1         2         4         5     9        0.000000        0.624815         1
         1         2         4         5     9      180.000000        0.180087         2
         1         2         4         5     9        0.000000        0.685673         3
         1         2         4         5     9      180.000000        0.113811         4
         1         2         4        41     9        0.000000       -0.118855         1
         1         2         4        41     9      180.000000       -0.017566         2
         1         2         4        41     9        0.000000        0.711361         3
         1         2         4        41     9      180.000000       -0.015919         4
         1         2         4        42     9        0.000000       -0.118855         1
         1         2         4        42     9      180.000000       -0.017566         2
         1         2         4        42     9        0.000000        0.711361         3
         1         2         4        42     9      180.000000       -0.015919         4
         2         4         5         6     9        0.000000        6.799081         1
         2         4         5         6     9      180.000000       -3.348276         2
         2         4         5         6     9        0.000000        0.145636         3
         2         4         5         6     9      180.000000       -0.099501         4
         2         4         5        43     9        0.000000        0.163191         1
         2         4         5        43     9      180.000000        0.386988         2
         2         4         5        43     9        0.000000        0.641563         3
         2         4         5        43     9      180.000000        0.039050         4
         2         4         5        44     9        0.000000        0.163191         1
         2         4         5        44     9      180.000000        0.386988         2
         2         4         5        44     9        0.000000        0.641563         3
         2         4         5        44     9      180.000000        0.039050         4
         3         2         1        35     9        0.000000        0.002052         1
         3         2         1        35     9      180.000000        0.048327         2
         3         2         1        35     9        0.000000        0.655378         3
         3         2         1        35     9      180.000000       -0.004745         4
         3         2         1        36     9        0.000000        0.002052         1
         3         2         1        36     9      180.000000        0.048327         2
         3         2         1        36     9        0.000000        0.655378         3
         3         2         1        36     9      180.000000       -0.004745         4
         3         2         1        37     9        0.000000        0.002052         1
         3         2         1        37     9      180.000000        0.048327         2
         3         2         1        37     9        0.000000        0.655378         3
         3         2         1        37     9      180.000000       -0.004745         4
         3         2         4         5     9        0.000000        0.624815         1
         3         2         4         5     9      180.000000        0.180087         2
         3         2         4         5     9        0.000000        0.685673         3
         3         2         4         5     9      180.000000        0.113811         4
         3         2         4        41     9        0.000000       -0.118855         1
         3         2         4        41     9      180.000000       -0.017566         2
         3         2         4        41     9        0.000000        0.711361         3
         3         2         4        41     9      180.000000       -0.015919         4
         3         2         4        42     9        0.000000       -0.118855         1
         3         2         4        42     9      180.000000       -0.017566         2
         3         2         4        42     9        0.000000        0.711361         3
         3         2         4        42     9      180.000000       -0.015919         4
         4         2         1        35     9        0.000000       -0.065986         1
         4         2         1        35     9      180.000000        0.070461         2
         4         2         1        35     9        0.000000        0.585833         3
         4         2         1        35     9      180.000000        0.002179         4
         4         2         1        36     9        0.000000       -0.065986         1
         4         2         1        36     9      180.000000        0.070461         2
         4         2         1        36     9        0.000000        0.585833         3
         4         2         1        36     9      180.000000        0.002179         4
         4         2         1        37     9        0.000000       -0.065986         1
         4         2         1        37     9      180.000000        0.070461         2
         4         2         1        37     9        0.000000        0.585833         3
         4         2         1        37     9      180.000000        0.002179         4
         4         2         3        38     9        0.000000       -0.065986         1
         4         2         3        38     9      180.000000        0.070461         2
         4         2         3        38     9        0.000000        0.585833         3
         4         2         3        38     9      180.000000        0.002179         4
         4         2         3        39     9        0.000000       -0.065986         1
         4         2         3        39     9      180.000000        0.070461         2
         4         2         3        39     9        0.000000        0.585833         3
         4         2         3        39     9      180.000000        0.002179         4
         4         2         3        40     9        0.000000       -0.065986         1
         4         2         3        40     9      180.000000        0.070461         2
         4         2         3        40     9        0.000000        0.585833         3
         4         2         3        40     9      180.000000        0.002179         4
         4         5         6         7     9        0.000000       -0.953459         1
         4         5         6         7     9      180.000000       -0.036917         2
         4         5         6         7     9        0.000000        0.379636         3
         4         5         6         7     9      180.000000        0.033858         4
         5         4         2        65     9        0.000000        1.078935         1
         5         4         2        65     9      180.000000       -0.795898         2
         5         4         2        65     9        0.000000        0.590527         3
         5         4         2        65     9      180.000000       -0.107456         4
         5         6         7         8     9        0.000000        2.897482         1
         5         6         7         8     9      180.000000        6.345582         2
         5         6         7         8     9        0.000000        0.519449         3
         5         6         7         8     9      180.000000        0.091336         4
         5         6         7         9     9        0.000000       -2.673859         1
         5         6         7         9     9      180.000000       10.697955         2
         5         6         7         9     9        0.000000       -0.028905         3
         5         6         7         9     9      180.000000       -0.082223         4
         6         5         4        41     9        0.000000       -0.013562         1
         6         5         4        41     9      180.000000        0.190232         2
         6         5         4        41     9        0.000000        0.549288         3
         6         5         4        41     9      180.000000        0.030531         4
         6         5         4        42     9        0.000000       -0.013562         1
         6         5         4        42     9      180.000000        0.190232         2
         6         5         4        42     9        0.000000        0.549288         3
         6         5         4        42     9      180.000000        0.030531         4
         6         7         9        10     9        0.000000        3.557222         1
         6         7         9        10     9      180.000000       13.686901         2
         6         7         9        10     9        0.000000        1.609902         3
         6         7         9        10     9      180.000000       -0.518425         4
         6         7         9        45     9        0.000000        2.973777         1
         6         7         9        45     9      180.000000       13.361652         2
         6         7         9        45     9        0.000000       -0.064827         3
         6         7         9        45     9      180.000000        0.682415         4
         7         6         5        43     9        0.000000        0.512528         1
         7         6         5        43     9      180.000000        0.319320         2
         7         6         5        43     9        0.000000       -0.031786         3
         7         6         5        43     9      180.000000        0.251055         4
         7         6         5        44     9        0.000000        0.512528         1
         7         6         5        44     9      180.000000        0.319320         2
         7         6         5        44     9        0.000000       -0.031786         3
         7         6         5        44     9      180.000000        0.251055         4
         7         9        10        11     9        0.000000       -0.392372         1
         7         9        10        11     9      180.000000       -0.439051         2
         7         9        10        11     9        0.000000        0.094992         3
         7         9        10        11     9      180.000000        0.150229         4
         7         9        10        46     9        0.000000       -0.059865         1
         7         9        10        46     9      180.000000       -0.002431         2
         7         9        10        46     9        0.000000        0.137474         3
         7         9        10        46     9      180.000000        0.072952         4
         7         9        10        47     9        0.000000       -0.059865         1
         7         9        10        47     9      180.000000       -0.002431         2
         7         9        10        47     9        0.000000        0.137474         3
         7         9        10        47     9      180.000000        0.072952         4
         8         7         9        10     9        0.000000        1.724439         1
         8         7         9        10     9      180.000000        5.093576         2
         8         7         9        10     9        0.000000        0.950264         3
         8         7         9        10     9      180.000000       -1.004166         4
         8         7         9        45     9        0.000000       -0.096609         1
         8         7         9        45     9      180.000000        8.434159         2
         8         7         9        45     9        0.000000       -0.496290         3
         8         7         9        45     9      180.000000        0.303482         4
         9        10        11        12     9        0.000000        0.326587         1
         9        10        11        12     9      180.000000        1.142341         2
         9        10        11        12     9        0.000000        0.457487         3
         9        10        11        12     9      180.000000       -0.022261         4
         9        10        11        34     9        0.000000       -1.219901         1
         9        10        11        34     9      180.000000       -0.238263         2
         9        10        11        34     9        0.000000        0.397619         3
         9        10        11        34     9      180.000000        0.057865         4
         9        10        11        48     9        0.000000        0.152036         1
         9        10        11        48     9      180.000000        0.018059         2
         9        10        11        48     9        0.000000        0.707502         3
         9        10        11        48     9      180.000000        0.008391         4
        10        11        12        13     9        0.000000        0.065522         1
        10        11        12        13     9      180.000000        0.410101         2
        10        11        12        13     9        0.000000        0.247434         3
        10        11        12        13     9      180.000000       -0.001705         4
        10        11        12        49     9        0.000000       -0.062129         1
        10        11        12        49     9      180.000000       -0.047830         2
        10        11        12        49     9        0.000000        0.301586         3
        10        11        12        49     9      180.000000        0.008461         4
        10        11        12        50     9        0.000000       -0.062129         1
        10        11        12        50     9      180.000000       -0.047830         2
        10        11        12        50     9        0.000000        0.301586         3
        10        11        12        50     9      180.000000        0.008461         4
        10        11        34        33     9        0.000000       -0.233908         1
        10        11        34        33     9      180.000000        0.160107         2
        10        11        34        33     9        0.000000        0.303751         3
        10        11        34        33     9      180.000000        0.095101         4
        11        10         9        45     9        0.000000       -0.072695         1
        11        10         9        45     9      180.000000       -1.545580         2
        11        10         9        45     9        0.000000        0.524228         3
        11        10         9        45     9      180.000000       -0.052219         4
        11        12        13        14     9        0.000000        0.746823         1
        11        12        13        14     9      180.000000       -1.137027         2
        11        12        13        14     9        0.000000        0.102168         3
        11        12        13        14     9      180.000000        0.144944         4
        11        12        13        51     9        0.000000       -0.054644         1
        11        12        13        51     9      180.000000        0.033818         2
        11        12        13        51     9        0.000000        0.187373         3
        11        12        13        51     9      180.000000        0.009216         4
        11        12        13        52     9        0.000000       -0.054644         1
        11        12        13        52     9      180.000000        0.033818         2
        11        12        13        52     9        0.000000        0.187373         3
        11        12        13        52     9      180.000000        0.009216         4
        11        34        33        14     9        0.000000        6.153189         1
        11        34        33        14     9      180.000000       -3.188317         2
        11        34        33        14     9        0.000000        0.038254         3
        11        34        33        14     9      180.000000        0.198142         4
        11        34        33        32     9        0.000000        0.267903         1
        11        34        33        32     9      180.000000       -0.963915         2
        11        34        33        32     9        0.000000        0.750665         3
        11        34        33        32     9      180.000000        0.104712         4
        11        34        33        64     9        0.000000       -0.158211         1
        11        34        33        64     9      180.000000        0.233418         2
        11        34        33        64     9        0.000000        0.637473         3
        11        34        33        64     9      180.000000        0.046959         4
        12        11        10        46     9        0.000000       -0.062660         1
        12        11        10        46     9      180.000000       -0.023100         2
        12        11        10        46     9        0.000000        0.584871         3
        12        11        10        46     9      180.000000        0.045667         4
        12        11        10        47     9        0.000000       -0.062660         1
        12        11        10        47     9      180.000000       -0.023100         2
        12        11        10        47     9        0.000000        0.584871         3
        12        11        10        47     9      180.000000        0.045667         4
        12        11        34        33     9        0.000000        4.902066         1
        12        11        34        33     9      180.000000       -1.758314         2
        12        11        34        33     9        0.000000        0.044281         3
        12        11        34        33     9      180.000000        0.163197         4
        12        13        14        15     9        0.000000        0.251674         1
        12        13        14        15     9      180.000000       -0.419056         2
        12        13        14        15     9        0.000000        0.342978         3
        12        13        14        15     9      180.000000        0.015736         4
        12        13        14        33     9        0.000000        0.894275         1
        12        13        14        33     9      180.000000       -0.959033         2
        12        13        14        33     9        0.000000        0.110473         3
        12        13        14        33     9      180.000000        0.075098         4
        12        13        14        53     9        0.000000       -0.857169         1
        12        13        14        53     9      180.000000       -0.013730         2
        12        13        14        53     9        0.000000        0.208833         3
        12        13        14        53     9      180.000000        0.137834         4
        13        12        11        34     9        0.000000       -0.270660         1
        13        12        11        34     9      180.000000       -0.460602         2
        13        12        11        34     9        0.000000        0.206638         3
        13        12        11        34     9      180.000000        0.021867         4
        13        12        11        48     9        0.000000       -0.140829         1
        13        12        11        48     9      180.000000       -0.012515         2
        13        12        11        48     9        0.000000        0.413197         3
        13        12        11        48     9      180.000000        0.018107         4
        13        14        15        16     9        0.000000        1.303541         1
        13        14        15        16     9      180.000000       -0.496284         2
        13        14        15        16     9        0.000000        0.900889         3
        13        14        15        16     9      180.000000        0.115170         4
        13        14        15        22     9        0.000000       -1.975380         1
        13        14        15        22     9      180.000000        0.761714         2
        13        14        15        22     9        0.000000        0.324624         3
        13        14        15        22     9      180.000000       -0.110841         4
        13        14        15        54     9        0.000000       -0.246554         1
        13        14        15        54     9      180.000000        0.175431         2
        13        14        15        54     9        0.000000        0.515931         3
        13        14        15        54     9      180.000000       -0.011084         4
        13        14        33        32     9        0.000000        0.503391         1
        13        14        33        32     9      180.000000       -1.292606         2
        13        14        33        32     9        0.000000        0.330058         3
        13        14        33        32     9      180.000000        0.021548         4
        13        14        33        34     9        0.000000       -0.228573         1
        13        14        33        34     9      180.000000       -1.401569         2
        13        14        33        34     9        0.000000        0.282140         3
        13        14        33        34     9      180.000000        0.116406         4
        13        14        33        64     9        0.000000       -0.100620         1
        13        14        33        64     9      180.000000        0.200569         2
        13        14        33        64     9        0.000000        0.270608         3
        13        14        33        64     9      180.000000        0.098303         4
        14        13        12        49     9        0.000000       -0.046888         1
        14        13        12        49     9      180.000000        0.013585         2
        14        13        12        49     9        0.000000        0.178988         3
        14        13        12        49     9      180.000000        0.009060         4
        14        13        12        50     9        0.000000       -0.046888         1
        14        13        12        50     9      180.000000        0.013585         2
        14        13        12        50     9        0.000000        0.178988         3
        14        13        12        50     9      180.000000        0.009060         4
        14        15        16        17     9        0.000000       -0.353839         1
        14        15        16        17     9      180.000000       -0.104567         2
        14        15        16        17     9        0.000000        0.105252         3
        14        15        16        17     9      180.000000        0.005143         4
        14        15        16        21     9        0.000000       -0.353839         1
        14        15        16        21     9      180.000000       -0.104567         2
        14        15        16        21     9        0.000000        0.105252         3
        14        15        16        21     9      180.000000        0.005143         4
        14        15        22        23     9        0.000000        5.940340         1
        14        15        22        23     9      180.000000       -3.136762         2
        14        15        22        23     9        0.000000       -0.048298         3
        14        15        22        23     9      180.000000        0.710953         4
        14        15        22        60     9        0.000000        3.523492         1
        14        15        22        60     9      180.000000       -3.065426         2
        14        15        22        60     9        0.000000        0.126339         3
        14        15        22        60     9      180.000000        0.382838         4
        14        33        32        23     9        0.000000        4.293933         1
        14        33        32        23     9      180.000000       -3.954743         2
        14        33        32        23     9        0.000000       -0.194479         3
        14        33        32        23     9      180.000000        0.800821         4
        14        33        32        31     9        0.000000       -0.542126         1
        14        33        32        31     9      180.000000       -0.814156         2
        14        33        32        31     9        0.000000       -0.584072         3
        14        33        32        31     9      180.000000        0.236434         4
        15        14        13        51     9        0.000000       -0.011596         1
        15        14        13        51     9      180.000000        0.032133         2
        15        14        13        51     9        0.000000        0.284175         3
        15        14        13        51     9      180.000000        0.002952         4
        15        14        13        52     9        0.000000       -0.011596         1
        15        14        13        52     9      180.000000        0.032133         2
        15        14        13        52     9        0.000000        0.284175         3
        15        14        13        52     9      180.000000        0.002952         4
        15        14        33        32     9        0.000000        2.021808         1
        15        14        33        32     9      180.000000       -2.858627         2
        15        14        33        32     9        0.000000        0.020286         3
        15        14        33        32     9      180.000000        0.190165         4
        15        14        33        34     9        0.000000        0.398963         1
        15        14        33        34     9      180.000000       -3.939457         2
        15        14        33        34     9        0.000000        0.116553         3
        15        14        33        34     9      180.000000        0.400885         4
        15        14        33        64     9        0.000000       -0.420341         1
        15        14        33        64     9      180.000000        0.124945         2
        15        14        33        64     9        0.000000        0.063006         3
        15        14        33        64     9      180.000000        0.141844         4
        15        16        17        18     9        0.000000        0.090192         1
        15        16        17        18     9      180.000000       14.679497         2
        15        16        17        18     9        0.000000       -0.138716         3
        15        16        17        18     9      180.000000       -0.078602         4
        15        16        17        55     9        0.000000       -0.040953         1
        15        16        17        55     9      180.000000       12.731300         2
        15        16        17        55     9        0.000000       -0.361223         3
        15        16        17        55     9      180.000000        0.182937         4
        15        16        21        20     9        0.000000        0.090192         1
        15        16        21        20     9      180.000000       14.679497         2
        15        16        21        20     9        0.000000       -0.138716         3
        15        16        21        20     9      180.000000       -0.078602         4
        15        16        21        59     9        0.000000       -0.040953         1
        15        16        21        59     9      180.000000       12.731300         2
        15        16        21        59     9        0.000000       -0.361223         3
        15        16        21        59     9      180.000000        0.182937         4
        15        22        23        24     9        0.000000       -0.720221         1
        15        22        23        24     9      180.000000        3.224797         2
        15        22        23        24     9        0.000000        0.007484         3
        15        22        23        24     9      180.000000        0.386793         4
        15        22        23        32     9        0.000000        3.392995         1
        15        22        23        32     9      180.000000        0.902665         2
        15        22        23        32     9        0.000000       -0.216725         3
        15        22        23        32     9      180.000000        0.933904         4
        16        15        14        33     9        0.000000       -0.390745         1
        16        15        14        33     9      180.000000       -0.204484         2
        16        15        14        33     9        0.000000        0.350290         3
        16        15        14        33     9      180.000000        0.075818         4
        16        15        14        53     9        0.000000        0.044425         1
        16        15        14        53     9      180.000000       -0.036011         2
        16        15        14        53     9        0.000000        0.459679         3
        16        15        14        53     9      180.000000       -0.060270         4
        16        15        22        23     9        0.000000        1.082019         1
        16        15        22        23     9      180.000000       -0.660171         2
        16        15        22        23     9        0.000000        0.773072         3
        16        15        22        23     9      180.000000        0.092282         4
        16        15        22        60     9        0.000000        3.195030         1
        16        15        22        60     9      180.000000       -1.053801         2
        16        15        22        60     9        0.000000        0.110169         3
        16        15        22        60     9      180.000000       -0.141080         4
        16        17        18        19     9        0.000000        0.027332         1
        16        17        18        19     9      180.000000       18.735526         2
        16        17        18        19     9        0.000000       -1.491713         3
        16        17        18        19     9      180.000000       -0.406339         4
        16        17        18        56     9        0.000000        0.060410         1
        16        17        18        56     9      180.000000       14.990248         2
        16        17        18        56     9        0.000000       -0.580983         3
        16        17        18        56     9      180.000000        0.057213         4
        16        21        20        19     9        0.000000        0.027332         1
        16        21        20        19     9      180.000000       18.735526         2
        16        21        20        19     9        0.000000       -1.491713         3
        16        21        20        19     9      180.000000       -0.406339         4
        16        21        20        58     9        0.000000        0.060410         1
        16        21        20        58     9      180.000000       14.990248         2
        16        21        20        58     9        0.000000       -0.580983         3
        16        21        20        58     9      180.000000        0.057213         4
        17        16        15        22     9        0.000000       -0.070385         1
        17        16        15        22     9      180.000000        0.892704         2
        17        16        15        22     9        0.000000       -0.026553         3
        17        16        15        22     9      180.000000        0.262291         4
        17        16        15        54     9        0.000000        0.166577         1
        17        16        15        54     9      180.000000        0.665434         2
        17        16        15        54     9        0.000000        0.050777         3
        17        16        15        54     9      180.000000       -0.152664         4
        17        16        21        20     9        0.000000       -0.144447         1
        17        16        21        20     9      180.000000       19.062213         2
        17        16        21        20     9        0.000000       -1.504557         3
        17        16        21        20     9      180.000000       -0.477342         4
        17        16        21        59     9        0.000000       -0.069578         1
        17        16        21        59     9      180.000000       14.508781         2
        17        16        21        59     9        0.000000       -0.591210         3
        17        16        21        59     9      180.000000       -0.002966         4
        17        18        19        20     9        0.000000       -0.058929         1
        17        18        19        20     9      180.000000       18.660780         2
        17        18        19        20     9        0.000000       -1.621208         3
        17        18        19        20     9      180.000000       -0.382782         4
        17        18        19        57     9        0.000000        0.016776         1
        17        18        19        57     9      180.000000       14.282110         2
        17        18        19        57     9        0.000000       -0.780703         3
        17        18        19        57     9      180.000000        0.125907         4
        18        17        16        21     9        0.000000       -0.144447         1
        18        17        16        21     9      180.000000       19.062213         2
        18        17        16        21     9        0.000000       -1.504557         3
        18        17        16        21     9      180.000000       -0.477342         4
        18        19        20        21     9        0.000000       -0.058929         1
        18        19        20        21     9      180.000000       18.660780         2
        18        19        20        21     9        0.000000       -1.621208         3
        18        19        20        21     9      180.000000       -0.382782         4
        18        19        20        58     9        0.000000        0.010660         1
        18        19        20        58     9      180.000000       14.271862         2
        18        19        20        58     9        0.000000       -0.794146         3
        18        19        20        58     9      180.000000        0.157356         4
        19        18        17        55     9        0.000000        0.060923         1
        19        18        17        55     9      180.000000       14.800026         2
        19        18        17        55     9        0.000000       -0.680406         3
        19        18        17        55     9      180.000000        0.105081         4
        19        20        21        59     9        0.000000        0.060923         1
        19        20        21        59     9      180.000000       14.800026         2
        19        20        21        59     9        0.000000       -0.680406         3
        19        20        21        59     9      180.000000        0.105081         4
        20        19        18        56     9        0.000000        0.010660         1
        20        19        18        56     9      180.000000       14.271862         2
        20        19        18        56     9        0.000000       -0.794146         3
        20        19        18        56     9      180.000000        0.157356         4
        21        16        15        22     9        0.000000       -0.070385         1
        21        16        15        22     9      180.000000        0.892704         2
        21        16        15        22     9        0.000000       -0.026553         3
        21        16        15        22     9      180.000000        0.262291         4
        21        16        15        54     9        0.000000        0.166577         1
        21        16        15        54     9      180.000000        0.665434         2
        21        16        15        54     9        0.000000        0.050777         3
        21        16        15        54     9      180.000000       -0.152664         4
        21        16        17        55     9        0.000000       -0.069578         1
        21        16        17        55     9      180.000000       14.508781         2
        21        16        17        55     9        0.000000       -0.591210         3
        21        16        17        55     9      180.000000       -0.002966         4
        21        20        19        57     9        0.000000        0.016776         1
        21        20        19        57     9      180.000000       14.282110         2
        21        20        19        57     9        0.000000       -0.780703         3
        21        20        19        57     9      180.000000        0.125907         4
        22        15        14        33     9        0.000000       -0.209611         1
        22        15        14        33     9      180.000000       -1.727949         2
        22        15        14        33     9        0.000000       -0.219876         3
        22        15        14        33     9      180.000000        0.203053         4
        22        15        14        53     9        0.000000       -0.081846         1
        22        15        14        53     9      180.000000        0.009201         2
        22        15        14        53     9        0.000000        0.106304         3
        22        15        14        53     9      180.000000        0.240746         4
        22        23        24        25     9        0.000000        0.394468         1
        22        23        24        25     9      180.000000       18.736527         2
        22        23        24        25     9        0.000000        0.460433         3
        22        23        24        25     9      180.000000       -0.281803         4
        22        23        24        61     9        0.000000       -0.277981         1
        22        23        24        61     9      180.000000       15.530411         2
        22        23        24        61     9        0.000000       -0.156391         3
        22        23        24        61     9      180.000000        0.040110         4
        22        23        32        31     9        0.000000        0.175401         1
        22        23        32        31     9      180.000000       17.341018         2
        22        23        32        31     9        0.000000        0.120033         3
        22        23        32        31     9      180.000000       -0.597495         4
        22        23        32        33     9        0.000000       -0.124381         1
        22        23        32        33     9      180.000000       15.923271         2
        22        23        32        33     9        0.000000        0.400658         3
        22        23        32        33     9      180.000000       -0.553014         4
        23        22        15        54     9        0.000000       -0.112047         1
        23        22        15        54     9      180.000000       -0.155154         2
        23        22        15        54     9        0.000000        0.621817         3
        23        22        15        54     9      180.000000       -0.029643         4
        23        24        25        26     9        0.000000        0.055676         1
        23        24        25        26     9      180.000000       18.406921         2
        23        24        25        26     9        0.000000       -1.912953         3
        23        24        25        26     9      180.000000       -0.412704         4
        23        24        25        62     9        0.000000        0.076473         1
        23        24        25        62     9      180.000000       14.070312         2
        23        24        25        62     9        0.000000       -0.680250         3
        23        24        25        62     9      180.000000        0.120126         4
        23        32        31        26     9        0.000000       -0.001933         1
        23        32        31        26     9      180.000000       18.915732         2
        23        32        31        26     9        0.000000       -1.767627         3
        23        32        31        26     9      180.000000       -0.421815         4
        23        32        31        63     9        0.000000        0.151074         1
        23        32        31        63     9      180.000000       14.320046         2
        23        32        31        63     9        0.000000       -0.365311         3
        23        32        31        63     9      180.000000        0.114163         4
        23        32        33        34     9        0.000000       -4.601020         1
        23        32        33        34     9      180.000000       -1.314569         2
        23        32        33        34     9        0.000000        0.668626         3
        23        32        33        34     9      180.000000       -0.196890         4
        23        32        33        64     9        0.000000       -0.042147         1
        23        32        33        64     9      180.000000        0.399597         2
        23        32        33        64     9        0.000000        0.152654         3
        23        32        33        64     9      180.000000        0.034748         4
        24        23        22        60     9        0.000000       -0.833285         1
        24        23        22        60     9      180.000000        4.468194         2
        24        23        22        60     9        0.000000        0.018400         3
        24        23        22        60     9      180.000000        0.261817         4
        24        23        32        31     9        0.000000        0.026764         1
        24        23        32        31     9      180.000000       14.737101         2
        24        23        32        31     9        0.000000       -0.705376         3
        24        23        32        31     9      180.000000       -0.274300         4
        24        23        32        33     9        0.000000        0.000280         1
        24        23        32        33     9      180.000000       12.297920         2
        24        23        32        33     9        0.000000       -0.225538         3
        24        23        32        33     9      180.000000       -0.094193         4
        24        25        26        27     9        0.000000        0.032550         1
        24        25        26        27     9      180.000000       14.438455         2
        24        25        26        27     9        0.000000       -0.070406         3
        24        25        26        27     9      180.000000       -0.263928         4
        24        25        26        31     9        0.000000       -0.087045         1
        24        25        26        31     9      180.000000       18.415396         2
        24        25        26        31     9        0.000000       -1.600674         3
        24        25        26        31     9      180.000000       -0.395144         4
        25        24        23        32     9        0.000000        0.031508         1
        25        24        23        32     9      180.000000       16.807129         2
        25        24        23        32     9        0.000000       -0.691304         3
        25        24        23        32     9      180.000000       -0.383093         4
        25        26        27        28     9        0.000000       -0.000025         1
        25        26        27        28     9      180.000000        0.048574         2
        25        26        27        28     9        0.000000        0.186873         3
        25        26        27        28     9      180.000000        0.032348         4
        25        26        27        29     9        0.000000       -0.000025         1
        25        26        27        29     9      180.000000        0.048574         2
        25        26        27        29     9        0.000000        0.186873         3
        25        26        27        29     9      180.000000        0.032348         4
        25        26        27        30     9        0.000000       -0.000025         1
        25        26        27        30     9      180.000000        0.048574         2
        25        26        27        30     9        0.000000        0.186873         3
        25        26        27        30     9      180.000000        0.032348         4
        25        26        31        32     9        0.000000       -0.011175         1
        25        26        31        32     9      180.000000       17.759801         2
        25        26        31        32     9        0.000000       -1.674414         3
        25        26        31        32     9      180.000000       -0.400159         4
        25        26        31        63     9        0.000000        0.124948         1
        25        26        31        63     9      180.000000       14.034475         2
        25        26        31        63     9        0.000000       -0.702800         3
        25        26        31        63     9      180.000000        0.060915         4
        26        25        24        61     9        0.000000        0.072242         1
        26        25        24        61     9      180.000000       15.427600         2
        26        25        24        61     9        0.000000       -0.713637         3
        26        25        24        61     9      180.000000        0.090773         4
        26        31        32        33     9        0.000000       -0.047647         1
        26        31        32        33     9      180.000000       17.449493         2
        26        31        32        33     9        0.000000       -0.523161         3
        26        31        32        33     9      180.000000       -0.431148         4
        27        26        25        62     9        0.000000        0.122363         1
        27        26        25        62     9      180.000000       11.493078         2
        27        26        25        62     9        0.000000       -0.272449         3
        27        26        25        62     9      180.000000        0.132038         4
        27        26        31        32     9        0.000000        0.031312         1
        27        26        31        32     9      180.000000       14.343546         2
        27        26        31        32     9        0.000000       -0.113218         3
        27        26        31        32     9      180.000000       -0.321206         4
        27        26        31        63     9        0.000000        0.021233         1
        27        26        31        63     9      180.000000       11.255697         2
        27        26        31        63     9        0.000000       -0.353476         3
        27        26        31        63     9      180.000000        0.163686         4
        28        27        26        31     9        0.000000       -0.028912         1
        28        27        26        31     9      180.000000        0.059371         2
        28        27        26        31     9        0.000000        0.082074         3
        28        27        26        31     9      180.000000        0.049959         4
        29        27        26        31     9        0.000000       -0.028912         1
        29        27        26        31     9      180.000000        0.059371         2
        29        27        26        31     9        0.000000        0.082074         3
        29        27        26        31     9      180.000000        0.049959         4
        30        27        26        31     9        0.000000       -0.028912         1
        30        27        26        31     9      180.000000        0.059371         2
        30        27        26        31     9        0.000000        0.082074         3
        30        27        26        31     9      180.000000        0.049959         4
        31        26        25        62     9        0.000000        0.163703         1
        31        26        25        62     9      180.000000       13.957222         2
        31        26        25        62     9        0.000000       -0.633766         3
        31        26        25        62     9      180.000000        0.029794         4
        31        32        33        34     9        0.000000       -0.427465         1
        31        32        33        34     9      180.000000        0.376565         2
        31        32        33        34     9        0.000000       -0.831731         3
        31        32        33        34     9      180.000000        0.172316         4
        31        32        33        64     9        0.000000       -0.085745         1
        31        32        33        64     9      180.000000       -0.041454         2
        31        32        33        64     9        0.000000       -0.645758         3
        31        32        33        64     9      180.000000        0.017658         4
        32        23        22        60     9        0.000000        5.986843         1
        32        23        22        60     9      180.000000        4.005795         2
        32        23        22        60     9        0.000000       -0.592975         3
        32        23        22        60     9      180.000000        0.382813         4
        32        23        24        61     9        0.000000        0.020995         1
        32        23        24        61     9      180.000000       12.789968         2
        32        23        24        61     9        0.000000       -0.209461         3
        32        23        24        61     9      180.000000        0.003015         4
        32        33        14        53     9        0.000000       -0.117973         1
        32        33        14        53     9      180.000000        0.034288         2
        32        33        14        53     9        0.000000        0.112251         3
        32        33        14        53     9      180.000000        0.233113         4
        33        14        13        51     9        0.000000       -0.118216         1
        33        14        13        51     9      180.000000        0.073215         2
        33        14        13        51     9        0.000000        0.150839         3
        33        14        13        51     9      180.000000        0.036023         4
        33        14        13        52     9        0.000000       -0.118216         1
        33        14        13        52     9      180.000000        0.073215         2
        33        14        13        52     9        0.000000        0.150839         3
        33        14        13        52     9      180.000000        0.036023         4
        33        14        15        54     9        0.000000       -0.125298         1
        33        14        15        54     9      180.000000       -0.032753         2
        33        14        15        54     9        0.000000        0.097338         3
        33        14        15        54     9      180.000000        0.143143         4
        33        32        31        63     9        0.000000       -0.033193         1
        33        32        31        63     9      180.000000       12.826044         2
        33        32        31        63     9        0.000000       -0.343922         3
        33        32        31        63     9      180.000000        0.168412         4
        33        34        11        48     9        0.000000       -0.313370         1
        33        34        11        48     9      180.000000        0.044194         2
        33        34        11        48     9        0.000000        0.406300         3
        33        34        11        48     9      180.000000        0.038228         4
        34        11        10        46     9        0.000000       -0.086988         1
        34        11        10        46     9      180.000000       -0.029147         2
        34        11        10        46     9        0.000000        0.463270         3
        34        11        10        46     9      180.000000        0.044324         4
        34        11        10        47     9        0.000000       -0.086988         1
        34        11        10        47     9      180.000000       -0.029147         2
        34        11        10        47     9        0.000000        0.463270         3
        34        11        10        47     9      180.000000        0.044324         4
        34        11        12        49     9        0.000000       -0.080297         1
        34        11        12        49     9      180.000000        0.006200         2
        34        11        12        49     9        0.000000        0.205024         3
        34        11        12        49     9      180.000000        0.006366         4
        34        11        12        50     9        0.000000       -0.080297         1
        34        11        12        50     9      180.000000        0.006200         2
        34        11        12        50     9        0.000000        0.205024         3
        34        11        12        50     9      180.000000        0.006366         4
        34        33        14        53     9        0.000000       -0.474840         1
        34        33        14        53     9      180.000000        0.172027         2
        34        33        14        53     9        0.000000        0.029214         3
        34        33        14        53     9      180.000000        0.217219         4
        35         1         2        65     9        0.000000       -0.090704         1
        35         1         2        65     9      180.000000        0.164412         2
        35         1         2        65     9        0.000000        0.503760         3
        35         1         2        65     9      180.000000        0.025769         4
        36         1         2        65     9        0.000000       -0.090704         1
        36         1         2        65     9      180.000000        0.164412         2
        36         1         2        65     9        0.000000        0.503760         3
        36         1         2        65     9      180.000000        0.025769         4
        37         1         2        65     9        0.000000       -0.090704         1
        37         1         2        65     9      180.000000        0.164412         2
        37         1         2        65     9        0.000000        0.503760         3
        37         1         2        65     9      180.000000        0.025769         4
        38         3         2        65     9        0.000000       -0.090704         1
        38         3         2        65     9      180.000000        0.164412         2
        38         3         2        65     9        0.000000        0.503760         3
        38         3         2        65     9      180.000000        0.025769         4
        39         3         2        65     9        0.000000       -0.090704         1
        39         3         2        65     9      180.000000        0.164412         2
        39         3         2        65     9        0.000000        0.503760         3
        39         3         2        65     9      180.000000        0.025769         4
        40         3         2        65     9        0.000000       -0.090704         1
        40         3         2        65     9      180.000000        0.164412         2
        40         3         2        65     9        0.000000        0.503760         3
        40         3         2        65     9      180.000000        0.025769         4
        41         4         2        65     9        0.000000        0.063015         1
        41         4         2        65     9      180.000000        0.101142         2
        41         4         2        65     9        0.000000        0.516792         3
        41         4         2        65     9      180.000000       -0.019881         4
        41         4         5        43     9        0.000000       -0.189669         1
        41         4         5        43     9      180.000000        0.014882         2
        41         4         5        43     9        0.000000        0.654164         3
        41         4         5        43     9      180.000000       -0.050303         4
        41         4         5        44     9        0.000000       -0.189669         1
        41         4         5        44     9      180.000000        0.014882         2
        41         4         5        44     9        0.000000        0.654164         3
        41         4         5        44     9      180.000000       -0.050303         4
        42         4         2        65     9        0.000000        0.063015         1
        42         4         2        65     9      180.000000        0.101142         2
        42         4         2        65     9        0.000000        0.516792         3
        42         4         2        65     9      180.000000       -0.019881         4
        42         4         5        43     9        0.000000       -0.189669         1
        42         4         5        43     9      180.000000        0.014882         2
        42         4         5        43     9        0.000000        0.654164         3
        42         4         5        43     9      180.000000       -0.050303         4
        42         4         5        44     9        0.000000       -0.189669         1
        42         4         5        44     9      180.000000        0.014882         2
        42         4         5        44     9        0.000000        0.654164         3
        42         4         5        44     9      180.000000       -0.050303         4
        45         9        10        46     9        0.000000       -0.068332         1
        45         9        10        46     9      180.000000        0.216245         2
        45         9        10        46     9        0.000000        0.575103         3
        45         9        10        46     9      180.000000        0.089390         4
        45         9        10        47     9        0.000000       -0.068332         1
        45         9        10        47     9      180.000000        0.216245         2
        45         9        10        47     9        0.000000        0.575103         3
        45         9        10        47     9      180.000000        0.089390         4
        46        10        11        48     9        0.000000       -0.052914         1
        46        10        11        48     9      180.000000        0.033414         2
        46        10        11        48     9        0.000000        0.711917         3
        46        10        11        48     9      180.000000       -0.064056         4
        47        10        11        48     9        0.000000       -0.052914         1
        47        10        11        48     9      180.000000        0.033414         2
        47        10        11        48     9        0.000000        0.711917         3
        47        10        11        48     9      180.000000       -0.064056         4
        48        11        12        49     9        0.000000        0.008996         1
        48        11        12        49     9      180.000000       -0.016262         2
        48        11        12        49     9        0.000000        0.463760         3
        48        11        12        49     9      180.000000       -0.048382         4
        48        11        12        50     9        0.000000        0.008996         1
        48        11        12        50     9      180.000000       -0.016262         2
        48        11        12        50     9        0.000000        0.463760         3
        48        11        12        50     9      180.000000       -0.048382         4
        49        12        13        51     9        0.000000        0.002608         1
        49        12        13        51     9      180.000000       -0.019703         2
        49        12        13        51     9        0.000000        0.279086         3
        49        12        13        51     9      180.000000        0.006997         4
        49        12        13        52     9        0.000000        0.002608         1
        49        12        13        52     9      180.000000       -0.019703         2
        49        12        13        52     9        0.000000        0.279086         3
        49        12        13        52     9      180.000000        0.006997         4
        50        12        13        51     9        0.000000        0.002608         1
        50        12        13        51     9      180.000000       -0.019703         2
        50        12        13        51     9        0.000000        0.279086         3
        50        12        13        51     9      180.000000        0.006997         4
        50        12        13        52     9        0.000000        0.002608         1
        50        12        13        52     9      180.000000       -0.019703         2
        50        12        13        52     9        0.000000        0.279086         3
        50        12        13        52     9      180.000000        0.006997         4
        51        13        14        53     9        0.000000        0.307712         1
        51        13        14        53     9      180.000000        0.073108         2
        51        13        14        53     9        0.000000        0.368973         3
        51        13        14        53     9      180.000000       -0.053939         4
        52        13        14        53     9        0.000000        0.307712         1
        52        13        14        53     9      180.000000        0.073108         2
        52        13        14        53     9        0.000000        0.368973         3
        52        13        14        53     9      180.000000       -0.053939         4
        53        14        15        54     9        0.000000        0.589952         1
        53        14        15        54     9      180.000000        0.106994         2
        53        14        15        54     9        0.000000        0.459468         3
        53        14        15        54     9      180.000000       -0.274357         4
        53        14        33        64     9        0.000000        0.101714         1
        53        14        33        64     9      180.000000        0.049917         2
        53        14        33        64     9        0.000000        0.246326         3
        53        14        33        64     9      180.000000       -0.118900         4
        54        15        22        60     9        0.000000       -0.890253         1
        54        15        22        60     9      180.000000       -0.260122         2
        54        15        22        60     9        0.000000        0.459101         3
        54        15        22        60     9      180.000000       -0.171435         4
        55        17        18        56     9        0.000000       -0.180341         1
        55        17        18        56     9      180.000000       11.789159         2
        55        17        18        56     9        0.000000       -0.659630         3
        55        17        18        56     9      180.000000        0.310085         4
        56        18        19        57     9        0.000000       -0.084558         1
        56        18        19        57     9      180.000000       11.520937         2
        56        18        19        57     9        0.000000       -0.587926         3
        56        18        19        57     9      180.000000        0.263272         4
        57        19        20        58     9        0.000000       -0.084558         1
        57        19        20        58     9      180.000000       11.520937         2
        57        19        20        58     9        0.000000       -0.587926         3
        57        19        20        58     9      180.000000        0.263272         4
        58        20        21        59     9        0.000000       -0.180341         1
        58        20        21        59     9      180.000000       11.789160         2
        58        20        21        59     9        0.000000       -0.659630         3
        58        20        21        59     9      180.000000        0.310085         4
        61        24        25        62     9        0.000000       -0.149690         1
        61        24        25        62     9      180.000000       12.317766         2
        61        24        25        62     9        0.000000       -0.778015         3
        61        24        25        62     9      180.000000        0.331039         4

[ dihedrals ] ; impropers
;       ai        aj        ak        al funct           phase               k        pn
         7         6         8         9     4      180.000000       13.084765         2
         7         8         9         6     4      180.000000       13.084765         2
         7         9         6         8     4      180.000000       13.084765         2
        17        16        18        55     4      180.000000        0.182437         2
        17        18        55        16     4      180.000000        0.182437         2
        17        55        16        18     4      180.000000        0.182437         2
        18        17        19        56     4      180.000000        0.258179         2
        18        19        56        17     4      180.000000        0.258179         2
        18        56        17        19     4      180.000000        0.258179         2
        19        18        20        57     4      180.000000        0.333131         2
        19        20        57        18     4      180.000000        0.333131         2
        19        57        18        20     4      180.000000        0.333131         2
        20        19        21        58     4      180.000000        0.258179         2
        20        21        58        19     4      180.000000        0.258179         2
        20        58        19        21     4      180.000000        0.258179         2
        21        16        20        59     4      180.000000        0.182437         2
        21        20        59        16     4      180.000000        0.182437         2
        21        59        16        20     4      180.000000        0.182437         2

[ pairs ]
;       ai        aj funct
         1         5     1
         1        38     1
         1        39     1
         1        40     1
         1        41     1
         1        42     1
         2         6     1
         2        43     1
         2        44     1
         3         5     1
         3        35     1
         3        36     1
         3        37     1
         3        41     1
         3        42     1
         4         7     1
         4        35     1
         4        36     1
         4        37     1
         4        38     1
         4        39     1
         4        40     1
         5         8     1
         5         9     1
         5        65     1
         6        10     1
         6        41     1
         6        42     1
         6        45     1
         7        11     1
         7        43     1
         7        44     1
         7        46     1
         7        47     1
         8        10     1
         8        45     1
         9        12     1
         9        34     1
         9        48     1
        10        13     1
        10        33     1
        10        49     1
        10        50     1
        11        14     1
        11        32     1
        11        45     1
        11        51     1
        11        52     1
        11        64     1
        12        15     1
        12        33     1
        12        46     1
        12        47     1
        12        53     1
        13        16     1
        13        22     1
        13        32     1
        13        34     1
        13        48     1
        13        54     1
        13        64     1
        14        17     1
        14        21     1
        14        23     1
        14        31     1
        14        49     1
        14        50     1
        14        60     1
        15        18     1
        15        20     1
        15        24     1
        15        32     1
        15        34     1
        15        51     1
        15        52     1
        15        55     1
        15        59     1
        15        64     1
        16        19     1
        16        23     1
        16        33     1
        16        53     1
        16        56     1
        16        58     1
        16        60     1
        17        20     1
        17        22     1
        17        54     1
        17        57     1
        17        59     1
        18        21     1
        18        58     1
        19        55     1
        19        59     1
        20        56     1
        21        22     1
        21        54     1
        21        55     1
        21        57     1
        22        25     1
        22        31     1
        22        33     1
        22        53     1
        22        61     1
        23        26     1
        23        34     1
        23        54     1
        23        62     1
        23        63     1
        23        64     1
        24        27     1
        24        31     1
        24        33     1
        24        60     1
        25        28     1
        25        29     1
        25        30     1
        25        32     1
        25        63     1
        26        33     1
        26        61     1
        27        32     1
        27        62     1
        27        63     1
        28        31     1
        29        31     1
        30        31     1
        31        34     1
        31        62     1
        31        64     1
        32        53     1
        32        60     1
        32        61     1
        33        48     1
        33        51     1
        33        52     1
        33        54     1
        33        63     1
        34        46     1
        34        47     1
        34        49     1
        34        50     1
        34        53     1
        35        65     1
        36        65     1
        37        65     1
        38        65     1
        39        65     1
        40        65     1
        41        43     1
        41        44     1
        41        65     1
        42        43     1
        42        44     1
        42        65     1
        45        46     1
        45        47     1
        46        48     1
        47        48     1
        48        49     1
        48        50     1
        49        51     1
        49        52     1
        50        51     1
        50        52     1
        51        53     1
        52        53     1
        53        54     1
        53        64     1
        54        60     1
        55        56     1
        56        57     1
        57        58     1
        58        59     1
        61        62     1
