; ITP file created by ByteFF-ML, 2026-02-21 07:37:59.148027

[ atomtypes ]
;name           bonded.type        at.num        mass        charge   ptype           sigma         epsilon
 c0bf                                   6      0.0000       0.00000       A     3.39772e-01     4.50374e-01
 c1bf                                   6      0.0000       0.00000       A     3.39867e-01     4.54082e-01
 c2bf                                   6      0.0000       0.00000       A     3.39772e-01     4.50374e-01
 c3bf                                   6      0.0000       0.00000       A     3.39772e-01     4.50374e-01
 c4bf                                   6      0.0000       0.00000       A     3.31513e-01     4.12293e-01
 c5bf                                   6      0.0000       0.00000       A     3.31494e-01     4.12775e-01
 c6bf                                   6      0.0000       0.00000       A     3.31495e-01     4.14234e-01
 c7bf                                   6      0.0000       0.00000       A     3.31454e-01     4.11042e-01
 c8bf                                   6      0.0000       0.00000       A     3.31296e-01     4.09623e-01
 c9bf                                   6      0.0000       0.00000       A     3.31271e-01     4.12345e-01
 c10bf                                  6      0.0000       0.00000       A     3.39728e-01     4.52323e-01
 o11bf                                  8      0.0000       0.00000       A     3.15787e-01     3.02296e-01
 c12bf                                  6      0.0000       0.00000       A     3.39725e-01     4.51957e-01
 c13bf                                  6      0.0000       0.00000       A     3.39741e-01     4.51506e-01
 c14bf                                  6      0.0000       0.00000       A     3.39888e-01     4.51445e-01
 c15bf                                  6      0.0000       0.00000       A     3.40224e-01     4.50974e-01
 c16bf                                  6      0.0000       0.00000       A     3.39394e-01     4.49643e-01
 c17bf                                  6      0.0000       0.00000       A     3.31427e-01     4.11373e-01
 c18bf                                  6      0.0000       0.00000       A     3.31542e-01     4.13637e-01
 c19bf                                  6      0.0000       0.00000       A     3.31479e-01     4.13522e-01
 c20bf                                  6      0.0000       0.00000       A     3.31654e-01     4.11454e-01
 o21bf                                  8      0.0000       0.00000       A     3.24358e-01     3.88844e-01
 c22bf                                  6      0.0000       0.00000       A     3.31501e-01     4.12482e-01
 f23bf                                  9      0.0000       0.00000       A     3.03381e-01     3.47745e-01
 c24bf                                  6      0.0000       0.00000       A     3.31638e-01     4.14332e-01
 n25bf                                  7      0.0000       0.00000       A     3.28286e-01     6.41163e-01
 h26bf                                  1      0.0000       0.00000       A     2.59968e-01     8.75795e-02
 h27bf                                  1      0.0000       0.00000       A     2.59968e-01     8.75795e-02
 h28bf                                  1      0.0000       0.00000       A     2.59968e-01     8.75795e-02
 h29bf                                  1      0.0000       0.00000       A     2.59968e-01     8.75795e-02
 h30bf                                  1      0.0000       0.00000       A     2.59968e-01     8.75795e-02
 h31bf                                  1      0.0000       0.00000       A     2.59968e-01     8.75795e-02
 h32bf                                  1      0.0000       0.00000       A     2.59968e-01     8.75795e-02
 h33bf                                  1      0.0000       0.00000       A     2.59968e-01     8.75795e-02
 h34bf                                  1      0.0000       0.00000       A     2.59968e-01     8.75795e-02
 h35bf                                  1      0.0000       0.00000       A     2.62486e-01     6.76526e-02
 h36bf                                  1      0.0000       0.00000       A     2.62406e-01     6.70142e-02
 h37bf                                  1      0.0000       0.00000       A     2.62333e-01     6.71626e-02
 h38bf                                  1      0.0000       0.00000       A     2.42784e-01     8.90383e-02
 h39bf                                  1      0.0000       0.00000       A     2.42137e-01     8.75316e-02
 h40bf                                  1      0.0000       0.00000       A     2.42137e-01     8.75316e-02
 h41bf                                  1      0.0000       0.00000       A     2.60214e-01     8.73226e-02
 h42bf                                  1      0.0000       0.00000       A     2.60214e-01     8.73226e-02
 h43bf                                  1      0.0000       0.00000       A     2.60011e-01     8.65931e-02
 h44bf                                  1      0.0000       0.00000       A     2.60011e-01     8.65931e-02
 h45bf                                  1      0.0000       0.00000       A     2.59608e-01     8.66043e-02
 h46bf                                  1      0.0000       0.00000       A     2.42675e-01     8.80520e-02
 h47bf                                  1      0.0000       0.00000       A     2.62514e-01     6.75903e-02
 h48bf                                  1      0.0000       0.00000       A     2.62406e-01     6.70988e-02
 h49bf                                  1      0.0000       0.00000       A     5.37176e-02     1.98822e-02
 h50bf                                  1      0.0000       0.00000       A     2.62399e-01     6.71849e-02
 h51bf                                  1      0.0000       0.00000       A     1.10887e-01     4.11451e-02

[ moleculetype ]
;name             nrexcl
 CHEMBL1078774         3

[ atoms ]
;       nr            type      resi   res      atom      cgnr      charge          mass ; qtot
         1            c0bf         1   UNL        c0         1    -0.08750       12.0110 ; qtot   -0.087
         2            c1bf         1   UNL        c1         2     0.00063       12.0110 ; qtot   -0.087
         3            c2bf         1   UNL        c2         3    -0.08750       12.0110 ; qtot   -0.174
         4            c3bf         1   UNL        c3         4    -0.08750       12.0110 ; qtot   -0.262
         5            c4bf         1   UNL        c4         5    -0.10900       12.0110 ; qtot   -0.371
         6            c5bf         1   UNL        c5         6    -0.07284       12.0110 ; qtot   -0.444
         7            c6bf         1   UNL        c6         7    -0.17114       12.0110 ; qtot   -0.615
         8            c7bf         1   UNL        c7         8     0.28943       12.0110 ; qtot   -0.325
         9            c8bf         1   UNL        c8         9    -0.15575       12.0110 ; qtot   -0.481
        10            c9bf         1   UNL        c9        10    -0.05255       12.0110 ; qtot   -0.534
        11           c10bf         1   UNL       c10        11     0.22487       12.0110 ; qtot   -0.309
        12           o11bf         1   UNL       o11        12    -0.45639       15.9990 ; qtot   -0.765
        13           c12bf         1   UNL       c12        13     0.15360       12.0110 ; qtot   -0.612
        14           c13bf         1   UNL       c13        14    -0.11007       12.0110 ; qtot   -0.722
        15           c14bf         1   UNL       c14        15    -0.06818       12.0110 ; qtot   -0.790
        16           c15bf         1   UNL       c15        16    -0.09828       12.0110 ; qtot   -0.888
        17           c16bf         1   UNL       c16        17     0.26480       12.0110 ; qtot   -0.623
        18           c17bf         1   UNL       c17        18    -0.10486       12.0110 ; qtot   -0.728
        19           c18bf         1   UNL       c18        19    -0.07076       12.0110 ; qtot   -0.799
        20           c19bf         1   UNL       c19        20    -0.14132       12.0110 ; qtot   -0.940
        21           c20bf         1   UNL       c20        21     0.09695       12.0110 ; qtot   -0.843
        22           o21bf         1   UNL       o21        22    -0.52349       15.9990 ; qtot   -1.367
        23           c22bf         1   UNL       c22        23     0.09041       12.0110 ; qtot   -1.276
        24           f23bf         1   UNL       f23        24    -0.17917       18.9980 ; qtot   -1.456
        25           c24bf         1   UNL       c24        25    -0.09266       12.0110 ; qtot   -1.548
        26           n25bf         1   UNL       n25        26    -0.92316       14.0070 ; qtot   -2.471
        27           h26bf         1   UNL       h26        27     0.03657        1.0080 ; qtot   -2.435
        28           h27bf         1   UNL       h27        28     0.03657        1.0080 ; qtot   -2.398
        29           h28bf         1   UNL       h28        29     0.03657        1.0080 ; qtot   -2.362
        30           h29bf         1   UNL       h29        30     0.03657        1.0080 ; qtot   -2.325
        31           h30bf         1   UNL       h30        31     0.03657        1.0080 ; qtot   -2.289
        32           h31bf         1   UNL       h31        32     0.03657        1.0080 ; qtot   -2.252
        33           h32bf         1   UNL       h32        33     0.03657        1.0080 ; qtot   -2.215
        34           h33bf         1   UNL       h33        34     0.03657        1.0080 ; qtot   -2.179
        35           h34bf         1   UNL       h34        35     0.03657        1.0080 ; qtot   -2.142
        36           h35bf         1   UNL       h35        36     0.11563        1.0080 ; qtot   -2.027
        37           h36bf         1   UNL       h36        37     0.11606        1.0080 ; qtot   -1.911
        38           h37bf         1   UNL       h37        38     0.11995        1.0080 ; qtot   -1.791
        39           h38bf         1   UNL       h38        39     0.05487        1.0080 ; qtot   -1.736
        40           h39bf         1   UNL       h39        40     0.04701        1.0080 ; qtot   -1.689
        41           h40bf         1   UNL       h40        41     0.04701        1.0080 ; qtot   -1.642
        42           h41bf         1   UNL       h41        42     0.04954        1.0080 ; qtot   -1.592
        43           h42bf         1   UNL       h42        43     0.04954        1.0080 ; qtot   -1.543
        44           h43bf         1   UNL       h43        44     0.04810        1.0080 ; qtot   -1.495
        45           h44bf         1   UNL       h44        45     0.04810        1.0080 ; qtot   -1.446
        46           h45bf         1   UNL       h45        46     0.06789        1.0080 ; qtot   -1.379
        47           h46bf         1   UNL       h46        47     0.05666        1.0080 ; qtot   -1.322
        48           h47bf         1   UNL       h47        48     0.12335        1.0080 ; qtot   -1.199
        49           h48bf         1   UNL       h48        49     0.12915        1.0080 ; qtot   -1.069
        50           h49bf         1   UNL       h49        50     0.47251        1.0080 ; qtot   -0.597
        51           h50bf         1   UNL       h50        51     0.13914        1.0080 ; qtot   -0.458
        52           h51bf         1   UNL       h51        52     0.45779        1.0080 ; qtot    0.000

[ bonds ]
;       ai        aj funct               r               k
         1         2     1        0.154414   170954.552441
         1        27     1        0.109415   298687.904785
         1        28     1        0.109415   298687.904785
         1        29     1        0.109415   298687.904785
         2         3     1        0.154414   170954.552441
         2         4     1        0.154414   170954.552441
         2         5     1        0.153459   164414.179517
         3        30     1        0.109415   298687.904785
         3        31     1        0.109415   298687.904785
         3        32     1        0.109415   298687.904785
         4        33     1        0.109415   298687.904785
         4        34     1        0.109415   298687.904785
         4        35     1        0.109415   298687.904785
         5         6     1        0.140490   282236.796777
         5        10     1        0.140242   281430.079492
         6         7     1        0.139232   329254.803223
         6        36     1        0.108572   318246.879004
         7         8     1        0.140519   280318.270361
         7        37     1        0.108692   314821.944043
         8         9     1        0.140983   267526.298145
         8        26     1        0.140120   267840.302441
         9        10     1        0.139690   302459.020801
         9        11     1        0.151176   191189.736548
        10        38     1        0.108557   317207.952783
        11        12     1        0.143550   180918.136572
        11        16     1        0.153825   166667.969873
        11        39     1        0.110060   278479.266504
        12        13     1        0.143239   192866.183936
        13        14     1        0.153236   183760.135938
        13        40     1        0.109612   292242.721436
        13        41     1        0.109612   292242.721436
        14        15     1        0.153739   183841.892993
        14        42     1        0.109516   296518.655029
        14        43     1        0.109516   296518.655029
        15        16     1        0.153769   176136.695898
        15        44     1        0.109484   296390.177832
        15        45     1        0.109484   296390.177832
        16        17     1        0.154241   162612.115088
        16        46     1        0.109656   296483.005225
        17        18     1        0.151988   180929.934717
        17        26     1        0.146606   194333.354712
        17        47     1        0.109900   282468.341748
        18        19     1        0.140067   289570.620459
        18        25     1        0.140413   284842.220361
        19        20     1        0.139748   319815.776855
        19        48     1        0.108622   317980.807861
        20        21     1        0.139789   296407.823975
        20        49     1        0.108589   320389.723389
        21        22     1        0.136823   295620.285059
        21        23     1        0.139987   276413.978320
        22        50     1        0.097153   464033.384375
        23        24     1        0.136336   282188.582715
        23        25     1        0.138457   329788.273438
        25        51     1        0.108538   321330.536035
        26        52     1        0.101355   410549.688281

[ angles ]
;       ai        aj        ak funct           theta             cth
         1         2         3     1      108.597389      558.465108
         1         2         4     1      108.597389      558.465108
         1         2         5     1      110.375267      651.238681
         2         1        27     1      111.037216      474.616435
         2         1        28     1      111.037216      474.616435
         2         1        29     1      111.037216      474.616435
         2         3        30     1      111.037216      474.616435
         2         3        31     1      111.037216      474.616435
         2         3        32     1      111.037216      474.616435
         2         4        33     1      111.037216      474.616435
         2         4        34     1      111.037216      474.616435
         2         4        35     1      111.037216      474.616435
         2         5         6     1      121.634232      520.072937
         2         5        10     1      121.651917      457.842736
         3         2         4     1      108.597389      558.465108
         3         2         5     1      110.375267      651.238681
         4         2         5     1      110.375267      651.238681
         5         6         7     1      121.554367      682.328132
         5         6        36     1      119.969864      408.296530
         5        10         9     1      122.767883      676.762702
         5        10        38     1      119.777512      396.482106
         6         5        10     1      116.841629      645.210391
         6         7         8     1      120.841492      766.110728
         6         7        37     1      119.752075      440.364053
         7         6        36     1      118.573975      426.395765
         7         8         9     1      118.739220      649.581195
         7         8        26     1      120.154091      539.485098
         8         7        37     1      119.252686      422.216681
         8         9        10     1      119.146629      766.119474
         8         9        11     1      120.117088      556.339782
         8        26        17     1      118.371666      536.527326
         8        26        52     1      113.638138      488.208051
         9         8        26     1      120.459511      574.804580
         9        10        38     1      117.888382      404.471550
         9        11        12     1      109.823265      642.923542
         9        11        16     1      112.012329      576.810392
         9        11        39     1      108.654198      462.147207
        10         9        11     1      120.650597      471.952340
        11        12        13     1      112.658241      607.273674
        11        16        15     1      110.105003      606.743970
        11        16        17     1      109.545654      676.041534
        11        16        46     1      107.208214      503.533891
        12        11        16     1      111.133713      584.398170
        12        11        39     1      107.123779      472.293611
        12        13        14     1      111.778992      604.880655
        12        13        40     1      107.407181      487.184459
        12        13        41     1      107.407181      487.184459
        13        14        15     1      110.190475      650.990205
        13        14        42     1      109.426193      501.313982
        13        14        43     1      109.426193      501.313982
        14        13        40     1      110.939331      481.591130
        14        13        41     1      110.939331      481.591162
        14        15        16     1      110.515076      629.788658
        14        15        44     1      110.010902      497.900661
        14        15        45     1      110.010902      497.900661
        15        14        42     1      110.377014      506.891032
        15        14        43     1      110.377014      506.891032
        15        16        17     1      113.379288      594.370219
        15        16        46     1      108.744408      484.153396
        16        11        39     1      108.280960      469.625143
        16        15        44     1      109.587547      497.756408
        16        15        45     1      109.587547      497.756408
        16        17        18     1      112.778137      537.126171
        16        17        26     1      108.717529      594.970214
        16        17        47     1      107.236526      478.439117
        17        16        46     1      107.083168      495.023905
        17        18        19     1      121.019447      493.974107
        17        18        25     1      120.258827      484.509192
        17        26        52     1      113.227478      469.714172
        18        17        26     1      111.118546      590.807729
        18        17        47     1      107.622536      485.850146
        18        19        20     1      121.074196      677.663141
        18        19        48     1      119.688828      404.444225
        18        25        23     1      119.597916      682.882224
        18        25        51     1      121.327248      394.744944
        19        18        25     1      118.697350      630.527702
        19        20        21     1      120.297646      761.857267
        19        20        49     1      120.868370      428.430274
        20        19        48     1      119.176857      422.984358
        20        21        22     1      121.271072      626.909094
        20        21        23     1      117.585220      563.898638
        21        20        49     1      118.797829      450.313470
        21        22        50     1      108.454880      573.778371
        21        23        24     1      117.446671      430.203348
        21        23        25     1      122.469345      656.099861
        22        21        23     1      121.148392      403.080735
        23        25        51     1      118.828331      432.317054
        24        23        25     1      119.962219      559.531282
        26        17        47     1      109.245811      442.050077
        27         1        28     1      107.883362      362.487840
        27         1        29     1      107.883362      362.487840
        28         1        29     1      107.883362      362.487840
        30         3        31     1      107.883362      362.487840
        30         3        32     1      107.883362      362.487840
        31         3        32     1      107.883362      362.487840
        33         4        34     1      107.883362      362.487840
        33         4        35     1      107.883377      362.487840
        34         4        35     1      107.883377      362.487840
        40        13        41     1      107.938248      342.346339
        42        14        43     1      107.040810      361.114550
        44        15        45     1      106.573685      361.821577

[ dihedrals ] ; propers for gromacs 4.5 or higher, use funct 9
;       ai        aj        ak        al funct           phase               k        pn
         1         2         3        30     9        0.000000       -0.087544         1
         1         2         3        30     9      180.000000        0.034291         2
         1         2         3        30     9        0.000000        0.537560         3
         1         2         3        30     9      180.000000        0.036946         4
         1         2         3        31     9        0.000000       -0.087544         1
         1         2         3        31     9      180.000000        0.034291         2
         1         2         3        31     9        0.000000        0.537560         3
         1         2         3        31     9      180.000000        0.036946         4
         1         2         3        32     9        0.000000       -0.087544         1
         1         2         3        32     9      180.000000        0.034291         2
         1         2         3        32     9        0.000000        0.537560         3
         1         2         3        32     9      180.000000        0.036946         4
         1         2         4        33     9        0.000000       -0.087544         1
         1         2         4        33     9      180.000000        0.034291         2
         1         2         4        33     9        0.000000        0.537560         3
         1         2         4        33     9      180.000000        0.036946         4
         1         2         4        34     9        0.000000       -0.087544         1
         1         2         4        34     9      180.000000        0.034291         2
         1         2         4        34     9        0.000000        0.537560         3
         1         2         4        34     9      180.000000        0.036946         4
         1         2         4        35     9        0.000000       -0.087544         1
         1         2         4        35     9      180.000000        0.034291         2
         1         2         4        35     9        0.000000        0.537560         3
         1         2         4        35     9      180.000000        0.036946         4
         1         2         5         6     9        0.000000        0.066118         1
         1         2         5         6     9      180.000000        0.256919         2
         1         2         5         6     9        0.000000        0.081785         3
         1         2         5         6     9      180.000000        0.232755         4
         1         2         5        10     9        0.000000       -0.084442         1
         1         2         5        10     9      180.000000        0.316333         2
         1         2         5        10     9        0.000000       -0.069832         3
         1         2         5        10     9      180.000000        0.262308         4
         2         5         6         7     9        0.000000       -0.015529         1
         2         5         6         7     9      180.000000       14.441998         2
         2         5         6         7     9        0.000000       -0.038910         3
         2         5         6         7     9      180.000000       -0.170463         4
         2         5         6        36     9        0.000000       -0.003084         1
         2         5         6        36     9      180.000000       12.620195         2
         2         5         6        36     9        0.000000       -0.269328         3
         2         5         6        36     9      180.000000        0.172534         4
         2         5        10         9     9        0.000000        0.003069         1
         2         5        10         9     9      180.000000       14.254698         2
         2         5        10         9     9        0.000000       -0.042586         3
         2         5        10         9     9      180.000000       -0.261407         4
         2         5        10        38     9        0.000000       -0.016810         1
         2         5        10        38     9      180.000000       12.814783         2
         2         5        10        38     9        0.000000       -0.264071         3
         2         5        10        38     9      180.000000        0.141286         4
         3         2         1        27     9        0.000000       -0.087544         1
         3         2         1        27     9      180.000000        0.034291         2
         3         2         1        27     9        0.000000        0.537560         3
         3         2         1        27     9      180.000000        0.036946         4
         3         2         1        28     9        0.000000       -0.087544         1
         3         2         1        28     9      180.000000        0.034291         2
         3         2         1        28     9        0.000000        0.537560         3
         3         2         1        28     9      180.000000        0.036946         4
         3         2         1        29     9        0.000000       -0.087544         1
         3         2         1        29     9      180.000000        0.034291         2
         3         2         1        29     9        0.000000        0.537560         3
         3         2         1        29     9      180.000000        0.036946         4
         3         2         4        33     9        0.000000       -0.087544         1
         3         2         4        33     9      180.000000        0.034291         2
         3         2         4        33     9        0.000000        0.537560         3
         3         2         4        33     9      180.000000        0.036946         4
         3         2         4        34     9        0.000000       -0.087544         1
         3         2         4        34     9      180.000000        0.034291         2
         3         2         4        34     9        0.000000        0.537560         3
         3         2         4        34     9      180.000000        0.036946         4
         3         2         4        35     9        0.000000       -0.087544         1
         3         2         4        35     9      180.000000        0.034291         2
         3         2         4        35     9        0.000000        0.537560         3
         3         2         4        35     9      180.000000        0.036946         4
         3         2         5         6     9        0.000000        0.066118         1
         3         2         5         6     9      180.000000        0.256919         2
         3         2         5         6     9        0.000000        0.081785         3
         3         2         5         6     9      180.000000        0.232755         4
         3         2         5        10     9        0.000000       -0.084442         1
         3         2         5        10     9      180.000000        0.316333         2
         3         2         5        10     9        0.000000       -0.069832         3
         3         2         5        10     9      180.000000        0.262308         4
         4         2         1        27     9        0.000000       -0.087544         1
         4         2         1        27     9      180.000000        0.034291         2
         4         2         1        27     9        0.000000        0.537560         3
         4         2         1        27     9      180.000000        0.036946         4
         4         2         1        28     9        0.000000       -0.087544         1
         4         2         1        28     9      180.000000        0.034291         2
         4         2         1        28     9        0.000000        0.537560         3
         4         2         1        28     9      180.000000        0.036946         4
         4         2         1        29     9        0.000000       -0.087544         1
         4         2         1        29     9      180.000000        0.034291         2
         4         2         1        29     9        0.000000        0.537560         3
         4         2         1        29     9      180.000000        0.036946         4
         4         2         3        30     9        0.000000       -0.087544         1
         4         2         3        30     9      180.000000        0.034291         2
         4         2         3        30     9        0.000000        0.537560         3
         4         2         3        30     9      180.000000        0.036946         4
         4         2         3        31     9        0.000000       -0.087544         1
         4         2         3        31     9      180.000000        0.034291         2
         4         2         3        31     9        0.000000        0.537560         3
         4         2         3        31     9      180.000000        0.036946         4
         4         2         3        32     9        0.000000       -0.087544         1
         4         2         3        32     9      180.000000        0.034291         2
         4         2         3        32     9        0.000000        0.537560         3
         4         2         3        32     9      180.000000        0.036946         4
         4         2         5         6     9        0.000000        0.066118         1
         4         2         5         6     9      180.000000        0.256919         2
         4         2         5         6     9        0.000000        0.081785         3
         4         2         5         6     9      180.000000        0.232755         4
         4         2         5        10     9        0.000000       -0.084442         1
         4         2         5        10     9      180.000000        0.316333         2
         4         2         5        10     9        0.000000       -0.069832         3
         4         2         5        10     9      180.000000        0.262308         4
         5         2         1        27     9        0.000000       -0.010429         1
         5         2         1        27     9      180.000000        0.022823         2
         5         2         1        27     9        0.000000        0.616609         3
         5         2         1        27     9      180.000000       -0.012818         4
         5         2         1        28     9        0.000000       -0.010429         1
         5         2         1        28     9      180.000000        0.022823         2
         5         2         1        28     9        0.000000        0.616609         3
         5         2         1        28     9      180.000000       -0.012818         4
         5         2         1        29     9        0.000000       -0.010429         1
         5         2         1        29     9      180.000000        0.022823         2
         5         2         1        29     9        0.000000        0.616609         3
         5         2         1        29     9      180.000000       -0.012818         4
         5         2         3        30     9        0.000000       -0.010429         1
         5         2         3        30     9      180.000000        0.022823         2
         5         2         3        30     9        0.000000        0.616609         3
         5         2         3        30     9      180.000000       -0.012818         4
         5         2         3        31     9        0.000000       -0.010429         1
         5         2         3        31     9      180.000000        0.022823         2
         5         2         3        31     9        0.000000        0.616609         3
         5         2         3        31     9      180.000000       -0.012818         4
         5         2         3        32     9        0.000000       -0.010429         1
         5         2         3        32     9      180.000000        0.022823         2
         5         2         3        32     9        0.000000        0.616609         3
         5         2         3        32     9      180.000000       -0.012818         4
         5         2         4        33     9        0.000000       -0.010429         1
         5         2         4        33     9      180.000000        0.022823         2
         5         2         4        33     9        0.000000        0.616609         3
         5         2         4        33     9      180.000000       -0.012818         4
         5         2         4        34     9        0.000000       -0.010429         1
         5         2         4        34     9      180.000000        0.022823         2
         5         2         4        34     9        0.000000        0.616609         3
         5         2         4        34     9      180.000000       -0.012818         4
         5         2         4        35     9        0.000000       -0.010429         1
         5         2         4        35     9      180.000000        0.022823         2
         5         2         4        35     9        0.000000        0.616609         3
         5         2         4        35     9      180.000000       -0.012818         4
         5         6         7         8     9        0.000000        0.042972         1
         5         6         7         8     9      180.000000       17.877930         2
         5         6         7         8     9        0.000000       -1.815754         3
         5         6         7         8     9      180.000000       -0.374703         4
         5         6         7        37     9        0.000000        0.017015         1
         5         6         7        37     9      180.000000       14.679926         2
         5         6         7        37     9        0.000000       -0.662311         3
         5         6         7        37     9      180.000000        0.174306         4
         5        10         9         8     9        0.000000        0.088558         1
         5        10         9         8     9      180.000000       18.698307         2
         5        10         9         8     9        0.000000       -1.677828         3
         5        10         9         8     9      180.000000       -0.416696         4
         5        10         9        11     9        0.000000        0.017762         1
         5        10         9        11     9      180.000000       16.569428         2
         5        10         9        11     9        0.000000       -0.177744         3
         5        10         9        11     9      180.000000       -0.306536         4
         6         5        10         9     9        0.000000       -0.064636         1
         6         5        10         9     9      180.000000       18.766140         2
         6         5        10         9     9        0.000000       -1.621197         3
         6         5        10         9     9      180.000000       -0.487309         4
         6         5        10        38     9        0.000000       -0.055040         1
         6         5        10        38     9      180.000000       14.417531         2
         6         5        10        38     9        0.000000       -0.625288         3
         6         5        10        38     9      180.000000        0.064387         4
         6         7         8         9     9        0.000000        0.002214         1
         6         7         8         9     9      180.000000       17.282279         2
         6         7         8         9     9        0.000000       -0.814436         3
         6         7         8         9     9      180.000000       -0.345060         4
         6         7         8        26     9        0.000000        0.311214         1
         6         7         8        26     9      180.000000       18.888934         2
         6         7         8        26     9        0.000000        0.279434         3
         6         7         8        26     9      180.000000       -0.274413         4
         7         6         5        10     9        0.000000       -0.093126         1
         7         6         5        10     9      180.000000       18.828223         2
         7         6         5        10     9        0.000000       -1.489035         3
         7         6         5        10     9      180.000000       -0.423210         4
         7         8         9        10     9        0.000000       -0.006452         1
         7         8         9        10     9      180.000000       14.903731         2
         7         8         9        10     9        0.000000       -0.773351         3
         7         8         9        10     9      180.000000       -0.244739         4
         7         8         9        11     9        0.000000        0.095453         1
         7         8         9        11     9      180.000000       12.180329         2
         7         8         9        11     9        0.000000       -0.202406         3
         7         8         9        11     9      180.000000       -0.086784         4
         7         8        26        17     9        0.000000       -0.674900         1
         7         8        26        17     9      180.000000        2.743863         2
         7         8        26        17     9        0.000000       -0.098849         3
         7         8        26        17     9      180.000000        0.420208         4
         7         8        26        52     9        0.000000       -0.432814         1
         7         8        26        52     9      180.000000        4.115105         2
         7         8        26        52     9        0.000000       -0.041865         3
         7         8        26        52     9      180.000000        0.279660         4
         8         7         6        36     9        0.000000        0.109939         1
         8         7         6        36     9      180.000000       13.899801         2
         8         7         6        36     9        0.000000       -0.667814         3
         8         7         6        36     9      180.000000        0.187733         4
         8         9        10        38     9        0.000000        0.161713         1
         8         9        10        38     9      180.000000       13.981557         2
         8         9        10        38     9        0.000000       -0.251784         3
         8         9        10        38     9      180.000000        0.187181         4
         8         9        11        12     9        0.000000       -3.474185         1
         8         9        11        12     9      180.000000       -1.539894         2
         8         9        11        12     9        0.000000        0.645078         3
         8         9        11        12     9      180.000000       -0.093480         4
         8         9        11        16     9        0.000000        4.088928         1
         8         9        11        16     9      180.000000       -4.011127         2
         8         9        11        16     9        0.000000       -0.197836         3
         8         9        11        16     9      180.000000        0.841800         4
         8         9        11        39     9        0.000000        0.127554         1
         8         9        11        39     9      180.000000        0.322314         2
         8         9        11        39     9        0.000000        0.157800         3
         8         9        11        39     9      180.000000        0.001625         4
         8        26        17        16     9        0.000000        6.012099         1
         8        26        17        16     9      180.000000       -3.129667         2
         8        26        17        16     9        0.000000       -0.090834         3
         8        26        17        16     9      180.000000        0.725823         4
         8        26        17        18     9        0.000000        0.899069         1
         8        26        17        18     9      180.000000       -0.637573         2
         8        26        17        18     9        0.000000        0.747083         3
         8        26        17        18     9      180.000000        0.089461         4
         8        26        17        47     9        0.000000       -0.105437         1
         8        26        17        47     9      180.000000       -0.157727         2
         8        26        17        47     9        0.000000        0.618010         3
         8        26        17        47     9      180.000000       -0.030382         4
         9         8         7        37     9        0.000000        0.015863         1
         9         8         7        37     9      180.000000       12.765982         2
         9         8         7        37     9        0.000000       -0.231500         3
         9         8         7        37     9      180.000000        0.015488         4
         9         8        26        17     9        0.000000        3.421242         1
         9         8        26        17     9      180.000000        0.452071         2
         9         8        26        17     9        0.000000       -0.199246         3
         9         8        26        17     9      180.000000        1.022502         4
         9         8        26        52     9        0.000000        6.748374         1
         9         8        26        52     9      180.000000        3.723048         2
         9         8        26        52     9        0.000000       -0.647499         3
         9         8        26        52     9      180.000000        0.444599         4
         9        11        12        13     9        0.000000       -0.078955         1
         9        11        12        13     9      180.000000       -0.773544         2
         9        11        12        13     9        0.000000        0.805396         3
         9        11        12        13     9      180.000000        0.072715         4
         9        11        16        15     9        0.000000        0.697917         1
         9        11        16        15     9      180.000000       -1.665062         2
         9        11        16        15     9        0.000000        0.346908         3
         9        11        16        15     9      180.000000        0.028014         4
         9        11        16        17     9        0.000000        2.061439         1
         9        11        16        17     9      180.000000       -2.831750         2
         9        11        16        17     9        0.000000        0.070554         3
         9        11        16        17     9      180.000000        0.168776         4
         9        11        16        46     9        0.000000       -0.107843         1
         9        11        16        46     9      180.000000        0.030855         2
         9        11        16        46     9        0.000000        0.092468         3
         9        11        16        46     9      180.000000        0.215405         4
        10         5         6        36     9        0.000000       -0.000999         1
        10         5         6        36     9      180.000000       14.590484         2
        10         5         6        36     9        0.000000       -0.653741         3
        10         5         6        36     9      180.000000        0.015674         4
        10         9         8        26     9        0.000000        0.145666         1
        10         9         8        26     9      180.000000       17.292555         2
        10         9         8        26     9        0.000000        0.125965         3
        10         9         8        26     9      180.000000       -0.551365         4
        10         9        11        12     9        0.000000       -0.237390         1
        10         9        11        12     9      180.000000        0.298520         2
        10         9        11        12     9        0.000000       -0.795898         3
        10         9        11        12     9      180.000000        0.152098         4
        10         9        11        16     9        0.000000       -0.957675         1
        10         9        11        16     9      180.000000       -1.028028         2
        10         9        11        16     9        0.000000       -0.585690         3
        10         9        11        16     9      180.000000        0.266293         4
        10         9        11        39     9        0.000000        0.214246         1
        10         9        11        39     9      180.000000       -0.024224         2
        10         9        11        39     9        0.000000       -0.681040         3
        10         9        11        39     9      180.000000       -0.043991         4
        11         9         8        26     9        0.000000       -0.041169         1
        11         9         8        26     9      180.000000       16.023257         2
        11         9         8        26     9        0.000000        0.487061         3
        11         9         8        26     9      180.000000       -0.528903         4
        11         9        10        38     9        0.000000        0.014040         1
        11         9        10        38     9      180.000000       12.649502         2
        11         9        10        38     9        0.000000       -0.295641         3
        11         9        10        38     9      180.000000        0.192238         4
        11        12        13        14     9        0.000000        2.342349         1
        11        12        13        14     9      180.000000       -2.030184         2
        11        12        13        14     9        0.000000        0.309095         3
        11        12        13        14     9      180.000000        0.219840         4
        11        12        13        40     9        0.000000       -0.050130         1
        11        12        13        40     9      180.000000        0.095789         2
        11        12        13        40     9        0.000000        0.342725         3
        11        12        13        40     9      180.000000        0.009062         4
        11        12        13        41     9        0.000000       -0.050130         1
        11        12        13        41     9      180.000000        0.095789         2
        11        12        13        41     9        0.000000        0.342725         3
        11        12        13        41     9      180.000000        0.009062         4
        11        16        15        14     9        0.000000        1.257284         1
        11        16        15        14     9      180.000000       -1.224480         2
        11        16        15        14     9        0.000000        0.110615         3
        11        16        15        14     9      180.000000        0.034641         4
        11        16        15        44     9        0.000000       -0.085116         1
        11        16        15        44     9      180.000000        0.077526         2
        11        16        15        44     9        0.000000        0.204936         3
        11        16        15        44     9      180.000000        0.020587         4
        11        16        15        45     9        0.000000       -0.085116         1
        11        16        15        45     9      180.000000        0.077526         2
        11        16        15        45     9        0.000000        0.204936         3
        11        16        15        45     9      180.000000        0.020587         4
        11        16        17        18     9        0.000000       -0.122012         1
        11        16        17        18     9      180.000000       -0.264517         2
        11        16        17        18     9        0.000000        0.346841         3
        11        16        17        18     9      180.000000        0.096869         4
        11        16        17        26     9        0.000000       -0.545194         1
        11        16        17        26     9      180.000000       -1.667598         2
        11        16        17        26     9        0.000000       -0.233883         3
        11        16        17        26     9      180.000000        0.176561         4
        11        16        17        47     9        0.000000       -0.049774         1
        11        16        17        47     9      180.000000       -0.035482         2
        11        16        17        47     9        0.000000        0.088518         3
        11        16        17        47     9      180.000000        0.150725         4
        12        11        16        15     9        0.000000        0.907159         1
        12        11        16        15     9      180.000000       -2.406662         2
        12        11        16        15     9        0.000000        0.294737         3
        12        11        16        15     9      180.000000        0.164536         4
        12        11        16        17     9        0.000000        1.094007         1
        12        11        16        17     9      180.000000       -4.158596         2
        12        11        16        17     9        0.000000        0.096283         3
        12        11        16        17     9      180.000000        0.369268         4
        12        11        16        46     9        0.000000       -0.534800         1
        12        11        16        46     9      180.000000        0.134636         2
        12        11        16        46     9        0.000000        0.046242         3
        12        11        16        46     9      180.000000        0.186899         4
        12        13        14        15     9        0.000000       -0.305792         1
        12        13        14        15     9      180.000000       -0.588740         2
        12        13        14        15     9        0.000000        0.317413         3
        12        13        14        15     9      180.000000        0.009756         4
        12        13        14        42     9        0.000000       -0.053885         1
        12        13        14        42     9      180.000000        0.015264         2
        12        13        14        42     9        0.000000        0.210759         3
        12        13        14        42     9      180.000000        0.034689         4
        12        13        14        43     9        0.000000       -0.053885         1
        12        13        14        43     9      180.000000        0.015264         2
        12        13        14        43     9        0.000000        0.210759         3
        12        13        14        43     9      180.000000        0.034689         4
        13        12        11        16     9        0.000000        5.876847         1
        13        12        11        16     9      180.000000       -3.249924         2
        13        12        11        16     9        0.000000        0.156603         3
        13        12        11        16     9      180.000000        0.181953         4
        13        12        11        39     9        0.000000       -0.309577         1
        13        12        11        39     9      180.000000        0.205164         2
        13        12        11        39     9        0.000000        0.660790         3
        13        12        11        39     9      180.000000        0.012320         4
        13        14        15        16     9        0.000000        0.507916         1
        13        14        15        16     9      180.000000       -1.208090         2
        13        14        15        16     9        0.000000        0.130090         3
        13        14        15        16     9      180.000000        0.073228         4
        13        14        15        44     9        0.000000        0.000102         1
        13        14        15        44     9      180.000000        0.023990         2
        13        14        15        44     9        0.000000        0.203618         3
        13        14        15        44     9      180.000000        0.001388         4
        13        14        15        45     9        0.000000        0.000102         1
        13        14        15        45     9      180.000000        0.023990         2
        13        14        15        45     9        0.000000        0.203618         3
        13        14        15        45     9      180.000000        0.001388         4
        14        15        16        17     9        0.000000        0.404135         1
        14        15        16        17     9      180.000000       -0.541651         2
        14        15        16        17     9        0.000000        0.390672         3
        14        15        16        17     9      180.000000       -0.014174         4
        14        15        16        46     9        0.000000       -1.031950         1
        14        15        16        46     9      180.000000       -0.011603         2
        14        15        16        46     9        0.000000        0.217445         3
        14        15        16        46     9      180.000000        0.148437         4
        15        14        13        40     9        0.000000       -0.029572         1
        15        14        13        40     9      180.000000        0.011585         2
        15        14        13        40     9        0.000000        0.305781         3
        15        14        13        40     9      180.000000        0.022367         4
        15        14        13        41     9        0.000000       -0.029572         1
        15        14        13        41     9      180.000000        0.011585         2
        15        14        13        41     9        0.000000        0.305781         3
        15        14        13        41     9      180.000000        0.022367         4
        15        16        11        39     9        0.000000       -0.169591         1
        15        16        11        39     9      180.000000        0.243035         2
        15        16        11        39     9        0.000000        0.281612         3
        15        16        11        39     9      180.000000        0.071303         4
        15        16        17        18     9        0.000000        1.429580         1
        15        16        17        18     9      180.000000       -0.606170         2
        15        16        17        18     9        0.000000        0.917897         3
        15        16        17        18     9      180.000000        0.127298         4
        15        16        17        26     9        0.000000       -1.899266         1
        15        16        17        26     9      180.000000        0.376179         2
        15        16        17        26     9        0.000000        0.374262         3
        15        16        17        26     9      180.000000       -0.081886         4
        15        16        17        47     9        0.000000       -0.277614         1
        15        16        17        47     9      180.000000        0.170977         2
        15        16        17        47     9        0.000000        0.524995         3
        15        16        17        47     9      180.000000       -0.010880         4
        16        15        14        42     9        0.000000       -0.038497         1
        16        15        14        42     9      180.000000       -0.006856         2
        16        15        14        42     9        0.000000        0.153147         3
        16        15        14        42     9      180.000000       -0.007532         4
        16        15        14        43     9        0.000000       -0.038497         1
        16        15        14        43     9      180.000000       -0.006856         2
        16        15        14        43     9        0.000000        0.153147         3
        16        15        14        43     9      180.000000       -0.007532         4
        16        17        18        19     9        0.000000       -0.119547         1
        16        17        18        19     9      180.000000       -0.303105         2
        16        17        18        19     9        0.000000        0.107536         3
        16        17        18        19     9      180.000000        0.010396         4
        16        17        18        25     9        0.000000       -0.480744         1
        16        17        18        25     9      180.000000       -0.257541         2
        16        17        18        25     9        0.000000        0.144685         3
        16        17        18        25     9      180.000000       -0.007598         4
        16        17        26        52     9        0.000000        3.576196         1
        16        17        26        52     9      180.000000       -3.208444         2
        16        17        26        52     9        0.000000        0.143948         3
        16        17        26        52     9      180.000000        0.400915         4
        17        16        11        39     9        0.000000       -0.492149         1
        17        16        11        39     9      180.000000        0.192954         2
        17        16        11        39     9        0.000000        0.048779         3
        17        16        11        39     9      180.000000        0.140857         4
        17        16        15        44     9        0.000000       -0.008963         1
        17        16        15        44     9      180.000000        0.033946         2
        17        16        15        44     9        0.000000        0.322119         3
        17        16        15        44     9      180.000000        0.001150         4
        17        16        15        45     9        0.000000       -0.008963         1
        17        16        15        45     9      180.000000        0.033946         2
        17        16        15        45     9        0.000000        0.322119         3
        17        16        15        45     9      180.000000        0.001150         4
        17        18        19        20     9        0.000000        0.097394         1
        17        18        19        20     9      180.000000       14.879202         2
        17        18        19        20     9        0.000000       -0.210343         3
        17        18        19        20     9      180.000000       -0.131148         4
        17        18        19        48     9        0.000000        0.031599         1
        17        18        19        48     9      180.000000       12.715906         2
        17        18        19        48     9        0.000000       -0.402307         3
        17        18        19        48     9      180.000000        0.187281         4
        17        18        25        23     9        0.000000        0.230880         1
        17        18        25        23     9      180.000000       14.497561         2
        17        18        25        23     9        0.000000       -0.129015         3
        17        18        25        23     9      180.000000       -0.129566         4
        17        18        25        51     9        0.000000        0.018250         1
        17        18        25        51     9      180.000000       12.558067         2
        17        18        25        51     9        0.000000       -0.408666         3
        17        18        25        51     9      180.000000        0.177551         4
        18        17        16        46     9        0.000000       -0.040088         1
        18        17        16        46     9      180.000000       -0.048129         2
        18        17        16        46     9        0.000000        0.461774         3
        18        17        16        46     9      180.000000       -0.077996         4
        18        17        26        52     9        0.000000        2.525979         1
        18        17        26        52     9      180.000000       -0.950670         2
        18        17        26        52     9        0.000000        0.102101         3
        18        17        26        52     9      180.000000       -0.160935         4
        18        19        20        21     9        0.000000        0.025788         1
        18        19        20        21     9      180.000000       18.684314         2
        18        19        20        21     9        0.000000       -1.589902         3
        18        19        20        21     9      180.000000       -0.488893         4
        18        19        20        49     9        0.000000        0.086538         1
        18        19        20        49     9      180.000000       14.173399         2
        18        19        20        49     9        0.000000       -0.539888         3
        18        19        20        49     9      180.000000        0.153913         4
        18        25        23        21     9        0.000000        0.045714         1
        18        25        23        21     9      180.000000       17.081872         2
        18        25        23        21     9        0.000000       -1.341493         3
        18        25        23        21     9      180.000000       -0.345516         4
        18        25        23        24     9        0.000000        0.674787         1
        18        25        23        24     9      180.000000       22.556987         2
        18        25        23        24     9        0.000000        0.562357         3
        18        25        23        24     9      180.000000       -0.511998         4
        19        18        17        26     9        0.000000        0.040666         1
        19        18        17        26     9      180.000000        0.764285         2
        19        18        17        26     9        0.000000       -0.002585         3
        19        18        17        26     9      180.000000        0.249021         4
        19        18        17        47     9        0.000000        0.098516         1
        19        18        17        47     9      180.000000        0.608279         2
        19        18        17        47     9        0.000000        0.079930         3
        19        18        17        47     9      180.000000       -0.161334         4
        19        18        25        23     9        0.000000       -0.242142         1
        19        18        25        23     9      180.000000       19.061645         2
        19        18        25        23     9        0.000000       -1.692747         3
        19        18        25        23     9      180.000000       -0.425058         4
        19        18        25        51     9        0.000000        0.044606         1
        19        18        25        51     9      180.000000       14.013483         2
        19        18        25        51     9        0.000000       -0.623302         3
        19        18        25        51     9      180.000000        0.039431         4
        19        20        21        22     9        0.000000        0.472155         1
        19        20        21        22     9      180.000000       20.066312         2
        19        20        21        22     9        0.000000        0.397305         3
        19        20        21        22     9      180.000000       -0.574870         4
        19        20        21        23     9        0.000000        0.034384         1
        19        20        21        23     9      180.000000       16.662028         2
        19        20        21        23     9        0.000000       -0.988402         3
        19        20        21        23     9      180.000000       -0.292217         4
        20        19        18        25     9        0.000000       -0.121640         1
        20        19        18        25     9      180.000000       19.517897         2
        20        19        18        25     9        0.000000       -1.614501         3
        20        19        18        25     9      180.000000       -0.525523         4
        20        21        22        50     9        0.000000       -0.515250         1
        20        21        22        50     9      180.000000        4.139041         2
        20        21        22        50     9        0.000000        0.194040         3
        20        21        22        50     9      180.000000        0.039272         4
        20        21        23        24     9        0.000000        0.589621         1
        20        21        23        24     9      180.000000       18.407526         2
        20        21        23        24     9        0.000000        0.634121         3
        20        21        23        24     9      180.000000       -0.440671         4
        20        21        23        25     9        0.000000        0.161727         1
        20        21        23        25     9      180.000000       13.826342         2
        20        21        23        25     9        0.000000       -0.587122         3
        20        21        23        25     9      180.000000       -0.118410         4
        21        20        19        48     9        0.000000        0.190598         1
        21        20        19        48     9      180.000000       14.605306         2
        21        20        19        48     9        0.000000       -0.540272         3
        21        20        19        48     9      180.000000        0.010103         4
        21        23        25        51     9        0.000000        0.158302         1
        21        23        25        51     9      180.000000       12.512510         2
        21        23        25        51     9        0.000000       -0.435162         3
        21        23        25        51     9      180.000000        0.194499         4
        22        21        20        49     9        0.000000       -0.024081         1
        22        21        20        49     9      180.000000       14.746484         2
        22        21        20        49     9        0.000000        0.038241         3
        22        21        20        49     9      180.000000        0.122250         4
        22        21        23        24     9        0.000000       -0.192249         1
        22        21        23        24     9      180.000000       22.782719         2
        22        21        23        24     9        0.000000        0.307015         3
        22        21        23        24     9      180.000000       -1.025864         4
        22        21        23        25     9        0.000000        0.243909         1
        22        21        23        25     9      180.000000       16.226506         2
        22        21        23        25     9        0.000000        0.046154         3
        22        21        23        25     9      180.000000       -0.294594         4
        23        21        20        49     9        0.000000        0.169080         1
        23        21        20        49     9      180.000000       12.493324         2
        23        21        20        49     9        0.000000       -0.276960         3
        23        21        20        49     9      180.000000        0.170069         4
        23        21        22        50     9        0.000000        3.751828         1
        23        21        22        50     9      180.000000        3.055912         2
        23        21        22        50     9        0.000000        0.484104         3
        23        21        22        50     9      180.000000       -0.008450         4
        24        23        25        51     9        0.000000        0.421574         1
        24        23        25        51     9      180.000000       16.231910         2
        24        23        25        51     9        0.000000        0.320215         3
        24        23        25        51     9      180.000000        0.230120         4
        25        18        17        26     9        0.000000       -0.220039         1
        25        18        17        26     9      180.000000        0.763402         2
        25        18        17        26     9        0.000000        0.036396         3
        25        18        17        26     9      180.000000        0.236780         4
        25        18        17        47     9        0.000000        0.223796         1
        25        18        17        47     9      180.000000        0.639529         2
        25        18        17        47     9        0.000000        0.149212         3
        25        18        17        47     9      180.000000       -0.150900         4
        25        18        19        48     9        0.000000       -0.041947         1
        25        18        19        48     9      180.000000       15.320736         2
        25        18        19        48     9        0.000000       -0.576370         3
        25        18        19        48     9      180.000000       -0.085020         4
        26         8         7        37     9        0.000000       -0.251168         1
        26         8         7        37     9      180.000000       15.379822         2
        26         8         7        37     9        0.000000       -0.154475         3
        26         8         7        37     9      180.000000        0.061062         4
        26        17        16        46     9        0.000000        0.027593         1
        26        17        16        46     9      180.000000       -0.027449         2
        26        17        16        46     9        0.000000        0.107517         3
        26        17        16        46     9      180.000000        0.240140         4
        36         6         7        37     9        0.000000       -0.108113         1
        36         6         7        37     9      180.000000       12.008828         2
        36         6         7        37     9        0.000000       -0.736421         3
        36         6         7        37     9      180.000000        0.369129         4
        39        11        16        46     9        0.000000        0.132091         1
        39        11        16        46     9      180.000000        0.094594         2
        39        11        16        46     9        0.000000        0.246920         3
        39        11        16        46     9      180.000000       -0.118212         4
        40        13        14        42     9        0.000000       -0.009177         1
        40        13        14        42     9      180.000000        0.003073         2
        40        13        14        42     9        0.000000        0.306791         3
        40        13        14        42     9      180.000000       -0.016784         4
        40        13        14        43     9        0.000000       -0.009177         1
        40        13        14        43     9      180.000000        0.003073         2
        40        13        14        43     9        0.000000        0.306791         3
        40        13        14        43     9      180.000000       -0.016784         4
        41        13        14        42     9        0.000000       -0.009177         1
        41        13        14        42     9      180.000000        0.003073         2
        41        13        14        42     9        0.000000        0.306791         3
        41        13        14        42     9      180.000000       -0.016784         4
        41        13        14        43     9        0.000000       -0.009177         1
        41        13        14        43     9      180.000000        0.003073         2
        41        13        14        43     9        0.000000        0.306791         3
        41        13        14        43     9      180.000000       -0.016784         4
        42        14        15        44     9        0.000000        0.025058         1
        42        14        15        44     9      180.000000       -0.027755         2
        42        14        15        44     9        0.000000        0.264036         3
        42        14        15        44     9      180.000000        0.007692         4
        42        14        15        45     9        0.000000        0.025058         1
        42        14        15        45     9      180.000000       -0.027755         2
        42        14        15        45     9        0.000000        0.264036         3
        42        14        15        45     9      180.000000        0.007692         4
        43        14        15        44     9        0.000000        0.025058         1
        43        14        15        44     9      180.000000       -0.027755         2
        43        14        15        44     9        0.000000        0.264036         3
        43        14        15        44     9      180.000000        0.007692         4
        43        14        15        45     9        0.000000        0.025058         1
        43        14        15        45     9      180.000000       -0.027755         2
        43        14        15        45     9        0.000000        0.264036         3
        43        14        15        45     9      180.000000        0.007692         4
        44        15        16        46     9        0.000000        0.338045         1
        44        15        16        46     9      180.000000        0.087981         2
        44        15        16        46     9        0.000000        0.382743         3
        44        15        16        46     9      180.000000       -0.048736         4
        45        15        16        46     9        0.000000        0.338045         1
        45        15        16        46     9      180.000000        0.087981         2
        45        15        16        46     9        0.000000        0.382743         3
        45        15        16        46     9      180.000000       -0.048736         4
        46        16        17        47     9        0.000000        0.604596         1
        46        16        17        47     9      180.000000        0.117077         2
        46        16        17        47     9        0.000000        0.463964         3
        46        16        17        47     9      180.000000       -0.274094         4
        47        17        26        52     9        0.000000       -0.846043         1
        47        17        26        52     9      180.000000       -0.275086         2
        47        17        26        52     9        0.000000        0.459516         3
        47        17        26        52     9      180.000000       -0.171273         4
        48        19        20        49     9        0.000000       -0.103458         1
        48        19        20        49     9      180.000000       12.022636         2
        48        19        20        49     9        0.000000       -0.705194         3
        48        19        20        49     9      180.000000        0.315962         4

[ pairs ]
;       ai        aj funct
         1         6     1
         1        10     1
         1        30     1
         1        31     1
         1        32     1
         1        33     1
         1        34     1
         1        35     1
         2         7     1
         2         9     1
         2        36     1
         2        38     1
         3         6     1
         3        10     1
         3        27     1
         3        28     1
         3        29     1
         3        33     1
         3        34     1
         3        35     1
         4         6     1
         4        10     1
         4        27     1
         4        28     1
         4        29     1
         4        30     1
         4        31     1
         4        32     1
         5         8     1
         5        11     1
         5        27     1
         5        28     1
         5        29     1
         5        30     1
         5        31     1
         5        32     1
         5        33     1
         5        34     1
         5        35     1
         5        37     1
         6         9     1
         6        26     1
         6        38     1
         7        10     1
         7        11     1
         7        17     1
         7        52     1
         8        12     1
         8        16     1
         8        18     1
         8        36     1
         8        38     1
         8        39     1
         8        47     1
         9        13     1
         9        15     1
         9        17     1
         9        37     1
         9        46     1
         9        52     1
        10        12     1
        10        16     1
        10        26     1
        10        36     1
        10        39     1
        11        14     1
        11        18     1
        11        26     1
        11        38     1
        11        40     1
        11        41     1
        11        44     1
        11        45     1
        11        47     1
        12        15     1
        12        17     1
        12        42     1
        12        43     1
        12        46     1
        13        16     1
        13        39     1
        13        44     1
        13        45     1
        14        17     1
        14        46     1
        15        18     1
        15        26     1
        15        39     1
        15        40     1
        15        41     1
        15        47     1
        16        19     1
        16        25     1
        16        42     1
        16        43     1
        16        52     1
        17        20     1
        17        23     1
        17        39     1
        17        44     1
        17        45     1
        17        48     1
        17        51     1
        18        21     1
        18        24     1
        18        46     1
        18        49     1
        18        52     1
        19        22     1
        19        23     1
        19        26     1
        19        47     1
        19        51     1
        20        24     1
        20        25     1
        20        50     1
        21        48     1
        21        51     1
        22        24     1
        22        25     1
        22        49     1
        23        49     1
        23        50     1
        24        51     1
        25        26     1
        25        47     1
        25        48     1
        26        37     1
        26        46     1
        36        37     1
        39        46     1
        40        42     1
        40        43     1
        41        42     1
        41        43     1
        42        44     1
        42        45     1
        43        44     1
        43        45     1
        44        46     1
        45        46     1
        46        47     1
        47        52     1
        48        49     1
