; ITP file created by ByteFF-ML, 2026-02-21 07:39:23.743774

[ atomtypes ]
;name           bonded.type        at.num        mass        charge   ptype           sigma         epsilon
 c0bf                                   6      0.0000       0.00000       A     3.39729e-01     4.50060e-01
 n1bf                                   7      0.0000       0.00000       A     2.58841e-01     1.06248e+01
 c2bf                                   6      0.0000       0.00000       A     3.39729e-01     4.50060e-01
 c3bf                                   6      0.0000       0.00000       A     3.39608e-01     4.53201e-01
 c4bf                                   6      0.0000       0.00000       A     3.39250e-01     4.55089e-01
 n5bf                                   7      0.0000       0.00000       A     3.27589e-01     4.79194e-01
 c6bf                                   6      0.0000       0.00000       A     3.31310e-01     4.15463e-01
 o7bf                                   8      0.0000       0.00000       A     3.04783e-01     6.09220e-01
 n8bf                                   7      0.0000       0.00000       A     3.26973e-01     4.90646e-01
 c9bf                                   6      0.0000       0.00000       A     3.39827e-01     4.48765e-01
 c10bf                                  6      0.0000       0.00000       A     3.39805e-01     4.51416e-01
 c11bf                                  6      0.0000       0.00000       A     3.39840e-01     4.50605e-01
 c12bf                                  6      0.0000       0.00000       A     3.39938e-01     4.52179e-01
 c13bf                                  6      0.0000       0.00000       A     3.40218e-01     4.51818e-01
 c14bf                                  6      0.0000       0.00000       A     3.39362e-01     4.50344e-01
 c15bf                                  6      0.0000       0.00000       A     3.31416e-01     4.11566e-01
 c16bf                                  6      0.0000       0.00000       A     3.31559e-01     4.13032e-01
 c17bf                                  6      0.0000       0.00000       A     3.31517e-01     4.13352e-01
 c18bf                                  6      0.0000       0.00000       A     3.31506e-01     4.12855e-01
 c19bf                                  6      0.0000       0.00000       A     3.31517e-01     4.13352e-01
 c20bf                                  6      0.0000       0.00000       A     3.31559e-01     4.13032e-01
 n21bf                                  7      0.0000       0.00000       A     3.28286e-01     6.41163e-01
 c22bf                                  6      0.0000       0.00000       A     3.31454e-01     4.11042e-01
 c23bf                                  6      0.0000       0.00000       A     3.31569e-01     4.14507e-01
 c24bf                                  6      0.0000       0.00000       A     3.31508e-01     4.13091e-01
 c25bf                                  6      0.0000       0.00000       A     3.31488e-01     4.14461e-01
 c26bf                                  6      0.0000       0.00000       A     3.39788e-01     4.48602e-01
 f27bf                                  9      0.0000       0.00000       A     3.03460e-01     3.47943e-01
 f28bf                                  9      0.0000       0.00000       A     3.03460e-01     3.47943e-01
 f29bf                                  9      0.0000       0.00000       A     3.03460e-01     3.47943e-01
 c30bf                                  6      0.0000       0.00000       A     3.31217e-01     4.13522e-01
 c31bf                                  6      0.0000       0.00000       A     3.31287e-01     4.10150e-01
 c32bf                                  6      0.0000       0.00000       A     3.39738e-01     4.51731e-01
 o33bf                                  8      0.0000       0.00000       A     3.15742e-01     3.04824e-01
 h34bf                                  1      0.0000       0.00000       A     1.88202e-01     8.71518e-02
 h35bf                                  1      0.0000       0.00000       A     1.88202e-01     8.71518e-02
 h36bf                                  1      0.0000       0.00000       A     1.88202e-01     8.71518e-02
 h37bf                                  1      0.0000       0.00000       A     1.88202e-01     8.71518e-02
 h38bf                                  1      0.0000       0.00000       A     1.88202e-01     8.71518e-02
 h39bf                                  1      0.0000       0.00000       A     1.88202e-01     8.71518e-02
 h40bf                                  1      0.0000       0.00000       A     1.87610e-01     8.36707e-02
 h41bf                                  1      0.0000       0.00000       A     1.87610e-01     8.36707e-02
 h42bf                                  1      0.0000       0.00000       A     2.42182e-01     8.54216e-02
 h43bf                                  1      0.0000       0.00000       A     2.42182e-01     8.54216e-02
 h44bf                                  1      0.0000       0.00000       A     1.10707e-01     4.33046e-02
 h45bf                                  1      0.0000       0.00000       A     1.10569e-01     4.10477e-02
 h46bf                                  1      0.0000       0.00000       A     2.41824e-01     8.80599e-02
 h47bf                                  1      0.0000       0.00000       A     2.41824e-01     8.80599e-02
 h48bf                                  1      0.0000       0.00000       A     2.42565e-01     8.73098e-02
 h49bf                                  1      0.0000       0.00000       A     2.59821e-01     8.71677e-02
 h50bf                                  1      0.0000       0.00000       A     2.59821e-01     8.71677e-02
 h51bf                                  1      0.0000       0.00000       A     2.60017e-01     8.63234e-02
 h52bf                                  1      0.0000       0.00000       A     2.60017e-01     8.63234e-02
 h53bf                                  1      0.0000       0.00000       A     2.59608e-01     8.66043e-02
 h54bf                                  1      0.0000       0.00000       A     2.42675e-01     8.80520e-02
 h55bf                                  1      0.0000       0.00000       A     2.62512e-01     6.76287e-02
 h56bf                                  1      0.0000       0.00000       A     2.62458e-01     6.72647e-02
 h57bf                                  1      0.0000       0.00000       A     2.62457e-01     6.73477e-02
 h58bf                                  1      0.0000       0.00000       A     2.62458e-01     6.72647e-02
 h59bf                                  1      0.0000       0.00000       A     2.62512e-01     6.76287e-02
 h60bf                                  1      0.0000       0.00000       A     1.10887e-01     4.11451e-02
 h61bf                                  1      0.0000       0.00000       A     2.62406e-01     6.70142e-02
 h62bf                                  1      0.0000       0.00000       A     2.62597e-01     6.75951e-02
 h63bf                                  1      0.0000       0.00000       A     2.62549e-01     6.73222e-02
 h64bf                                  1      0.0000       0.00000       A     2.42774e-01     8.84398e-02
 h65bf                                  1      0.0000       0.00000       A     1.10789e-01     4.27954e-02

[ moleculetype ]
;name             nrexcl
 CHEMBL1077204         3

[ atoms ]
;       nr            type      resi   res      atom      cgnr      charge          mass ; qtot
         1            c0bf         1   UNL        c0         1     0.08854       12.0110 ; qtot    0.089
         2            n1bf         1   UNL        n1         2    -0.67699       14.0070 ; qtot   -0.588
         3            c2bf         1   UNL        c2         3     0.08854       12.0110 ; qtot   -0.500
         4            c3bf         1   UNL        c3         4     0.08349       12.0110 ; qtot   -0.416
         5            c4bf         1   UNL        c4         5     0.08524       12.0110 ; qtot   -0.331
         6            n5bf         1   UNL        n5         6    -0.51520       14.0070 ; qtot   -0.846
         7            c6bf         1   UNL        c6         7     0.65770       12.0110 ; qtot   -0.189
         8            o7bf         1   UNL        o7         8    -0.66826       15.9990 ; qtot   -0.857
         9            n8bf         1   UNL        n8         9    -0.48190       14.0070 ; qtot   -1.339
        10            c9bf         1   UNL        c9        10     0.08821       12.0110 ; qtot   -1.251
        11           c10bf         1   UNL       c10        11     0.14328       12.0110 ; qtot   -1.107
        12           c11bf         1   UNL       c11        12    -0.10111       12.0110 ; qtot   -1.208
        13           c12bf         1   UNL       c12        13    -0.06653       12.0110 ; qtot   -1.275
        14           c13bf         1   UNL       c13        14    -0.09765       12.0110 ; qtot   -1.373
        15           c14bf         1   UNL       c14        15     0.26107       12.0110 ; qtot   -1.112
        16           c15bf         1   UNL       c15        16    -0.10768       12.0110 ; qtot   -1.219
        17           c16bf         1   UNL       c16        17    -0.09640       12.0110 ; qtot   -1.316
        18           c17bf         1   UNL       c17        18    -0.11334       12.0110 ; qtot   -1.429
        19           c18bf         1   UNL       c18        19    -0.10684       12.0110 ; qtot   -1.536
        20           c19bf         1   UNL       c19        20    -0.11334       12.0110 ; qtot   -1.649
        21           c20bf         1   UNL       c20        21    -0.09640       12.0110 ; qtot   -1.746
        22           n21bf         1   UNL       n21        22    -0.92305       14.0070 ; qtot   -2.669
        23           c22bf         1   UNL       c22        23     0.30845       12.0110 ; qtot   -2.360
        24           c23bf         1   UNL       c23        24    -0.17966       12.0110 ; qtot   -2.540
        25           c24bf         1   UNL       c24        25    -0.01484       12.0110 ; qtot   -2.555
        26           c25bf         1   UNL       c25        26    -0.23480       12.0110 ; qtot   -2.789
        27           c26bf         1   UNL       c26        27     0.34500       12.0110 ; qtot   -2.444
        28           f27bf         1   UNL       f27        28    -0.10402       18.9980 ; qtot   -2.548
        29           f28bf         1   UNL       f28        29    -0.10402       18.9980 ; qtot   -2.653
        30           f29bf         1   UNL       f29        30    -0.10402       18.9980 ; qtot   -2.757
        31           c30bf         1   UNL       c30        31     0.01257       12.0110 ; qtot   -2.744
        32           c31bf         1   UNL       c31        32    -0.16291       12.0110 ; qtot   -2.907
        33           c32bf         1   UNL       c32        33     0.22672       12.0110 ; qtot   -2.680
        34           o33bf         1   UNL       o33        34    -0.45735       15.9990 ; qtot   -3.138
        35           h34bf         1   UNL       h34        35     0.10185        1.0080 ; qtot   -3.036
        36           h35bf         1   UNL       h35        36     0.10185        1.0080 ; qtot   -2.934
        37           h36bf         1   UNL       h36        37     0.10185        1.0080 ; qtot   -2.832
        38           h37bf         1   UNL       h37        38     0.10185        1.0080 ; qtot   -2.730
        39           h38bf         1   UNL       h38        39     0.10185        1.0080 ; qtot   -2.628
        40           h39bf         1   UNL       h39        40     0.10185        1.0080 ; qtot   -2.526
        41           h40bf         1   UNL       h40        41     0.10535        1.0080 ; qtot   -2.421
        42           h41bf         1   UNL       h41        42     0.10535        1.0080 ; qtot   -2.316
        43           h42bf         1   UNL       h42        43     0.07680        1.0080 ; qtot   -2.239
        44           h43bf         1   UNL       h43        44     0.07680        1.0080 ; qtot   -2.162
        45           h44bf         1   UNL       h44        45     0.33890        1.0080 ; qtot   -1.823
        46           h45bf         1   UNL       h45        46     0.30596        1.0080 ; qtot   -1.517
        47           h46bf         1   UNL       h46        47     0.06693        1.0080 ; qtot   -1.450
        48           h47bf         1   UNL       h47        48     0.06693        1.0080 ; qtot   -1.383
        49           h48bf         1   UNL       h48        49     0.06015        1.0080 ; qtot   -1.323
        50           h49bf         1   UNL       h49        50     0.05251        1.0080 ; qtot   -1.271
        51           h50bf         1   UNL       h50        51     0.05251        1.0080 ; qtot   -1.218
        52           h51bf         1   UNL       h51        52     0.04867        1.0080 ; qtot   -1.170
        53           h52bf         1   UNL       h52        53     0.04867        1.0080 ; qtot   -1.121
        54           h53bf         1   UNL       h53        54     0.06779        1.0080 ; qtot   -1.053
        55           h54bf         1   UNL       h54        55     0.05590        1.0080 ; qtot   -0.997
        56           h55bf         1   UNL       h55        56     0.11749        1.0080 ; qtot   -0.880
        57           h56bf         1   UNL       h56        57     0.11433        1.0080 ; qtot   -0.765
        58           h57bf         1   UNL       h57        58     0.11376        1.0080 ; qtot   -0.652
        59           h58bf         1   UNL       h58        59     0.11433        1.0080 ; qtot   -0.537
        60           h59bf         1   UNL       h59        60     0.11749        1.0080 ; qtot   -0.420
        61           h60bf         1   UNL       h60        61     0.45777        1.0080 ; qtot    0.038
        62           h61bf         1   UNL       h61        62     0.11995        1.0080 ; qtot    0.158
        63           h62bf         1   UNL       h62        63     0.13153        1.0080 ; qtot    0.289
        64           h63bf         1   UNL       h63        64     0.13526        1.0080 ; qtot    0.425
        65           h64bf         1   UNL       h64        65     0.05463        1.0080 ; qtot    0.479
        66           h65bf         1   UNL       h65        66     0.52064        1.0080 ; qtot    1.000

[ bonds ]
;       ai        aj funct               r               k
         1         2     1        0.150564   158541.040186
         1        35     1        0.108881   318795.850244
         1        36     1        0.108881   318795.850244
         1        37     1        0.108881   318795.850244
         2         3     1        0.150564   158541.040186
         2         4     1        0.151914   133102.389136
         2        66     1        0.103612   351596.607324
         3        38     1        0.108881   318795.850244
         3        39     1        0.108881   318795.850244
         3        40     1        0.108881   318795.850244
         4         5     1        0.153762   177942.105688
         4        41     1        0.109037   312753.208350
         4        42     1        0.109037   312753.208350
         5         6     1        0.146059   205801.968384
         5        43     1        0.109282   304272.283252
         5        44     1        0.109282   304272.283252
         6         7     1        0.139195   251039.463721
         6        45     1        0.101320   417858.536670
         7         8     1        0.124913   519881.714648
         7         9     1        0.135975   315140.979150
         9        10     1        0.145846   210081.911304
         9        46     1        0.101211   417973.760107
        10        11     1        0.153270   178188.794165
        10        47     1        0.109319   300438.626855
        10        48     1        0.109319   300438.626855
        11        12     1        0.153409   176281.644531
        11        34     1        0.143572   179928.177759
        11        49     1        0.109800   287665.066895
        12        13     1        0.153620   184015.890088
        12        50     1        0.109499   296516.203467
        12        51     1        0.109499   296516.203467
        13        14     1        0.153644   177808.316772
        13        52     1        0.109464   296701.219824
        13        53     1        0.109464   296701.219824
        14        15     1        0.154231   162728.360010
        14        33     1        0.153712   167978.432178
        14        54     1        0.109661   296507.444238
        15        16     1        0.152011   180470.777490
        15        22     1        0.146639   193821.578271
        15        55     1        0.109903   282326.764014
        16        17     1        0.140235   288447.651611
        16        21     1        0.140235   288447.651611
        17        18     1        0.139815   313021.067090
        17        56     1        0.108668   316228.272656
        18        19     1        0.139918   306554.100586
        18        57     1        0.108647   318864.672754
        19        20     1        0.139918   306554.100586
        19        58     1        0.108625   319984.475000
        20        21     1        0.139815   313021.067090
        20        59     1        0.108647   318864.672754
        21        60     1        0.108668   316228.272656
        22        23     1        0.140120   267840.276904
        22        61     1        0.101355   410549.688281
        23        24     1        0.140735   277586.412549
        23        32     1        0.141215   263372.840527
        24        25     1        0.139041   333166.424414
        24        62     1        0.108629   317015.479590
        25        26     1        0.140173   293861.288965
        25        63     1        0.108531   322344.512500
        26        27     1        0.150293   195287.357275
        26        31     1        0.139887   297622.803027
        27        28     1        0.135840   221716.758789
        27        29     1        0.135840   221716.758789
        27        30     1        0.135840   221716.758789
        31        32     1        0.139370   310255.832275
        31        64     1        0.108550   319487.752686
        32        33     1        0.151162   190895.612891
        33        34     1        0.143394   181167.749048
        33        65     1        0.110020   279291.065674

[ angles ]
;       ai        aj        ak funct           theta             cth
         1         2         3     1      111.423988      627.335946
         1         2         4     1      112.540504      609.297171
         1         2        66     1      107.531784      495.789540
         2         1        35     1      108.823570      544.558811
         2         1        36     1      108.823570      544.558811
         2         1        37     1      108.823570      544.558811
         2         3        38     1      108.823570      544.558811
         2         3        39     1      108.823570      544.558811
         2         3        40     1      108.823570      544.558811
         2         4         5     1      112.542274      642.057132
         2         4        41     1      106.895432      543.174763
         2         4        42     1      106.895432      543.174763
         3         2         4     1      112.540504      609.297171
         3         2        66     1      107.531784      495.789540
         4         2        66     1      104.901474      500.250107
         4         5         6     1      112.820534      522.156669
         4         5        43     1      109.621964      483.166355
         4         5        44     1      109.621964      483.166355
         5         4        41     1      110.630226      470.121904
         5         4        42     1      110.630226      470.121904
         5         6         7     1      119.315186      539.138559
         5         6        45     1      115.987045      420.075426
         6         5        43     1      109.011063      492.153630
         6         5        44     1      109.011063      492.153630
         6         7         8     1      120.826988      569.702266
         6         7         9     1      116.094032      588.333438
         7         6        45     1      117.696373      464.980134
         7         9        10     1      121.500809      529.970162
         7         9        46     1      118.963150      472.406294
         8         7         9     1      123.028893      547.181217
         9        10        11     1      112.372726      520.536116
         9        10        47     1      108.564598      523.806270
         9        10        48     1      108.564598      523.806270
        10         9        46     1      115.034805      464.947607
        10        11        12     1      113.399170      589.740916
        10        11        34     1      107.241501      611.724984
        10        11        49     1      108.188492      489.338355
        11        10        47     1      109.375198      477.820704
        11        10        48     1      109.375198      477.820704
        11        12        13     1      110.768921      657.328898
        11        12        50     1      109.166946      484.001674
        11        12        51     1      109.166946      484.001674
        11        34        33     1      113.833191      589.539556
        12        11        34     1      111.135849      560.458790
        12        11        49     1      109.262344      472.280811
        12        13        14     1      110.789017      628.541170
        12        13        52     1      109.847366      507.215321
        12        13        53     1      109.847366      507.215321
        13        12        50     1      110.407860      506.069216
        13        12        51     1      110.407860      506.069216
        13        14        15     1      113.390907      594.475624
        13        14        33     1      109.946129      599.778149
        13        14        54     1      108.811119      484.857167
        14        13        52     1      109.615433      494.102047
        14        13        53     1      109.615433      494.102047
        14        15        16     1      112.832138      539.061693
        14        15        22     1      108.654358      596.888945
        14        15        55     1      107.204910      478.962851
        14        33        32     1      112.032791      573.279695
        14        33        34     1      111.157120      582.465138
        14        33        65     1      108.313766      468.104983
        15        14        33     1      109.536171      678.085908
        15        14        54     1      107.115433      495.353525
        15        16        17     1      120.675819      480.145730
        15        16        21     1      120.675819      480.145730
        15        22        23     1      118.392113      536.379083
        15        22        61     1      113.211632      469.750626
        16        15        22     1      111.192749      590.960696
        16        15        55     1      107.631065      485.386711
        16        17        18     1      120.662560      709.918234
        16        17        56     1      119.614586      400.532036
        16        21        20     1      120.662560      709.918234
        16        21        60     1      119.614586      400.532036
        17        16        21     1      118.740906      679.590873
        17        18        19     1      120.153175      705.714570
        17        18        57     1      119.816528      429.696915
        18        17        56     1      119.686012      431.264766
        18        19        20     1      119.511429      689.005895
        18        19        58     1      120.255775      430.416551
        19        18        57     1      120.079079      431.521669
        19        20        21     1      120.153175      705.714570
        19        20        59     1      120.079079      431.521669
        20        19        58     1      120.255775      430.416551
        20        21        60     1      119.686012      431.264766
        21        20        59     1      119.816528      429.696915
        22        15        55     1      109.216263      441.919263
        22        23        24     1      119.853516      544.844699
        22        23        32     1      120.381920      586.867034
        23        22        61     1      113.638138      488.207987
        23        24        25     1      120.859085      770.216712
        23        24        62     1      119.257690      424.611327
        23        32        31     1      119.148849      776.854445
        23        32        33     1      120.031204      561.946773
        24        23        32     1      119.169983      656.365511
        24        25        26     1      119.814743      649.825138
        24        25        63     1      119.982407      418.252204
        25        24        62     1      119.795059      441.763454
        25        26        27     1      119.944260      539.726551
        25        26        31     1      119.428001      627.848668
        26        25        63     1      120.115784      419.580102
        26        27        28     1      112.050613      590.814624
        26        27        29     1      112.050613      590.814624
        26        27        30     1      112.050613      590.814624
        26        31        32     1      121.233292      658.046236
        26        31        64     1      119.835167      412.227904
        27        26        31     1      120.179886      484.271952
        28        27        29     1      106.686356      701.106079
        28        27        30     1      106.686356      701.106079
        29        27        30     1      106.686356      701.106079
        31        32        33     1      120.783203      466.032423
        32        31        64     1      118.870621      400.905548
        32        33        34     1      109.718704      615.516734
        32        33        65     1      108.529274      462.167286
        33        14        54     1      107.249771      504.973163
        34        11        49     1      107.407913      460.825215
        34        33        65     1      107.237808      474.082071
        35         1        36     1      110.223839      348.596450
        35         1        37     1      110.223839      348.596450
        36         1        37     1      110.223839      348.596450
        38         3        39     1      110.223839      348.596450
        38         3        40     1      110.223839      348.596450
        39         3        40     1      110.223839      348.596450
        41         4        42     1      108.869064      348.415105
        43         5        44     1      107.562851      354.002369
        47        10        48     1      108.071022      348.166597
        50        12        51     1      107.051476      358.357723
        52        13        53     1      106.517052      361.462876

[ dihedrals ] ; propers for gromacs 4.5 or higher, use funct 9
;       ai        aj        ak        al funct           phase               k        pn
         1         2         3        38     9        0.000000        0.010171         1
         1         2         3        38     9      180.000000        0.040552         2
         1         2         3        38     9        0.000000        0.644709         3
         1         2         3        38     9      180.000000       -0.004080         4
         1         2         3        39     9        0.000000        0.010171         1
         1         2         3        39     9      180.000000        0.040552         2
         1         2         3        39     9        0.000000        0.644709         3
         1         2         3        39     9      180.000000       -0.004080         4
         1         2         3        40     9        0.000000        0.010171         1
         1         2         3        40     9      180.000000        0.040552         2
         1         2         3        40     9        0.000000        0.644709         3
         1         2         3        40     9      180.000000       -0.004080         4
         1         2         4         5     9        0.000000        1.009866         1
         1         2         4         5     9      180.000000        0.318977         2
         1         2         4         5     9        0.000000        0.777649         3
         1         2         4         5     9      180.000000        0.307163         4
         1         2         4        41     9        0.000000       -0.118544         1
         1         2         4        41     9      180.000000       -0.050791         2
         1         2         4        41     9        0.000000        0.638008         3
         1         2         4        41     9      180.000000        0.011473         4
         1         2         4        42     9        0.000000       -0.118544         1
         1         2         4        42     9      180.000000       -0.050791         2
         1         2         4        42     9        0.000000        0.638008         3
         1         2         4        42     9      180.000000        0.011473         4
         2         4         5         6     9        0.000000       14.392214         1
         2         4         5         6     9      180.000000       -2.265411         2
         2         4         5         6     9        0.000000       -0.252416         3
         2         4         5         6     9      180.000000       -1.269764         4
         2         4         5        43     9        0.000000       -0.191427         1
         2         4         5        43     9      180.000000       -0.652808         2
         2         4         5        43     9        0.000000        0.531298         3
         2         4         5        43     9      180.000000        0.150643         4
         2         4         5        44     9        0.000000       -0.191427         1
         2         4         5        44     9      180.000000       -0.652808         2
         2         4         5        44     9        0.000000        0.531298         3
         2         4         5        44     9      180.000000        0.150643         4
         3         2         1        35     9        0.000000        0.010171         1
         3         2         1        35     9      180.000000        0.040552         2
         3         2         1        35     9        0.000000        0.644709         3
         3         2         1        35     9      180.000000       -0.004080         4
         3         2         1        36     9        0.000000        0.010171         1
         3         2         1        36     9      180.000000        0.040552         2
         3         2         1        36     9        0.000000        0.644709         3
         3         2         1        36     9      180.000000       -0.004080         4
         3         2         1        37     9        0.000000        0.010171         1
         3         2         1        37     9      180.000000        0.040552         2
         3         2         1        37     9        0.000000        0.644709         3
         3         2         1        37     9      180.000000       -0.004080         4
         3         2         4         5     9        0.000000        1.009866         1
         3         2         4         5     9      180.000000        0.318977         2
         3         2         4         5     9        0.000000        0.777649         3
         3         2         4         5     9      180.000000        0.307163         4
         3         2         4        41     9        0.000000       -0.118544         1
         3         2         4        41     9      180.000000       -0.050791         2
         3         2         4        41     9        0.000000        0.638008         3
         3         2         4        41     9      180.000000        0.011473         4
         3         2         4        42     9        0.000000       -0.118544         1
         3         2         4        42     9      180.000000       -0.050791         2
         3         2         4        42     9        0.000000        0.638008         3
         3         2         4        42     9      180.000000        0.011473         4
         4         2         1        35     9        0.000000       -0.085515         1
         4         2         1        35     9      180.000000        0.068065         2
         4         2         1        35     9        0.000000        0.626088         3
         4         2         1        35     9      180.000000       -0.019099         4
         4         2         1        36     9        0.000000       -0.085515         1
         4         2         1        36     9      180.000000        0.068065         2
         4         2         1        36     9        0.000000        0.626088         3
         4         2         1        36     9      180.000000       -0.019099         4
         4         2         1        37     9        0.000000       -0.085515         1
         4         2         1        37     9      180.000000        0.068065         2
         4         2         1        37     9        0.000000        0.626088         3
         4         2         1        37     9      180.000000       -0.019099         4
         4         2         3        38     9        0.000000       -0.085515         1
         4         2         3        38     9      180.000000        0.068065         2
         4         2         3        38     9        0.000000        0.626088         3
         4         2         3        38     9      180.000000       -0.019099         4
         4         2         3        39     9        0.000000       -0.085515         1
         4         2         3        39     9      180.000000        0.068065         2
         4         2         3        39     9        0.000000        0.626088         3
         4         2         3        39     9      180.000000       -0.019099         4
         4         2         3        40     9        0.000000       -0.085515         1
         4         2         3        40     9      180.000000        0.068065         2
         4         2         3        40     9        0.000000        0.626088         3
         4         2         3        40     9      180.000000       -0.019099         4
         4         5         6         7     9        0.000000       12.819787         1
         4         5         6         7     9      180.000000       -0.531560         2
         4         5         6         7     9        0.000000        0.458639         3
         4         5         6         7     9      180.000000        0.014931         4
         4         5         6        45     9        0.000000        7.170429         1
         4         5         6        45     9      180.000000        0.374965         2
         4         5         6        45     9        0.000000        2.963159         3
         4         5         6        45     9      180.000000        0.169712         4
         5         4         2        66     9        0.000000        3.101945         1
         5         4         2        66     9      180.000000       -1.020238         2
         5         4         2        66     9        0.000000        0.769099         3
         5         4         2        66     9      180.000000       -0.071961         4
         5         6         7         8     9        0.000000        8.454014         1
         5         6         7         8     9      180.000000        7.714600         2
         5         6         7         8     9        0.000000        0.385925         3
         5         6         7         8     9      180.000000       -0.613231         4
         5         6         7         9     9        0.000000        7.061522         1
         5         6         7         9     9      180.000000       12.519047         2
         5         6         7         9     9        0.000000        0.354365         3
         5         6         7         9     9      180.000000       -0.391729         4
         6         5         4        41     9        0.000000       -0.525384         1
         6         5         4        41     9      180.000000       -0.207244         2
         6         5         4        41     9        0.000000        0.666949         3
         6         5         4        41     9      180.000000        0.066171         4
         6         5         4        42     9        0.000000       -0.525384         1
         6         5         4        42     9      180.000000       -0.207244         2
         6         5         4        42     9        0.000000        0.666949         3
         6         5         4        42     9      180.000000        0.066171         4
         6         7         9        10     9        0.000000        6.641838         1
         6         7         9        10     9      180.000000       12.700788         2
         6         7         9        10     9        0.000000        0.947400         3
         6         7         9        10     9      180.000000       -0.411199         4
         6         7         9        46     9        0.000000        1.346626         1
         6         7         9        46     9      180.000000       11.532882         2
         6         7         9        46     9        0.000000        0.012704         3
         6         7         9        46     9      180.000000        0.599226         4
         7         6         5        43     9        0.000000       -3.229129         1
         7         6         5        43     9      180.000000        0.502522         2
         7         6         5        43     9        0.000000        0.376838         3
         7         6         5        43     9      180.000000       -0.082205         4
         7         6         5        44     9        0.000000       -3.229129         1
         7         6         5        44     9      180.000000        0.502522         2
         7         6         5        44     9        0.000000        0.376838         3
         7         6         5        44     9      180.000000       -0.082205         4
         7         9        10        11     9        0.000000       -0.245588         1
         7         9        10        11     9      180.000000       -0.491052         2
         7         9        10        11     9        0.000000        0.067347         3
         7         9        10        11     9      180.000000        0.109168         4
         7         9        10        47     9        0.000000       -0.168392         1
         7         9        10        47     9      180.000000        0.178529         2
         7         9        10        47     9        0.000000        0.005588         3
         7         9        10        47     9      180.000000        0.141311         4
         7         9        10        48     9        0.000000       -0.168392         1
         7         9        10        48     9      180.000000        0.178529         2
         7         9        10        48     9        0.000000        0.005588         3
         7         9        10        48     9      180.000000        0.141311         4
         8         7         6        45     9        0.000000        0.679575         1
         8         7         6        45     9      180.000000        5.635251         2
         8         7         6        45     9        0.000000        0.230269         3
         8         7         6        45     9      180.000000        0.833046         4
         8         7         9        10     9        0.000000        2.333287         1
         8         7         9        10     9      180.000000        3.943512         2
         8         7         9        10     9        0.000000        1.155394         3
         8         7         9        10     9      180.000000       -0.746394         4
         8         7         9        46     9        0.000000        0.055691         1
         8         7         9        46     9      180.000000        6.495039         2
         8         7         9        46     9        0.000000       -0.601619         3
         8         7         9        46     9      180.000000        0.506549         4
         9         7         6        45     9        0.000000        2.184743         1
         9         7         6        45     9      180.000000       10.032271         2
         9         7         6        45     9        0.000000        0.399088         3
         9         7         6        45     9      180.000000        0.302344         4
         9        10        11        12     9        0.000000        0.162676         1
         9        10        11        12     9      180.000000        1.221407         2
         9        10        11        12     9        0.000000        0.412484         3
         9        10        11        12     9      180.000000       -0.038522         4
         9        10        11        34     9        0.000000       -0.031238         1
         9        10        11        34     9      180.000000       -0.391434         2
         9        10        11        34     9        0.000000        0.369456         3
         9        10        11        34     9      180.000000        0.003774         4
         9        10        11        49     9        0.000000        0.087510         1
         9        10        11        49     9      180.000000        0.042202         2
         9        10        11        49     9        0.000000        0.672687         3
         9        10        11        49     9      180.000000       -0.014429         4
        10        11        12        13     9        0.000000       -0.043942         1
        10        11        12        13     9      180.000000        0.426262         2
        10        11        12        13     9        0.000000        0.246381         3
        10        11        12        13     9      180.000000       -0.001399         4
        10        11        12        50     9        0.000000       -0.063980         1
        10        11        12        50     9      180.000000       -0.044300         2
        10        11        12        50     9        0.000000        0.303944         3
        10        11        12        50     9      180.000000        0.007737         4
        10        11        12        51     9        0.000000       -0.063980         1
        10        11        12        51     9      180.000000       -0.044300         2
        10        11        12        51     9        0.000000        0.303944         3
        10        11        12        51     9      180.000000        0.007737         4
        10        11        34        33     9        0.000000       -0.168503         1
        10        11        34        33     9      180.000000        0.069074         2
        10        11        34        33     9        0.000000        0.289739         3
        10        11        34        33     9      180.000000        0.091850         4
        11        10         9        46     9        0.000000        0.958009         1
        11        10         9        46     9      180.000000       -1.812098         2
        11        10         9        46     9        0.000000        0.542841         3
        11        10         9        46     9      180.000000        0.017095         4
        11        12        13        14     9        0.000000        0.748413         1
        11        12        13        14     9      180.000000       -1.143378         2
        11        12        13        14     9        0.000000        0.099120         3
        11        12        13        14     9      180.000000        0.146730         4
        11        12        13        52     9        0.000000       -0.055106         1
        11        12        13        52     9      180.000000        0.033152         2
        11        12        13        52     9        0.000000        0.186532         3
        11        12        13        52     9      180.000000        0.009348         4
        11        12        13        53     9        0.000000       -0.055106         1
        11        12        13        53     9      180.000000        0.033152         2
        11        12        13        53     9        0.000000        0.186532         3
        11        12        13        53     9      180.000000        0.009348         4
        11        34        33        14     9        0.000000        6.111973         1
        11        34        33        14     9      180.000000       -3.202733         2
        11        34        33        14     9        0.000000        0.039914         3
        11        34        33        14     9      180.000000        0.201008         4
        11        34        33        32     9        0.000000        0.283507         1
        11        34        33        32     9      180.000000       -0.980544         2
        11        34        33        32     9        0.000000        0.751012         3
        11        34        33        32     9      180.000000        0.104450         4
        11        34        33        65     9        0.000000       -0.160978         1
        11        34        33        65     9      180.000000        0.214748         2
        11        34        33        65     9        0.000000        0.641338         3
        11        34        33        65     9      180.000000        0.045644         4
        12        11        10        47     9        0.000000       -0.081747         1
        12        11        10        47     9      180.000000       -0.025569         2
        12        11        10        47     9        0.000000        0.572154         3
        12        11        10        47     9      180.000000        0.053859         4
        12        11        10        48     9        0.000000       -0.081747         1
        12        11        10        48     9      180.000000       -0.025569         2
        12        11        10        48     9        0.000000        0.572154         3
        12        11        10        48     9      180.000000        0.053859         4
        12        11        34        33     9        0.000000        4.851619         1
        12        11        34        33     9      180.000000       -1.749421         2
        12        11        34        33     9        0.000000        0.051999         3
        12        11        34        33     9      180.000000        0.165947         4
        12        13        14        15     9        0.000000        0.251674         1
        12        13        14        15     9      180.000000       -0.419056         2
        12        13        14        15     9        0.000000        0.342978         3
        12        13        14        15     9      180.000000        0.015736         4
        12        13        14        33     9        0.000000        0.894275         1
        12        13        14        33     9      180.000000       -0.959033         2
        12        13        14        33     9        0.000000        0.110473         3
        12        13        14        33     9      180.000000        0.075098         4
        12        13        14        54     9        0.000000       -0.857169         1
        12        13        14        54     9      180.000000       -0.013730         2
        12        13        14        54     9        0.000000        0.208833         3
        12        13        14        54     9      180.000000        0.137834         4
        13        12        11        34     9        0.000000       -0.267367         1
        13        12        11        34     9      180.000000       -0.455001         2
        13        12        11        34     9        0.000000        0.208639         3
        13        12        11        34     9      180.000000        0.020858         4
        13        12        11        49     9        0.000000       -0.134266         1
        13        12        11        49     9      180.000000       -0.014115         2
        13        12        11        49     9        0.000000        0.414094         3
        13        12        11        49     9      180.000000        0.016131         4
        13        14        15        16     9        0.000000        1.303541         1
        13        14        15        16     9      180.000000       -0.496284         2
        13        14        15        16     9        0.000000        0.900889         3
        13        14        15        16     9      180.000000        0.115170         4
        13        14        15        22     9        0.000000       -1.975380         1
        13        14        15        22     9      180.000000        0.761714         2
        13        14        15        22     9        0.000000        0.324624         3
        13        14        15        22     9      180.000000       -0.110841         4
        13        14        15        55     9        0.000000       -0.246554         1
        13        14        15        55     9      180.000000        0.175431         2
        13        14        15        55     9        0.000000        0.515931         3
        13        14        15        55     9      180.000000       -0.011084         4
        13        14        33        32     9        0.000000        0.503391         1
        13        14        33        32     9      180.000000       -1.292606         2
        13        14        33        32     9        0.000000        0.330058         3
        13        14        33        32     9      180.000000        0.021548         4
        13        14        33        34     9        0.000000       -0.228573         1
        13        14        33        34     9      180.000000       -1.401569         2
        13        14        33        34     9        0.000000        0.282140         3
        13        14        33        34     9      180.000000        0.116406         4
        13        14        33        65     9        0.000000       -0.100620         1
        13        14        33        65     9      180.000000        0.200569         2
        13        14        33        65     9        0.000000        0.270608         3
        13        14        33        65     9      180.000000        0.098303         4
        14        13        12        50     9        0.000000       -0.046888         1
        14        13        12        50     9      180.000000        0.013585         2
        14        13        12        50     9        0.000000        0.178988         3
        14        13        12        50     9      180.000000        0.009060         4
        14        13        12        51     9        0.000000       -0.046888         1
        14        13        12        51     9      180.000000        0.013585         2
        14        13        12        51     9        0.000000        0.178988         3
        14        13        12        51     9      180.000000        0.009060         4
        14        15        16        17     9        0.000000       -0.353839         1
        14        15        16        17     9      180.000000       -0.104567         2
        14        15        16        17     9        0.000000        0.105252         3
        14        15        16        17     9      180.000000        0.005143         4
        14        15        16        21     9        0.000000       -0.353839         1
        14        15        16        21     9      180.000000       -0.104567         2
        14        15        16        21     9        0.000000        0.105252         3
        14        15        16        21     9      180.000000        0.005143         4
        14        15        22        23     9        0.000000        5.940340         1
        14        15        22        23     9      180.000000       -3.136762         2
        14        15        22        23     9        0.000000       -0.048298         3
        14        15        22        23     9      180.000000        0.710953         4
        14        15        22        61     9        0.000000        3.523492         1
        14        15        22        61     9      180.000000       -3.065426         2
        14        15        22        61     9        0.000000        0.126339         3
        14        15        22        61     9      180.000000        0.382838         4
        14        33        32        23     9        0.000000        4.293933         1
        14        33        32        23     9      180.000000       -3.954743         2
        14        33        32        23     9        0.000000       -0.194479         3
        14        33        32        23     9      180.000000        0.800821         4
        14        33        32        31     9        0.000000       -0.542126         1
        14        33        32        31     9      180.000000       -0.814156         2
        14        33        32        31     9        0.000000       -0.584072         3
        14        33        32        31     9      180.000000        0.236434         4
        15        14        13        52     9        0.000000       -0.011596         1
        15        14        13        52     9      180.000000        0.032133         2
        15        14        13        52     9        0.000000        0.284175         3
        15        14        13        52     9      180.000000        0.002952         4
        15        14        13        53     9        0.000000       -0.011596         1
        15        14        13        53     9      180.000000        0.032133         2
        15        14        13        53     9        0.000000        0.284175         3
        15        14        13        53     9      180.000000        0.002952         4
        15        14        33        32     9        0.000000        2.021808         1
        15        14        33        32     9      180.000000       -2.858627         2
        15        14        33        32     9        0.000000        0.020286         3
        15        14        33        32     9      180.000000        0.190165         4
        15        14        33        34     9        0.000000        0.398963         1
        15        14        33        34     9      180.000000       -3.939457         2
        15        14        33        34     9        0.000000        0.116553         3
        15        14        33        34     9      180.000000        0.400885         4
        15        14        33        65     9        0.000000       -0.420341         1
        15        14        33        65     9      180.000000        0.124945         2
        15        14        33        65     9        0.000000        0.063006         3
        15        14        33        65     9      180.000000        0.141844         4
        15        16        17        18     9        0.000000        0.090192         1
        15        16        17        18     9      180.000000       14.679497         2
        15        16        17        18     9        0.000000       -0.138716         3
        15        16        17        18     9      180.000000       -0.078602         4
        15        16        17        56     9        0.000000       -0.040953         1
        15        16        17        56     9      180.000000       12.731300         2
        15        16        17        56     9        0.000000       -0.361223         3
        15        16        17        56     9      180.000000        0.182937         4
        15        16        21        20     9        0.000000        0.090192         1
        15        16        21        20     9      180.000000       14.679497         2
        15        16        21        20     9        0.000000       -0.138716         3
        15        16        21        20     9      180.000000       -0.078602         4
        15        16        21        60     9        0.000000       -0.040953         1
        15        16        21        60     9      180.000000       12.731300         2
        15        16        21        60     9        0.000000       -0.361223         3
        15        16        21        60     9      180.000000        0.182937         4
        15        22        23        24     9        0.000000       -0.720221         1
        15        22        23        24     9      180.000000        3.224797         2
        15        22        23        24     9        0.000000        0.007484         3
        15        22        23        24     9      180.000000        0.386793         4
        15        22        23        32     9        0.000000        3.392995         1
        15        22        23        32     9      180.000000        0.902665         2
        15        22        23        32     9        0.000000       -0.216725         3
        15        22        23        32     9      180.000000        0.933904         4
        16        15        14        33     9        0.000000       -0.390745         1
        16        15        14        33     9      180.000000       -0.204484         2
        16        15        14        33     9        0.000000        0.350290         3
        16        15        14        33     9      180.000000        0.075818         4
        16        15        14        54     9        0.000000        0.044425         1
        16        15        14        54     9      180.000000       -0.036011         2
        16        15        14        54     9        0.000000        0.459679         3
        16        15        14        54     9      180.000000       -0.060270         4
        16        15        22        23     9        0.000000        1.082019         1
        16        15        22        23     9      180.000000       -0.660171         2
        16        15        22        23     9        0.000000        0.773072         3
        16        15        22        23     9      180.000000        0.092282         4
        16        15        22        61     9        0.000000        3.195030         1
        16        15        22        61     9      180.000000       -1.053801         2
        16        15        22        61     9        0.000000        0.110169         3
        16        15        22        61     9      180.000000       -0.141080         4
        16        17        18        19     9        0.000000        0.027332         1
        16        17        18        19     9      180.000000       18.735526         2
        16        17        18        19     9        0.000000       -1.491713         3
        16        17        18        19     9      180.000000       -0.406339         4
        16        17        18        57     9        0.000000        0.060410         1
        16        17        18        57     9      180.000000       14.990248         2
        16        17        18        57     9        0.000000       -0.580983         3
        16        17        18        57     9      180.000000        0.057213         4
        16        21        20        19     9        0.000000        0.027332         1
        16        21        20        19     9      180.000000       18.735526         2
        16        21        20        19     9        0.000000       -1.491713         3
        16        21        20        19     9      180.000000       -0.406339         4
        16        21        20        59     9        0.000000        0.060410         1
        16        21        20        59     9      180.000000       14.990248         2
        16        21        20        59     9        0.000000       -0.580983         3
        16        21        20        59     9      180.000000        0.057213         4
        17        16        15        22     9        0.000000       -0.070385         1
        17        16        15        22     9      180.000000        0.892704         2
        17        16        15        22     9        0.000000       -0.026553         3
        17        16        15        22     9      180.000000        0.262291         4
        17        16        15        55     9        0.000000        0.166577         1
        17        16        15        55     9      180.000000        0.665434         2
        17        16        15        55     9        0.000000        0.050777         3
        17        16        15        55     9      180.000000       -0.152664         4
        17        16        21        20     9        0.000000       -0.144447         1
        17        16        21        20     9      180.000000       19.062213         2
        17        16        21        20     9        0.000000       -1.504557         3
        17        16        21        20     9      180.000000       -0.477342         4
        17        16        21        60     9        0.000000       -0.069578         1
        17        16        21        60     9      180.000000       14.508781         2
        17        16        21        60     9        0.000000       -0.591210         3
        17        16        21        60     9      180.000000       -0.002966         4
        17        18        19        20     9        0.000000       -0.058929         1
        17        18        19        20     9      180.000000       18.660780         2
        17        18        19        20     9        0.000000       -1.621208         3
        17        18        19        20     9      180.000000       -0.382782         4
        17        18        19        58     9        0.000000        0.016776         1
        17        18        19        58     9      180.000000       14.282110         2
        17        18        19        58     9        0.000000       -0.780703         3
        17        18        19        58     9      180.000000        0.125907         4
        18        17        16        21     9        0.000000       -0.144447         1
        18        17        16        21     9      180.000000       19.062213         2
        18        17        16        21     9        0.000000       -1.504557         3
        18        17        16        21     9      180.000000       -0.477342         4
        18        19        20        21     9        0.000000       -0.058929         1
        18        19        20        21     9      180.000000       18.660780         2
        18        19        20        21     9        0.000000       -1.621208         3
        18        19        20        21     9      180.000000       -0.382782         4
        18        19        20        59     9        0.000000        0.010660         1
        18        19        20        59     9      180.000000       14.271862         2
        18        19        20        59     9        0.000000       -0.794146         3
        18        19        20        59     9      180.000000        0.157356         4
        19        18        17        56     9        0.000000        0.060923         1
        19        18        17        56     9      180.000000       14.800026         2
        19        18        17        56     9        0.000000       -0.680406         3
        19        18        17        56     9      180.000000        0.105081         4
        19        20        21        60     9        0.000000        0.060923         1
        19        20        21        60     9      180.000000       14.800026         2
        19        20        21        60     9        0.000000       -0.680406         3
        19        20        21        60     9      180.000000        0.105081         4
        20        19        18        57     9        0.000000        0.010660         1
        20        19        18        57     9      180.000000       14.271862         2
        20        19        18        57     9        0.000000       -0.794146         3
        20        19        18        57     9      180.000000        0.157356         4
        21        16        15        22     9        0.000000       -0.070385         1
        21        16        15        22     9      180.000000        0.892704         2
        21        16        15        22     9        0.000000       -0.026553         3
        21        16        15        22     9      180.000000        0.262291         4
        21        16        15        55     9        0.000000        0.166577         1
        21        16        15        55     9      180.000000        0.665434         2
        21        16        15        55     9        0.000000        0.050777         3
        21        16        15        55     9      180.000000       -0.152664         4
        21        16        17        56     9        0.000000       -0.069578         1
        21        16        17        56     9      180.000000       14.508781         2
        21        16        17        56     9        0.000000       -0.591210         3
        21        16        17        56     9      180.000000       -0.002966         4
        21        20        19        58     9        0.000000        0.016776         1
        21        20        19        58     9      180.000000       14.282110         2
        21        20        19        58     9        0.000000       -0.780703         3
        21        20        19        58     9      180.000000        0.125907         4
        22        15        14        33     9        0.000000       -0.209611         1
        22        15        14        33     9      180.000000       -1.727949         2
        22        15        14        33     9        0.000000       -0.219876         3
        22        15        14        33     9      180.000000        0.203053         4
        22        15        14        54     9        0.000000       -0.081846         1
        22        15        14        54     9      180.000000        0.009201         2
        22        15        14        54     9        0.000000        0.106304         3
        22        15        14        54     9      180.000000        0.240746         4
        22        23        24        25     9        0.000000        0.394468         1
        22        23        24        25     9      180.000000       18.736527         2
        22        23        24        25     9        0.000000        0.460433         3
        22        23        24        25     9      180.000000       -0.281803         4
        22        23        24        62     9        0.000000       -0.277981         1
        22        23        24        62     9      180.000000       15.530411         2
        22        23        24        62     9        0.000000       -0.156391         3
        22        23        24        62     9      180.000000        0.040110         4
        22        23        32        31     9        0.000000        0.175401         1
        22        23        32        31     9      180.000000       17.341018         2
        22        23        32        31     9        0.000000        0.120033         3
        22        23        32        31     9      180.000000       -0.597495         4
        22        23        32        33     9        0.000000       -0.124381         1
        22        23        32        33     9      180.000000       15.923271         2
        22        23        32        33     9        0.000000        0.400658         3
        22        23        32        33     9      180.000000       -0.553014         4
        23        22        15        55     9        0.000000       -0.112047         1
        23        22        15        55     9      180.000000       -0.155154         2
        23        22        15        55     9        0.000000        0.621817         3
        23        22        15        55     9      180.000000       -0.029643         4
        23        24        25        26     9        0.000000        0.055676         1
        23        24        25        26     9      180.000000       18.406921         2
        23        24        25        26     9        0.000000       -1.912953         3
        23        24        25        26     9      180.000000       -0.412704         4
        23        24        25        63     9        0.000000        0.076473         1
        23        24        25        63     9      180.000000       14.070312         2
        23        24        25        63     9        0.000000       -0.680250         3
        23        24        25        63     9      180.000000        0.120126         4
        23        32        31        26     9        0.000000       -0.001933         1
        23        32        31        26     9      180.000000       18.915732         2
        23        32        31        26     9        0.000000       -1.767627         3
        23        32        31        26     9      180.000000       -0.421815         4
        23        32        31        64     9        0.000000        0.151074         1
        23        32        31        64     9      180.000000       14.320046         2
        23        32        31        64     9        0.000000       -0.365311         3
        23        32        31        64     9      180.000000        0.114163         4
        23        32        33        34     9        0.000000       -4.601020         1
        23        32        33        34     9      180.000000       -1.314569         2
        23        32        33        34     9        0.000000        0.668626         3
        23        32        33        34     9      180.000000       -0.196890         4
        23        32        33        65     9        0.000000       -0.042147         1
        23        32        33        65     9      180.000000        0.399597         2
        23        32        33        65     9        0.000000        0.152654         3
        23        32        33        65     9      180.000000        0.034748         4
        24        23        22        61     9        0.000000       -0.833285         1
        24        23        22        61     9      180.000000        4.468194         2
        24        23        22        61     9        0.000000        0.018400         3
        24        23        22        61     9      180.000000        0.261817         4
        24        23        32        31     9        0.000000        0.026764         1
        24        23        32        31     9      180.000000       14.737101         2
        24        23        32        31     9        0.000000       -0.705376         3
        24        23        32        31     9      180.000000       -0.274300         4
        24        23        32        33     9        0.000000        0.000280         1
        24        23        32        33     9      180.000000       12.297920         2
        24        23        32        33     9        0.000000       -0.225538         3
        24        23        32        33     9      180.000000       -0.094193         4
        24        25        26        27     9        0.000000        0.032550         1
        24        25        26        27     9      180.000000       14.438455         2
        24        25        26        27     9        0.000000       -0.070406         3
        24        25        26        27     9      180.000000       -0.263928         4
        24        25        26        31     9        0.000000       -0.087045         1
        24        25        26        31     9      180.000000       18.415396         2
        24        25        26        31     9        0.000000       -1.600674         3
        24        25        26        31     9      180.000000       -0.395144         4
        25        24        23        32     9        0.000000        0.031508         1
        25        24        23        32     9      180.000000       16.807129         2
        25        24        23        32     9        0.000000       -0.691304         3
        25        24        23        32     9      180.000000       -0.383093         4
        25        26        27        28     9        0.000000       -0.000025         1
        25        26        27        28     9      180.000000        0.048574         2
        25        26        27        28     9        0.000000        0.186873         3
        25        26        27        28     9      180.000000        0.032348         4
        25        26        27        29     9        0.000000       -0.000025         1
        25        26        27        29     9      180.000000        0.048574         2
        25        26        27        29     9        0.000000        0.186873         3
        25        26        27        29     9      180.000000        0.032348         4
        25        26        27        30     9        0.000000       -0.000025         1
        25        26        27        30     9      180.000000        0.048574         2
        25        26        27        30     9        0.000000        0.186873         3
        25        26        27        30     9      180.000000        0.032348         4
        25        26        31        32     9        0.000000       -0.011175         1
        25        26        31        32     9      180.000000       17.759801         2
        25        26        31        32     9        0.000000       -1.674414         3
        25        26        31        32     9      180.000000       -0.400159         4
        25        26        31        64     9        0.000000        0.124948         1
        25        26        31        64     9      180.000000       14.034475         2
        25        26        31        64     9        0.000000       -0.702800         3
        25        26        31        64     9      180.000000        0.060915         4
        26        25        24        62     9        0.000000        0.072242         1
        26        25        24        62     9      180.000000       15.427600         2
        26        25        24        62     9        0.000000       -0.713637         3
        26        25        24        62     9      180.000000        0.090773         4
        26        31        32        33     9        0.000000       -0.047647         1
        26        31        32        33     9      180.000000       17.449493         2
        26        31        32        33     9        0.000000       -0.523161         3
        26        31        32        33     9      180.000000       -0.431148         4
        27        26        25        63     9        0.000000        0.122363         1
        27        26        25        63     9      180.000000       11.493078         2
        27        26        25        63     9        0.000000       -0.272449         3
        27        26        25        63     9      180.000000        0.132038         4
        27        26        31        32     9        0.000000        0.031312         1
        27        26        31        32     9      180.000000       14.343546         2
        27        26        31        32     9        0.000000       -0.113218         3
        27        26        31        32     9      180.000000       -0.321206         4
        27        26        31        64     9        0.000000        0.021233         1
        27        26        31        64     9      180.000000       11.255697         2
        27        26        31        64     9        0.000000       -0.353476         3
        27        26        31        64     9      180.000000        0.163686         4
        28        27        26        31     9        0.000000       -0.028912         1
        28        27        26        31     9      180.000000        0.059371         2
        28        27        26        31     9        0.000000        0.082074         3
        28        27        26        31     9      180.000000        0.049959         4
        29        27        26        31     9        0.000000       -0.028912         1
        29        27        26        31     9      180.000000        0.059371         2
        29        27        26        31     9        0.000000        0.082074         3
        29        27        26        31     9      180.000000        0.049959         4
        30        27        26        31     9        0.000000       -0.028912         1
        30        27        26        31     9      180.000000        0.059371         2
        30        27        26        31     9        0.000000        0.082074         3
        30        27        26        31     9      180.000000        0.049959         4
        31        26        25        63     9        0.000000        0.163703         1
        31        26        25        63     9      180.000000       13.957222         2
        31        26        25        63     9        0.000000       -0.633766         3
        31        26        25        63     9      180.000000        0.029794         4
        31        32        33        34     9        0.000000       -0.427465         1
        31        32        33        34     9      180.000000        0.376565         2
        31        32        33        34     9        0.000000       -0.831731         3
        31        32        33        34     9      180.000000        0.172316         4
        31        32        33        65     9        0.000000       -0.085745         1
        31        32        33        65     9      180.000000       -0.041454         2
        31        32        33        65     9        0.000000       -0.645758         3
        31        32        33        65     9      180.000000        0.017658         4
        32        23        22        61     9        0.000000        5.986843         1
        32        23        22        61     9      180.000000        4.005795         2
        32        23        22        61     9        0.000000       -0.592975         3
        32        23        22        61     9      180.000000        0.382813         4
        32        23        24        62     9        0.000000        0.020995         1
        32        23        24        62     9      180.000000       12.789968         2
        32        23        24        62     9        0.000000       -0.209461         3
        32        23        24        62     9      180.000000        0.003015         4
        32        33        14        54     9        0.000000       -0.117973         1
        32        33        14        54     9      180.000000        0.034288         2
        32        33        14        54     9        0.000000        0.112251         3
        32        33        14        54     9      180.000000        0.233113         4
        33        14        13        52     9        0.000000       -0.118216         1
        33        14        13        52     9      180.000000        0.073215         2
        33        14        13        52     9        0.000000        0.150839         3
        33        14        13        52     9      180.000000        0.036023         4
        33        14        13        53     9        0.000000       -0.118216         1
        33        14        13        53     9      180.000000        0.073215         2
        33        14        13        53     9        0.000000        0.150839         3
        33        14        13        53     9      180.000000        0.036023         4
        33        14        15        55     9        0.000000       -0.125298         1
        33        14        15        55     9      180.000000       -0.032753         2
        33        14        15        55     9        0.000000        0.097338         3
        33        14        15        55     9      180.000000        0.143143         4
        33        32        31        64     9        0.000000       -0.033193         1
        33        32        31        64     9      180.000000       12.826044         2
        33        32        31        64     9        0.000000       -0.343922         3
        33        32        31        64     9      180.000000        0.168412         4
        33        34        11        49     9        0.000000       -0.315976         1
        33        34        11        49     9      180.000000        0.048047         2
        33        34        11        49     9        0.000000        0.404400         3
        33        34        11        49     9      180.000000        0.038400         4
        34        11        10        47     9        0.000000       -0.108710         1
        34        11        10        47     9      180.000000       -0.031336         2
        34        11        10        47     9        0.000000        0.449853         3
        34        11        10        47     9      180.000000        0.046536         4
        34        11        10        48     9        0.000000       -0.108710         1
        34        11        10        48     9      180.000000       -0.031336         2
        34        11        10        48     9        0.000000        0.449853         3
        34        11        10        48     9      180.000000        0.046536         4
        34        11        12        50     9        0.000000       -0.084066         1
        34        11        12        50     9      180.000000        0.005796         2
        34        11        12        50     9        0.000000        0.204111         3
        34        11        12        50     9      180.000000        0.007491         4
        34        11        12        51     9        0.000000       -0.084066         1
        34        11        12        51     9      180.000000        0.005796         2
        34        11        12        51     9        0.000000        0.204111         3
        34        11        12        51     9      180.000000        0.007491         4
        34        33        14        54     9        0.000000       -0.474840         1
        34        33        14        54     9      180.000000        0.172027         2
        34        33        14        54     9        0.000000        0.029214         3
        34        33        14        54     9      180.000000        0.217219         4
        35         1         2        66     9        0.000000       -0.094598         1
        35         1         2        66     9      180.000000        0.178840         2
        35         1         2        66     9        0.000000        0.506367         3
        35         1         2        66     9      180.000000        0.024330         4
        36         1         2        66     9        0.000000       -0.094598         1
        36         1         2        66     9      180.000000        0.178840         2
        36         1         2        66     9        0.000000        0.506367         3
        36         1         2        66     9      180.000000        0.024330         4
        37         1         2        66     9        0.000000       -0.094598         1
        37         1         2        66     9      180.000000        0.178840         2
        37         1         2        66     9        0.000000        0.506367         3
        37         1         2        66     9      180.000000        0.024330         4
        38         3         2        66     9        0.000000       -0.094598         1
        38         3         2        66     9      180.000000        0.178840         2
        38         3         2        66     9        0.000000        0.506367         3
        38         3         2        66     9      180.000000        0.024330         4
        39         3         2        66     9        0.000000       -0.094598         1
        39         3         2        66     9      180.000000        0.178840         2
        39         3         2        66     9        0.000000        0.506367         3
        39         3         2        66     9      180.000000        0.024330         4
        40         3         2        66     9        0.000000       -0.094598         1
        40         3         2        66     9      180.000000        0.178840         2
        40         3         2        66     9        0.000000        0.506367         3
        40         3         2        66     9      180.000000        0.024330         4
        41         4         2        66     9        0.000000        0.355902         1
        41         4         2        66     9      180.000000        0.192655         2
        41         4         2        66     9        0.000000        0.454292         3
        41         4         2        66     9      180.000000       -0.007143         4
        41         4         5        43     9        0.000000       -0.300284         1
        41         4         5        43     9      180.000000       -0.103540         2
        41         4         5        43     9        0.000000        0.638950         3
        41         4         5        43     9      180.000000       -0.071059         4
        41         4         5        44     9        0.000000       -0.300284         1
        41         4         5        44     9      180.000000       -0.103540         2
        41         4         5        44     9        0.000000        0.638950         3
        41         4         5        44     9      180.000000       -0.071059         4
        42         4         2        66     9        0.000000        0.355902         1
        42         4         2        66     9      180.000000        0.192655         2
        42         4         2        66     9        0.000000        0.454292         3
        42         4         2        66     9      180.000000       -0.007143         4
        42         4         5        43     9        0.000000       -0.300284         1
        42         4         5        43     9      180.000000       -0.103540         2
        42         4         5        43     9        0.000000        0.638950         3
        42         4         5        43     9      180.000000       -0.071059         4
        42         4         5        44     9        0.000000       -0.300284         1
        42         4         5        44     9      180.000000       -0.103540         2
        42         4         5        44     9        0.000000        0.638950         3
        42         4         5        44     9      180.000000       -0.071059         4
        43         5         6        45     9        0.000000        1.366603         1
        43         5         6        45     9      180.000000       -0.237021         2
        43         5         6        45     9        0.000000        1.547757         3
        43         5         6        45     9      180.000000        0.258437         4
        44         5         6        45     9        0.000000        1.366603         1
        44         5         6        45     9      180.000000       -0.237021         2
        44         5         6        45     9        0.000000        1.547757         3
        44         5         6        45     9      180.000000        0.258437         4
        46         9        10        47     9        0.000000       -0.201304         1
        46         9        10        47     9      180.000000        0.134826         2
        46         9        10        47     9        0.000000        0.587548         3
        46         9        10        47     9      180.000000        0.051825         4
        46         9        10        48     9        0.000000       -0.201304         1
        46         9        10        48     9      180.000000        0.134826         2
        46         9        10        48     9        0.000000        0.587548         3
        46         9        10        48     9      180.000000        0.051825         4
        47        10        11        49     9        0.000000       -0.054329         1
        47        10        11        49     9      180.000000        0.038652         2
        47        10        11        49     9        0.000000        0.708354         3
        47        10        11        49     9      180.000000       -0.067039         4
        48        10        11        49     9        0.000000       -0.054329         1
        48        10        11        49     9      180.000000        0.038652         2
        48        10        11        49     9        0.000000        0.708354         3
        48        10        11        49     9      180.000000       -0.067039         4
        49        11        12        50     9        0.000000        0.008991         1
        49        11        12        50     9      180.000000       -0.016002         2
        49        11        12        50     9        0.000000        0.463287         3
        49        11        12        50     9      180.000000       -0.049198         4
        49        11        12        51     9        0.000000        0.008991         1
        49        11        12        51     9      180.000000       -0.016002         2
        49        11        12        51     9        0.000000        0.463287         3
        49        11        12        51     9      180.000000       -0.049198         4
        50        12        13        52     9        0.000000        0.002608         1
        50        12        13        52     9      180.000000       -0.019703         2
        50        12        13        52     9        0.000000        0.279086         3
        50        12        13        52     9      180.000000        0.006997         4
        50        12        13        53     9        0.000000        0.002608         1
        50        12        13        53     9      180.000000       -0.019703         2
        50        12        13        53     9        0.000000        0.279086         3
        50        12        13        53     9      180.000000        0.006997         4
        51        12        13        52     9        0.000000        0.002608         1
        51        12        13        52     9      180.000000       -0.019703         2
        51        12        13        52     9        0.000000        0.279086         3
        51        12        13        52     9      180.000000        0.006997         4
        51        12        13        53     9        0.000000        0.002608         1
        51        12        13        53     9      180.000000       -0.019703         2
        51        12        13        53     9        0.000000        0.279086         3
        51        12        13        53     9      180.000000        0.006997         4
        52        13        14        54     9        0.000000        0.307712         1
        52        13        14        54     9      180.000000        0.073108         2
        52        13        14        54     9        0.000000        0.368973         3
        52        13        14        54     9      180.000000       -0.053939         4
        53        13        14        54     9        0.000000        0.307712         1
        53        13        14        54     9      180.000000        0.073108         2
        53        13        14        54     9        0.000000        0.368973         3
        53        13        14        54     9      180.000000       -0.053939         4
        54        14        15        55     9        0.000000        0.589952         1
        54        14        15        55     9      180.000000        0.106994         2
        54        14        15        55     9        0.000000        0.459468         3
        54        14        15        55     9      180.000000       -0.274357         4
        54        14        33        65     9        0.000000        0.101714         1
        54        14        33        65     9      180.000000        0.049917         2
        54        14        33        65     9        0.000000        0.246326         3
        54        14        33        65     9      180.000000       -0.118900         4
        55        15        22        61     9        0.000000       -0.890253         1
        55        15        22        61     9      180.000000       -0.260122         2
        55        15        22        61     9        0.000000        0.459101         3
        55        15        22        61     9      180.000000       -0.171435         4
        56        17        18        57     9        0.000000       -0.180341         1
        56        17        18        57     9      180.000000       11.789159         2
        56        17        18        57     9        0.000000       -0.659630         3
        56        17        18        57     9      180.000000        0.310085         4
        57        18        19        58     9        0.000000       -0.084558         1
        57        18        19        58     9      180.000000       11.520937         2
        57        18        19        58     9        0.000000       -0.587926         3
        57        18        19        58     9      180.000000        0.263272         4
        58        19        20        59     9        0.000000       -0.084558         1
        58        19        20        59     9      180.000000       11.520937         2
        58        19        20        59     9        0.000000       -0.587926         3
        58        19        20        59     9      180.000000        0.263272         4
        59        20        21        60     9        0.000000       -0.180341         1
        59        20        21        60     9      180.000000       11.789159         2
        59        20        21        60     9        0.000000       -0.659630         3
        59        20        21        60     9      180.000000        0.310085         4
        62        24        25        63     9        0.000000       -0.149690         1
        62        24        25        63     9      180.000000       12.317766         2
        62        24        25        63     9        0.000000       -0.778015         3
        62        24        25        63     9      180.000000        0.331039         4

[ dihedrals ] ; impropers
;       ai        aj        ak        al funct           phase               k        pn
         7         6         8         9     4      180.000000        1.111697         2
         7         8         9         6     4      180.000000        1.111697         2
         7         9         6         8     4      180.000000        1.111697         2
        17        16        18        56     4      180.000000        0.182436         2
        17        18        56        16     4      180.000000        0.182436         2
        17        56        16        18     4      180.000000        0.182436         2
        18        17        19        57     4      180.000000        0.258179         2
        18        19        57        17     4      180.000000        0.258179         2
        18        57        17        19     4      180.000000        0.258179         2
        19        18        20        58     4      180.000000        0.333131         2
        19        20        58        18     4      180.000000        0.333131         2
        19        58        18        20     4      180.000000        0.333131         2
        20        19        21        59     4      180.000000        0.258179         2
        20        21        59        19     4      180.000000        0.258179         2
        20        59        19        21     4      180.000000        0.258179         2
        21        16        20        60     4      180.000000        0.182436         2
        21        20        60        16     4      180.000000        0.182436         2
        21        60        16        20     4      180.000000        0.182436         2

[ pairs ]
;       ai        aj funct
         1         5     1
         1        38     1
         1        39     1
         1        40     1
         1        41     1
         1        42     1
         2         6     1
         2        43     1
         2        44     1
         3         5     1
         3        35     1
         3        36     1
         3        37     1
         3        41     1
         3        42     1
         4         7     1
         4        35     1
         4        36     1
         4        37     1
         4        38     1
         4        39     1
         4        40     1
         4        45     1
         5         8     1
         5         9     1
         5        66     1
         6        10     1
         6        41     1
         6        42     1
         6        46     1
         7        11     1
         7        43     1
         7        44     1
         7        47     1
         7        48     1
         8        10     1
         8        45     1
         8        46     1
         9        12     1
         9        34     1
         9        45     1
         9        49     1
        10        13     1
        10        33     1
        10        50     1
        10        51     1
        11        14     1
        11        32     1
        11        46     1
        11        52     1
        11        53     1
        11        65     1
        12        15     1
        12        33     1
        12        47     1
        12        48     1
        12        54     1
        13        16     1
        13        22     1
        13        32     1
        13        34     1
        13        49     1
        13        55     1
        13        65     1
        14        17     1
        14        21     1
        14        23     1
        14        31     1
        14        50     1
        14        51     1
        14        61     1
        15        18     1
        15        20     1
        15        24     1
        15        32     1
        15        34     1
        15        52     1
        15        53     1
        15        56     1
        15        60     1
        15        65     1
        16        19     1
        16        23     1
        16        33     1
        16        54     1
        16        57     1
        16        59     1
        16        61     1
        17        20     1
        17        22     1
        17        55     1
        17        58     1
        17        60     1
        18        21     1
        18        59     1
        19        56     1
        19        60     1
        20        57     1
        21        22     1
        21        55     1
        21        56     1
        21        58     1
        22        25     1
        22        31     1
        22        33     1
        22        54     1
        22        62     1
        23        26     1
        23        34     1
        23        55     1
        23        63     1
        23        64     1
        23        65     1
        24        27     1
        24        31     1
        24        33     1
        24        61     1
        25        28     1
        25        29     1
        25        30     1
        25        32     1
        25        64     1
        26        33     1
        26        62     1
        27        32     1
        27        63     1
        27        64     1
        28        31     1
        29        31     1
        30        31     1
        31        34     1
        31        63     1
        31        65     1
        32        54     1
        32        61     1
        32        62     1
        33        49     1
        33        52     1
        33        53     1
        33        55     1
        33        64     1
        34        47     1
        34        48     1
        34        50     1
        34        51     1
        34        54     1
        35        66     1
        36        66     1
        37        66     1
        38        66     1
        39        66     1
        40        66     1
        41        43     1
        41        44     1
        41        66     1
        42        43     1
        42        44     1
        42        66     1
        43        45     1
        44        45     1
        46        47     1
        46        48     1
        47        49     1
        48        49     1
        49        50     1
        49        51     1
        50        52     1
        50        53     1
        51        52     1
        51        53     1
        52        54     1
        53        54     1
        54        55     1
        54        65     1
        55        61     1
        56        57     1
        57        58     1
        58        59     1
        59        60     1
        62        63     1
