; ITP file created by ByteFF-ML, 2026-02-21 07:38:32.039854

[ atomtypes ]
;name           bonded.type        at.num        mass        charge   ptype           sigma         epsilon
 c0bf                                   6      0.0000       0.00000       A     3.39772e-01     4.50374e-01
 c1bf                                   6      0.0000       0.00000       A     3.39867e-01     4.54082e-01
 c2bf                                   6      0.0000       0.00000       A     3.39772e-01     4.50374e-01
 c3bf                                   6      0.0000       0.00000       A     3.39772e-01     4.50374e-01
 c4bf                                   6      0.0000       0.00000       A     3.31513e-01     4.12293e-01
 c5bf                                   6      0.0000       0.00000       A     3.31494e-01     4.12775e-01
 c6bf                                   6      0.0000       0.00000       A     3.31495e-01     4.14234e-01
 c7bf                                   6      0.0000       0.00000       A     3.31454e-01     4.11042e-01
 c8bf                                   6      0.0000       0.00000       A     3.31296e-01     4.09623e-01
 c9bf                                   6      0.0000       0.00000       A     3.31271e-01     4.12345e-01
 c10bf                                  6      0.0000       0.00000       A     3.39728e-01     4.52323e-01
 o11bf                                  8      0.0000       0.00000       A     3.15787e-01     3.02296e-01
 c12bf                                  6      0.0000       0.00000       A     3.39725e-01     4.51957e-01
 c13bf                                  6      0.0000       0.00000       A     3.39741e-01     4.51506e-01
 c14bf                                  6      0.0000       0.00000       A     3.39888e-01     4.51445e-01
 c15bf                                  6      0.0000       0.00000       A     3.40224e-01     4.50974e-01
 c16bf                                  6      0.0000       0.00000       A     3.39362e-01     4.50344e-01
 c17bf                                  6      0.0000       0.00000       A     3.31461e-01     4.11318e-01
 c18bf                                  6      0.0000       0.00000       A     3.31512e-01     4.13757e-01
 c19bf                                  6      0.0000       0.00000       A     3.31538e-01     4.13586e-01
 c20bf                                  6      0.0000       0.00000       A     3.31448e-01     4.12509e-01
 o21bf                                  8      0.0000       0.00000       A     3.24473e-01     3.89637e-01
 c22bf                                  6      0.0000       0.00000       A     3.31538e-01     4.13586e-01
 c23bf                                  6      0.0000       0.00000       A     3.31512e-01     4.13757e-01
 n24bf                                  7      0.0000       0.00000       A     3.28286e-01     6.41163e-01
 h25bf                                  1      0.0000       0.00000       A     2.59968e-01     8.75795e-02
 h26bf                                  1      0.0000       0.00000       A     2.59968e-01     8.75795e-02
 h27bf                                  1      0.0000       0.00000       A     2.59968e-01     8.75795e-02
 h28bf                                  1      0.0000       0.00000       A     2.59968e-01     8.75795e-02
 h29bf                                  1      0.0000       0.00000       A     2.59968e-01     8.75795e-02
 h30bf                                  1      0.0000       0.00000       A     2.59968e-01     8.75795e-02
 h31bf                                  1      0.0000       0.00000       A     2.59968e-01     8.75795e-02
 h32bf                                  1      0.0000       0.00000       A     2.59968e-01     8.75795e-02
 h33bf                                  1      0.0000       0.00000       A     2.59968e-01     8.75795e-02
 h34bf                                  1      0.0000       0.00000       A     2.62486e-01     6.76526e-02
 h35bf                                  1      0.0000       0.00000       A     2.62406e-01     6.70142e-02
 h36bf                                  1      0.0000       0.00000       A     2.62333e-01     6.71626e-02
 h37bf                                  1      0.0000       0.00000       A     2.42784e-01     8.90383e-02
 h38bf                                  1      0.0000       0.00000       A     2.42137e-01     8.75316e-02
 h39bf                                  1      0.0000       0.00000       A     2.42137e-01     8.75316e-02
 h40bf                                  1      0.0000       0.00000       A     2.60214e-01     8.73226e-02
 h41bf                                  1      0.0000       0.00000       A     2.60214e-01     8.73226e-02
 h42bf                                  1      0.0000       0.00000       A     2.60011e-01     8.65931e-02
 h43bf                                  1      0.0000       0.00000       A     2.60011e-01     8.65931e-02
 h44bf                                  1      0.0000       0.00000       A     2.59608e-01     8.66043e-02
 h45bf                                  1      0.0000       0.00000       A     2.42675e-01     8.80520e-02
 h46bf                                  1      0.0000       0.00000       A     2.62514e-01     6.75903e-02
 h47bf                                  1      0.0000       0.00000       A     2.62350e-01     6.73062e-02
 h48bf                                  1      0.0000       0.00000       A     5.35921e-02     2.01009e-02
 h49bf                                  1      0.0000       0.00000       A     2.62350e-01     6.73062e-02
 h50bf                                  1      0.0000       0.00000       A     2.62514e-01     6.75903e-02
 h51bf                                  1      0.0000       0.00000       A     1.10887e-01     4.11451e-02

[ moleculetype ]
;name             nrexcl
 CHEMBL1078691         3

[ atoms ]
;       nr            type      resi   res      atom      cgnr      charge          mass ; qtot
         1            c0bf         1   UNL        c0         1    -0.08750       12.0110 ; qtot   -0.087
         2            c1bf         1   UNL        c1         2     0.00063       12.0110 ; qtot   -0.087
         3            c2bf         1   UNL        c2         3    -0.08750       12.0110 ; qtot   -0.174
         4            c3bf         1   UNL        c3         4    -0.08750       12.0110 ; qtot   -0.262
         5            c4bf         1   UNL        c4         5    -0.10900       12.0110 ; qtot   -0.371
         6            c5bf         1   UNL        c5         6    -0.07284       12.0110 ; qtot   -0.444
         7            c6bf         1   UNL        c6         7    -0.17114       12.0110 ; qtot   -0.615
         8            c7bf         1   UNL        c7         8     0.28943       12.0110 ; qtot   -0.325
         9            c8bf         1   UNL        c8         9    -0.15575       12.0110 ; qtot   -0.481
        10            c9bf         1   UNL        c9        10    -0.05255       12.0110 ; qtot   -0.534
        11           c10bf         1   UNL       c10        11     0.22487       12.0110 ; qtot   -0.309
        12           o11bf         1   UNL       o11        12    -0.45639       15.9990 ; qtot   -0.765
        13           c12bf         1   UNL       c12        13     0.15360       12.0110 ; qtot   -0.612
        14           c13bf         1   UNL       c13        14    -0.11007       12.0110 ; qtot   -0.722
        15           c14bf         1   UNL       c14        15    -0.06818       12.0110 ; qtot   -0.790
        16           c15bf         1   UNL       c15        16    -0.09823       12.0110 ; qtot   -0.888
        17           c16bf         1   UNL       c16        17     0.26396       12.0110 ; qtot   -0.624
        18           c17bf         1   UNL       c17        18    -0.13402       12.0110 ; qtot   -0.758
        19           c18bf         1   UNL       c18        19    -0.06003       12.0110 ; qtot   -0.818
        20           c19bf         1   UNL       c19        20    -0.17261       12.0110 ; qtot   -0.991
        21           c20bf         1   UNL       c20        21     0.12862       12.0110 ; qtot   -0.862
        22           o21bf         1   UNL       o21        22    -0.53872       15.9990 ; qtot   -1.401
        23           c22bf         1   UNL       c22        23    -0.17261       12.0110 ; qtot   -1.574
        24           c23bf         1   UNL       c23        24    -0.06003       12.0110 ; qtot   -1.634
        25           n24bf         1   UNL       n24        25    -0.92305       14.0070 ; qtot   -2.557
        26           h25bf         1   UNL       h25        26     0.03657        1.0080 ; qtot   -2.520
        27           h26bf         1   UNL       h26        27     0.03657        1.0080 ; qtot   -2.483
        28           h27bf         1   UNL       h27        28     0.03657        1.0080 ; qtot   -2.447
        29           h28bf         1   UNL       h28        29     0.03657        1.0080 ; qtot   -2.410
        30           h29bf         1   UNL       h29        30     0.03657        1.0080 ; qtot   -2.374
        31           h30bf         1   UNL       h30        31     0.03657        1.0080 ; qtot   -2.337
        32           h31bf         1   UNL       h31        32     0.03657        1.0080 ; qtot   -2.301
        33           h32bf         1   UNL       h32        33     0.03657        1.0080 ; qtot   -2.264
        34           h33bf         1   UNL       h33        34     0.03657        1.0080 ; qtot   -2.227
        35           h34bf         1   UNL       h34        35     0.11563        1.0080 ; qtot   -2.112
        36           h35bf         1   UNL       h35        36     0.11606        1.0080 ; qtot   -1.996
        37           h36bf         1   UNL       h36        37     0.11995        1.0080 ; qtot   -1.876
        38           h37bf         1   UNL       h37        38     0.05487        1.0080 ; qtot   -1.821
        39           h38bf         1   UNL       h38        39     0.04701        1.0080 ; qtot   -1.774
        40           h39bf         1   UNL       h39        40     0.04701        1.0080 ; qtot   -1.727
        41           h40bf         1   UNL       h40        41     0.04954        1.0080 ; qtot   -1.677
        42           h41bf         1   UNL       h41        42     0.04954        1.0080 ; qtot   -1.628
        43           h42bf         1   UNL       h42        43     0.04810        1.0080 ; qtot   -1.580
        44           h43bf         1   UNL       h43        44     0.04810        1.0080 ; qtot   -1.532
        45           h44bf         1   UNL       h44        45     0.06789        1.0080 ; qtot   -1.464
        46           h45bf         1   UNL       h45        46     0.05590        1.0080 ; qtot   -1.408
        47           h46bf         1   UNL       h46        47     0.11992        1.0080 ; qtot   -1.288
        48           h47bf         1   UNL       h47        48     0.12397        1.0080 ; qtot   -1.164
        49           h48bf         1   UNL       h48        49     0.46233        1.0080 ; qtot   -0.702
        50           h49bf         1   UNL       h49        50     0.12397        1.0080 ; qtot   -0.578
        51           h50bf         1   UNL       h50        51     0.11992        1.0080 ; qtot   -0.458
        52           h51bf         1   UNL       h51        52     0.45777        1.0080 ; qtot    0.000

[ bonds ]
;       ai        aj funct               r               k
         1         2     1        0.154414   170954.552441
         1        26     1        0.109415   298687.904785
         1        27     1        0.109415   298687.904785
         1        28     1        0.109415   298687.904785
         2         3     1        0.154414   170954.552441
         2         4     1        0.154414   170954.552441
         2         5     1        0.153459   164414.179517
         3        29     1        0.109415   298687.904785
         3        30     1        0.109415   298687.904785
         3        31     1        0.109415   298687.904785
         4        32     1        0.109415   298687.904785
         4        33     1        0.109415   298687.904785
         4        34     1        0.109415   298687.904785
         5         6     1        0.140490   282236.796777
         5        10     1        0.140242   281430.079492
         6         7     1        0.139232   329254.803223
         6        35     1        0.108572   318246.879004
         7         8     1        0.140519   280318.270361
         7        36     1        0.108692   314821.944043
         8         9     1        0.140983   267526.298145
         8        25     1        0.140120   267840.302441
         9        10     1        0.139690   302459.020801
         9        11     1        0.151176   191189.736548
        10        37     1        0.108557   317207.952783
        11        12     1        0.143550   180918.136572
        11        16     1        0.153825   166667.969873
        11        38     1        0.110060   278479.266504
        12        13     1        0.143239   192866.183936
        13        14     1        0.153236   183760.135938
        13        39     1        0.109612   292242.721436
        13        40     1        0.109612   292242.721436
        14        15     1        0.153739   183841.892993
        14        41     1        0.109516   296518.655029
        14        42     1        0.109516   296518.655029
        15        16     1        0.153769   176136.695898
        15        43     1        0.109484   296390.177832
        15        44     1        0.109484   296390.177832
        16        17     1        0.154249   162484.684912
        16        45     1        0.109656   296483.005225
        17        18     1        0.151927   181665.314087
        17        25     1        0.146639   193821.578271
        17        46     1        0.109903   282326.764014
        18        19     1        0.140178   287672.115137
        18        24     1        0.140178   287672.115137
        19        20     1        0.139637   323208.126465
        19        47     1        0.108668   316413.952979
        20        21     1        0.140054   291117.888379
        20        48     1        0.108641   318373.670752
        21        22     1        0.137530   281127.056152
        21        23     1        0.140054   291117.888379
        22        49     1        0.097010   469639.597070
        23        24     1        0.139637   323208.126465
        23        50     1        0.108641   318373.670752
        24        51     1        0.108668   316413.952979
        25        52     1        0.101355   410549.688281

[ angles ]
;       ai        aj        ak funct           theta             cth
         1         2         3     1      108.597389      558.465108
         1         2         4     1      108.597389      558.465108
         1         2         5     1      110.375267      651.238681
         2         1        26     1      111.037216      474.616371
         2         1        27     1      111.037216      474.616435
         2         1        28     1      111.037216      474.616435
         2         3        29     1      111.037216      474.616435
         2         3        30     1      111.037216      474.616435
         2         3        31     1      111.037216      474.616435
         2         4        32     1      111.037216      474.616435
         2         4        33     1      111.037216      474.616435
         2         4        34     1      111.037216      474.616435
         2         5         6     1      121.634232      520.072937
         2         5        10     1      121.651917      457.842736
         3         2         4     1      108.597389      558.465108
         3         2         5     1      110.375267      651.238681
         4         2         5     1      110.375267      651.238681
         5         6         7     1      121.554367      682.328132
         5         6        35     1      119.969864      408.296530
         5        10         9     1      122.767883      676.762702
         5        10        37     1      119.777512      396.482106
         6         5        10     1      116.841629      645.210391
         6         7         8     1      120.841492      766.110728
         6         7        36     1      119.752075      440.364053
         7         6        35     1      118.573975      426.395765
         7         8         9     1      118.739220      649.581195
         7         8        25     1      120.154091      539.485098
         8         7        36     1      119.252686      422.216681
         8         9        10     1      119.146629      766.119474
         8         9        11     1      120.117088      556.339782
         8        25        17     1      118.392113      536.379083
         8        25        52     1      113.638138      488.208051
         9         8        25     1      120.459511      574.804580
         9        10        37     1      117.888382      404.471550
         9        11        12     1      109.823265      642.923542
         9        11        16     1      112.012329      576.810392
         9        11        38     1      108.654198      462.147207
        10         9        11     1      120.650597      471.952340
        11        12        13     1      112.658241      607.273674
        11        16        15     1      110.105003      606.743970
        11        16        17     1      109.540939      676.731739
        11        16        45     1      107.208214      503.533891
        12        11        16     1      111.133713      584.398170
        12        11        38     1      107.123779      472.293611
        12        13        14     1      111.778992      604.880655
        12        13        39     1      107.407181      487.184396
        12        13        40     1      107.407181      487.184459
        13        14        15     1      110.190475      650.990205
        13        14        41     1      109.426193      501.313982
        13        14        42     1      109.426193      501.313982
        14        13        39     1      110.939331      481.591130
        14        13        40     1      110.939331      481.591162
        14        15        16     1      110.515076      629.788658
        14        15        43     1      110.010902      497.900661
        14        15        44     1      110.010902      497.900661
        15        14        41     1      110.377014      506.891032
        15        14        42     1      110.377014      506.891032
        15        16        17     1      113.380211      594.274966
        15        16        45     1      108.744408      484.153396
        16        11        38     1      108.280960      469.625143
        16        15        43     1      109.587547      497.756408
        16        15        44     1      109.587547      497.756408
        16        17        18     1      112.877846      535.614183
        16        17        25     1      108.700279      594.829441
        16        17        46     1      107.215530      478.678368
        17        16        45     1      107.083603      494.931461
        17        18        19     1      120.945534      494.613364
        17        18        24     1      120.945534      494.613364
        17        25        52     1      113.211632      469.750690
        18        17        25     1      111.186745      591.324919
        18        17        46     1      107.682533      483.971540
        18        19        20     1      121.297119      680.825082
        18        19        47     1      119.612595      401.284199
        18        24        23     1      121.297119      680.825082
        18        24        51     1      119.612595      401.284199
        19        18        24     1      118.204102      639.555325
        19        20        21     1      119.671097      744.327446
        19        20        48     1      120.669540      432.267225
        20        19        47     1      119.020142      422.540938
        20        21        22     1      120.070946      616.848111
        20        21        23     1      119.795227      571.932932
        21        20        48     1      119.606857      442.297308
        21        22        49     1      109.079544      610.202972
        21        23        24     1      119.671097      744.327446
        21        23        50     1      119.606857      442.297308
        22        21        23     1      120.070946      616.848111
        23        24        51     1      119.020142      422.540938
        24        23        50     1      120.669540      432.267225
        25        17        46     1      109.216263      441.919263
        26         1        27     1      107.883362      362.487776
        26         1        28     1      107.883362      362.487776
        27         1        28     1      107.883362      362.487840
        29         3        30     1      107.883362      362.487840
        29         3        31     1      107.883362      362.487840
        30         3        31     1      107.883362      362.487840
        32         4        33     1      107.883362      362.487840
        32         4        34     1      107.883377      362.487840
        33         4        34     1      107.883377      362.487840
        39        13        40     1      107.938248      342.346339
        41        14        42     1      107.040810      361.114550
        43        15        44     1      106.573685      361.821577

[ dihedrals ] ; propers for gromacs 4.5 or higher, use funct 9
;       ai        aj        ak        al funct           phase               k        pn
         1         2         3        29     9        0.000000       -0.087544         1
         1         2         3        29     9      180.000000        0.034291         2
         1         2         3        29     9        0.000000        0.537560         3
         1         2         3        29     9      180.000000        0.036946         4
         1         2         3        30     9        0.000000       -0.087544         1
         1         2         3        30     9      180.000000        0.034291         2
         1         2         3        30     9        0.000000        0.537560         3
         1         2         3        30     9      180.000000        0.036946         4
         1         2         3        31     9        0.000000       -0.087544         1
         1         2         3        31     9      180.000000        0.034291         2
         1         2         3        31     9        0.000000        0.537560         3
         1         2         3        31     9      180.000000        0.036946         4
         1         2         4        32     9        0.000000       -0.087544         1
         1         2         4        32     9      180.000000        0.034291         2
         1         2         4        32     9        0.000000        0.537560         3
         1         2         4        32     9      180.000000        0.036946         4
         1         2         4        33     9        0.000000       -0.087544         1
         1         2         4        33     9      180.000000        0.034291         2
         1         2         4        33     9        0.000000        0.537560         3
         1         2         4        33     9      180.000000        0.036946         4
         1         2         4        34     9        0.000000       -0.087544         1
         1         2         4        34     9      180.000000        0.034291         2
         1         2         4        34     9        0.000000        0.537560         3
         1         2         4        34     9      180.000000        0.036946         4
         1         2         5         6     9        0.000000        0.066118         1
         1         2         5         6     9      180.000000        0.256919         2
         1         2         5         6     9        0.000000        0.081785         3
         1         2         5         6     9      180.000000        0.232755         4
         1         2         5        10     9        0.000000       -0.084442         1
         1         2         5        10     9      180.000000        0.316333         2
         1         2         5        10     9        0.000000       -0.069832         3
         1         2         5        10     9      180.000000        0.262308         4
         2         5         6         7     9        0.000000       -0.015529         1
         2         5         6         7     9      180.000000       14.441998         2
         2         5         6         7     9        0.000000       -0.038910         3
         2         5         6         7     9      180.000000       -0.170463         4
         2         5         6        35     9        0.000000       -0.003084         1
         2         5         6        35     9      180.000000       12.620195         2
         2         5         6        35     9        0.000000       -0.269328         3
         2         5         6        35     9      180.000000        0.172534         4
         2         5        10         9     9        0.000000        0.003069         1
         2         5        10         9     9      180.000000       14.254698         2
         2         5        10         9     9        0.000000       -0.042586         3
         2         5        10         9     9      180.000000       -0.261407         4
         2         5        10        37     9        0.000000       -0.016810         1
         2         5        10        37     9      180.000000       12.814783         2
         2         5        10        37     9        0.000000       -0.264071         3
         2         5        10        37     9      180.000000        0.141286         4
         3         2         1        26     9        0.000000       -0.087543         1
         3         2         1        26     9      180.000000        0.034291         2
         3         2         1        26     9        0.000000        0.537560         3
         3         2         1        26     9      180.000000        0.036946         4
         3         2         1        27     9        0.000000       -0.087544         1
         3         2         1        27     9      180.000000        0.034291         2
         3         2         1        27     9        0.000000        0.537560         3
         3         2         1        27     9      180.000000        0.036946         4
         3         2         1        28     9        0.000000       -0.087544         1
         3         2         1        28     9      180.000000        0.034291         2
         3         2         1        28     9        0.000000        0.537560         3
         3         2         1        28     9      180.000000        0.036946         4
         3         2         4        32     9        0.000000       -0.087544         1
         3         2         4        32     9      180.000000        0.034291         2
         3         2         4        32     9        0.000000        0.537560         3
         3         2         4        32     9      180.000000        0.036946         4
         3         2         4        33     9        0.000000       -0.087544         1
         3         2         4        33     9      180.000000        0.034291         2
         3         2         4        33     9        0.000000        0.537560         3
         3         2         4        33     9      180.000000        0.036946         4
         3         2         4        34     9        0.000000       -0.087544         1
         3         2         4        34     9      180.000000        0.034291         2
         3         2         4        34     9        0.000000        0.537560         3
         3         2         4        34     9      180.000000        0.036946         4
         3         2         5         6     9        0.000000        0.066118         1
         3         2         5         6     9      180.000000        0.256919         2
         3         2         5         6     9        0.000000        0.081785         3
         3         2         5         6     9      180.000000        0.232755         4
         3         2         5        10     9        0.000000       -0.084442         1
         3         2         5        10     9      180.000000        0.316333         2
         3         2         5        10     9        0.000000       -0.069832         3
         3         2         5        10     9      180.000000        0.262308         4
         4         2         1        26     9        0.000000       -0.087543         1
         4         2         1        26     9      180.000000        0.034291         2
         4         2         1        26     9        0.000000        0.537560         3
         4         2         1        26     9      180.000000        0.036946         4
         4         2         1        27     9        0.000000       -0.087544         1
         4         2         1        27     9      180.000000        0.034291         2
         4         2         1        27     9        0.000000        0.537560         3
         4         2         1        27     9      180.000000        0.036946         4
         4         2         1        28     9        0.000000       -0.087544         1
         4         2         1        28     9      180.000000        0.034291         2
         4         2         1        28     9        0.000000        0.537560         3
         4         2         1        28     9      180.000000        0.036946         4
         4         2         3        29     9        0.000000       -0.087544         1
         4         2         3        29     9      180.000000        0.034291         2
         4         2         3        29     9        0.000000        0.537560         3
         4         2         3        29     9      180.000000        0.036946         4
         4         2         3        30     9        0.000000       -0.087544         1
         4         2         3        30     9      180.000000        0.034291         2
         4         2         3        30     9        0.000000        0.537560         3
         4         2         3        30     9      180.000000        0.036946         4
         4         2         3        31     9        0.000000       -0.087544         1
         4         2         3        31     9      180.000000        0.034291         2
         4         2         3        31     9        0.000000        0.537560         3
         4         2         3        31     9      180.000000        0.036946         4
         4         2         5         6     9        0.000000        0.066118         1
         4         2         5         6     9      180.000000        0.256919         2
         4         2         5         6     9        0.000000        0.081785         3
         4         2         5         6     9      180.000000        0.232755         4
         4         2         5        10     9        0.000000       -0.084442         1
         4         2         5        10     9      180.000000        0.316333         2
         4         2         5        10     9        0.000000       -0.069832         3
         4         2         5        10     9      180.000000        0.262308         4
         5         2         1        26     9        0.000000       -0.010428         1
         5         2         1        26     9      180.000000        0.022822         2
         5         2         1        26     9        0.000000        0.616609         3
         5         2         1        26     9      180.000000       -0.012817         4
         5         2         1        27     9        0.000000       -0.010429         1
         5         2         1        27     9      180.000000        0.022823         2
         5         2         1        27     9        0.000000        0.616609         3
         5         2         1        27     9      180.000000       -0.012818         4
         5         2         1        28     9        0.000000       -0.010429         1
         5         2         1        28     9      180.000000        0.022823         2
         5         2         1        28     9        0.000000        0.616609         3
         5         2         1        28     9      180.000000       -0.012818         4
         5         2         3        29     9        0.000000       -0.010429         1
         5         2         3        29     9      180.000000        0.022823         2
         5         2         3        29     9        0.000000        0.616609         3
         5         2         3        29     9      180.000000       -0.012818         4
         5         2         3        30     9        0.000000       -0.010429         1
         5         2         3        30     9      180.000000        0.022823         2
         5         2         3        30     9        0.000000        0.616609         3
         5         2         3        30     9      180.000000       -0.012818         4
         5         2         3        31     9        0.000000       -0.010429         1
         5         2         3        31     9      180.000000        0.022823         2
         5         2         3        31     9        0.000000        0.616609         3
         5         2         3        31     9      180.000000       -0.012818         4
         5         2         4        32     9        0.000000       -0.010429         1
         5         2         4        32     9      180.000000        0.022823         2
         5         2         4        32     9        0.000000        0.616609         3
         5         2         4        32     9      180.000000       -0.012818         4
         5         2         4        33     9        0.000000       -0.010429         1
         5         2         4        33     9      180.000000        0.022823         2
         5         2         4        33     9        0.000000        0.616609         3
         5         2         4        33     9      180.000000       -0.012818         4
         5         2         4        34     9        0.000000       -0.010429         1
         5         2         4        34     9      180.000000        0.022823         2
         5         2         4        34     9        0.000000        0.616609         3
         5         2         4        34     9      180.000000       -0.012818         4
         5         6         7         8     9        0.000000        0.042972         1
         5         6         7         8     9      180.000000       17.877930         2
         5         6         7         8     9        0.000000       -1.815754         3
         5         6         7         8     9      180.000000       -0.374703         4
         5         6         7        36     9        0.000000        0.017015         1
         5         6         7        36     9      180.000000       14.679926         2
         5         6         7        36     9        0.000000       -0.662311         3
         5         6         7        36     9      180.000000        0.174306         4
         5        10         9         8     9        0.000000        0.088558         1
         5        10         9         8     9      180.000000       18.698307         2
         5        10         9         8     9        0.000000       -1.677828         3
         5        10         9         8     9      180.000000       -0.416696         4
         5        10         9        11     9        0.000000        0.017762         1
         5        10         9        11     9      180.000000       16.569428         2
         5        10         9        11     9        0.000000       -0.177744         3
         5        10         9        11     9      180.000000       -0.306536         4
         6         5        10         9     9        0.000000       -0.064636         1
         6         5        10         9     9      180.000000       18.766140         2
         6         5        10         9     9        0.000000       -1.621197         3
         6         5        10         9     9      180.000000       -0.487309         4
         6         5        10        37     9        0.000000       -0.055040         1
         6         5        10        37     9      180.000000       14.417531         2
         6         5        10        37     9        0.000000       -0.625288         3
         6         5        10        37     9      180.000000        0.064387         4
         6         7         8         9     9        0.000000        0.002214         1
         6         7         8         9     9      180.000000       17.282279         2
         6         7         8         9     9        0.000000       -0.814436         3
         6         7         8         9     9      180.000000       -0.345060         4
         6         7         8        25     9        0.000000        0.311214         1
         6         7         8        25     9      180.000000       18.888934         2
         6         7         8        25     9        0.000000        0.279434         3
         6         7         8        25     9      180.000000       -0.274413         4
         7         6         5        10     9        0.000000       -0.093126         1
         7         6         5        10     9      180.000000       18.828223         2
         7         6         5        10     9        0.000000       -1.489035         3
         7         6         5        10     9      180.000000       -0.423210         4
         7         8         9        10     9        0.000000       -0.006452         1
         7         8         9        10     9      180.000000       14.903731         2
         7         8         9        10     9        0.000000       -0.773351         3
         7         8         9        10     9      180.000000       -0.244739         4
         7         8         9        11     9        0.000000        0.095453         1
         7         8         9        11     9      180.000000       12.180329         2
         7         8         9        11     9        0.000000       -0.202406         3
         7         8         9        11     9      180.000000       -0.086784         4
         7         8        25        17     9        0.000000       -0.663772         1
         7         8        25        17     9      180.000000        2.766190         2
         7         8        25        17     9        0.000000       -0.095313         3
         7         8        25        17     9      180.000000        0.422620         4
         7         8        25        52     9        0.000000       -0.432814         1
         7         8        25        52     9      180.000000        4.115105         2
         7         8        25        52     9        0.000000       -0.041865         3
         7         8        25        52     9      180.000000        0.279660         4
         8         7         6        35     9        0.000000        0.109939         1
         8         7         6        35     9      180.000000       13.899801         2
         8         7         6        35     9        0.000000       -0.667814         3
         8         7         6        35     9      180.000000        0.187733         4
         8         9        10        37     9        0.000000        0.161713         1
         8         9        10        37     9      180.000000       13.981557         2
         8         9        10        37     9        0.000000       -0.251784         3
         8         9        10        37     9      180.000000        0.187181         4
         8         9        11        12     9        0.000000       -3.474185         1
         8         9        11        12     9      180.000000       -1.539894         2
         8         9        11        12     9        0.000000        0.645078         3
         8         9        11        12     9      180.000000       -0.093480         4
         8         9        11        16     9        0.000000        4.088928         1
         8         9        11        16     9      180.000000       -4.011127         2
         8         9        11        16     9        0.000000       -0.197836         3
         8         9        11        16     9      180.000000        0.841800         4
         8         9        11        38     9        0.000000        0.127554         1
         8         9        11        38     9      180.000000        0.322314         2
         8         9        11        38     9        0.000000        0.157800         3
         8         9        11        38     9      180.000000        0.001625         4
         8        25        17        16     9        0.000000        5.999209         1
         8        25        17        16     9      180.000000       -3.152434         2
         8        25        17        16     9        0.000000       -0.086241         3
         8        25        17        16     9      180.000000        0.733362         4
         8        25        17        18     9        0.000000        0.881768         1
         8        25        17        18     9      180.000000       -0.536169         2
         8        25        17        18     9        0.000000        0.765836         3
         8        25        17        18     9      180.000000        0.096262         4
         8        25        17        46     9        0.000000       -0.112047         1
         8        25        17        46     9      180.000000       -0.155155         2
         8        25        17        46     9        0.000000        0.621816         3
         8        25        17        46     9      180.000000       -0.029642         4
         9         8         7        36     9        0.000000        0.015863         1
         9         8         7        36     9      180.000000       12.765982         2
         9         8         7        36     9        0.000000       -0.231500         3
         9         8         7        36     9      180.000000        0.015488         4
         9         8        25        17     9        0.000000        3.358202         1
         9         8        25        17     9      180.000000        0.503561         2
         9         8        25        17     9        0.000000       -0.190607         3
         9         8        25        17     9      180.000000        1.010682         4
         9         8        25        52     9        0.000000        6.748374         1
         9         8        25        52     9      180.000000        3.723048         2
         9         8        25        52     9        0.000000       -0.647499         3
         9         8        25        52     9      180.000000        0.444599         4
         9        11        12        13     9        0.000000       -0.078955         1
         9        11        12        13     9      180.000000       -0.773544         2
         9        11        12        13     9        0.000000        0.805396         3
         9        11        12        13     9      180.000000        0.072715         4
         9        11        16        15     9        0.000000        0.697917         1
         9        11        16        15     9      180.000000       -1.665062         2
         9        11        16        15     9        0.000000        0.346908         3
         9        11        16        15     9      180.000000        0.028014         4
         9        11        16        17     9        0.000000        2.033228         1
         9        11        16        17     9      180.000000       -2.850184         2
         9        11        16        17     9        0.000000        0.068609         3
         9        11        16        17     9      180.000000        0.170492         4
         9        11        16        45     9        0.000000       -0.107843         1
         9        11        16        45     9      180.000000        0.030855         2
         9        11        16        45     9        0.000000        0.092468         3
         9        11        16        45     9      180.000000        0.215405         4
        10         5         6        35     9        0.000000       -0.000999         1
        10         5         6        35     9      180.000000       14.590484         2
        10         5         6        35     9        0.000000       -0.653741         3
        10         5         6        35     9      180.000000        0.015674         4
        10         9         8        25     9        0.000000        0.145666         1
        10         9         8        25     9      180.000000       17.292555         2
        10         9         8        25     9        0.000000        0.125965         3
        10         9         8        25     9      180.000000       -0.551365         4
        10         9        11        12     9        0.000000       -0.237390         1
        10         9        11        12     9      180.000000        0.298520         2
        10         9        11        12     9        0.000000       -0.795898         3
        10         9        11        12     9      180.000000        0.152098         4
        10         9        11        16     9        0.000000       -0.957675         1
        10         9        11        16     9      180.000000       -1.028028         2
        10         9        11        16     9        0.000000       -0.585690         3
        10         9        11        16     9      180.000000        0.266293         4
        10         9        11        38     9        0.000000        0.214246         1
        10         9        11        38     9      180.000000       -0.024224         2
        10         9        11        38     9        0.000000       -0.681040         3
        10         9        11        38     9      180.000000       -0.043991         4
        11         9         8        25     9        0.000000       -0.041169         1
        11         9         8        25     9      180.000000       16.023257         2
        11         9         8        25     9        0.000000        0.487061         3
        11         9         8        25     9      180.000000       -0.528903         4
        11         9        10        37     9        0.000000        0.014040         1
        11         9        10        37     9      180.000000       12.649502         2
        11         9        10        37     9        0.000000       -0.295641         3
        11         9        10        37     9      180.000000        0.192238         4
        11        12        13        14     9        0.000000        2.342349         1
        11        12        13        14     9      180.000000       -2.030184         2
        11        12        13        14     9        0.000000        0.309095         3
        11        12        13        14     9      180.000000        0.219840         4
        11        12        13        39     9        0.000000       -0.050130         1
        11        12        13        39     9      180.000000        0.095789         2
        11        12        13        39     9        0.000000        0.342725         3
        11        12        13        39     9      180.000000        0.009062         4
        11        12        13        40     9        0.000000       -0.050130         1
        11        12        13        40     9      180.000000        0.095789         2
        11        12        13        40     9        0.000000        0.342725         3
        11        12        13        40     9      180.000000        0.009062         4
        11        16        15        14     9        0.000000        1.257284         1
        11        16        15        14     9      180.000000       -1.224480         2
        11        16        15        14     9        0.000000        0.110615         3
        11        16        15        14     9      180.000000        0.034641         4
        11        16        15        43     9        0.000000       -0.085116         1
        11        16        15        43     9      180.000000        0.077526         2
        11        16        15        43     9        0.000000        0.204936         3
        11        16        15        43     9      180.000000        0.020587         4
        11        16        15        44     9        0.000000       -0.085116         1
        11        16        15        44     9      180.000000        0.077526         2
        11        16        15        44     9        0.000000        0.204936         3
        11        16        15        44     9      180.000000        0.020587         4
        11        16        17        18     9        0.000000       -0.376918         1
        11        16        17        18     9      180.000000       -0.225885         2
        11        16        17        18     9        0.000000        0.364378         3
        11        16        17        18     9      180.000000        0.090509         4
        11        16        17        25     9        0.000000       -0.503153         1
        11        16        17        25     9      180.000000       -1.657998         2
        11        16        17        25     9        0.000000       -0.227201         3
        11        16        17        25     9      180.000000        0.176879         4
        11        16        17        46     9        0.000000       -0.049843         1
        11        16        17        46     9      180.000000       -0.031416         2
        11        16        17        46     9        0.000000        0.090218         3
        11        16        17        46     9      180.000000        0.151139         4
        12        11        16        15     9        0.000000        0.907159         1
        12        11        16        15     9      180.000000       -2.406662         2
        12        11        16        15     9        0.000000        0.294737         3
        12        11        16        15     9      180.000000        0.164536         4
        12        11        16        17     9        0.000000        1.013047         1
        12        11        16        17     9      180.000000       -4.184724         2
        12        11        16        17     9        0.000000        0.099113         3
        12        11        16        17     9      180.000000        0.368040         4
        12        11        16        45     9        0.000000       -0.534800         1
        12        11        16        45     9      180.000000        0.134636         2
        12        11        16        45     9        0.000000        0.046242         3
        12        11        16        45     9      180.000000        0.186899         4
        12        13        14        15     9        0.000000       -0.305792         1
        12        13        14        15     9      180.000000       -0.588740         2
        12        13        14        15     9        0.000000        0.317413         3
        12        13        14        15     9      180.000000        0.009756         4
        12        13        14        41     9        0.000000       -0.053885         1
        12        13        14        41     9      180.000000        0.015264         2
        12        13        14        41     9        0.000000        0.210759         3
        12        13        14        41     9      180.000000        0.034689         4
        12        13        14        42     9        0.000000       -0.053885         1
        12        13        14        42     9      180.000000        0.015264         2
        12        13        14        42     9        0.000000        0.210759         3
        12        13        14        42     9      180.000000        0.034689         4
        13        12        11        16     9        0.000000        5.876847         1
        13        12        11        16     9      180.000000       -3.249924         2
        13        12        11        16     9        0.000000        0.156603         3
        13        12        11        16     9      180.000000        0.181953         4
        13        12        11        38     9        0.000000       -0.309577         1
        13        12        11        38     9      180.000000        0.205164         2
        13        12        11        38     9        0.000000        0.660790         3
        13        12        11        38     9      180.000000        0.012320         4
        13        14        15        16     9        0.000000        0.507916         1
        13        14        15        16     9      180.000000       -1.208090         2
        13        14        15        16     9        0.000000        0.130090         3
        13        14        15        16     9      180.000000        0.073228         4
        13        14        15        43     9        0.000000        0.000102         1
        13        14        15        43     9      180.000000        0.023990         2
        13        14        15        43     9        0.000000        0.203618         3
        13        14        15        43     9      180.000000        0.001388         4
        13        14        15        44     9        0.000000        0.000102         1
        13        14        15        44     9      180.000000        0.023990         2
        13        14        15        44     9        0.000000        0.203618         3
        13        14        15        44     9      180.000000        0.001388         4
        14        15        16        17     9        0.000000        0.395446         1
        14        15        16        17     9      180.000000       -0.551868         2
        14        15        16        17     9        0.000000        0.392249         3
        14        15        16        17     9      180.000000       -0.016185         4
        14        15        16        45     9        0.000000       -1.031950         1
        14        15        16        45     9      180.000000       -0.011603         2
        14        15        16        45     9        0.000000        0.217445         3
        14        15        16        45     9      180.000000        0.148437         4
        15        14        13        39     9        0.000000       -0.029572         1
        15        14        13        39     9      180.000000        0.011586         2
        15        14        13        39     9        0.000000        0.305781         3
        15        14        13        39     9      180.000000        0.022366         4
        15        14        13        40     9        0.000000       -0.029572         1
        15        14        13        40     9      180.000000        0.011585         2
        15        14        13        40     9        0.000000        0.305781         3
        15        14        13        40     9      180.000000        0.022367         4
        15        16        11        38     9        0.000000       -0.169591         1
        15        16        11        38     9      180.000000        0.243035         2
        15        16        11        38     9        0.000000        0.281612         3
        15        16        11        38     9      180.000000        0.071303         4
        15        16        17        18     9        0.000000        1.390292         1
        15        16        17        18     9      180.000000       -0.613692         2
        15        16        17        18     9        0.000000        0.927594         3
        15        16        17        18     9      180.000000        0.135838         4
        15        16        17        25     9        0.000000       -1.866019         1
        15        16        17        25     9      180.000000        0.385648         2
        15        16        17        25     9        0.000000        0.375824         3
        15        16        17        25     9      180.000000       -0.085813         4
        15        16        17        46     9        0.000000       -0.277117         1
        15        16        17        46     9      180.000000        0.172515         2
        15        16        17        46     9        0.000000        0.525563         3
        15        16        17        46     9      180.000000       -0.009842         4
        16        15        14        41     9        0.000000       -0.038497         1
        16        15        14        41     9      180.000000       -0.006856         2
        16        15        14        41     9        0.000000        0.153147         3
        16        15        14        41     9      180.000000       -0.007532         4
        16        15        14        42     9        0.000000       -0.038497         1
        16        15        14        42     9      180.000000       -0.006856         2
        16        15        14        42     9        0.000000        0.153147         3
        16        15        14        42     9      180.000000       -0.007532         4
        16        17        18        19     9        0.000000       -0.235059         1
        16        17        18        19     9      180.000000       -0.262503         2
        16        17        18        19     9        0.000000        0.123086         3
        16        17        18        19     9      180.000000       -0.003748         4
        16        17        18        24     9        0.000000       -0.235059         1
        16        17        18        24     9      180.000000       -0.262503         2
        16        17        18        24     9        0.000000        0.123086         3
        16        17        18        24     9      180.000000       -0.003748         4
        16        17        25        52     9        0.000000        3.511266         1
        16        17        25        52     9      180.000000       -3.172566         2
        16        17        25        52     9        0.000000        0.142631         3
        16        17        25        52     9      180.000000        0.388193         4
        17        16        11        38     9        0.000000       -0.482058         1
        17        16        11        38     9      180.000000        0.191394         2
        17        16        11        38     9        0.000000        0.047579         3
        17        16        11        38     9      180.000000        0.139064         4
        17        16        15        43     9        0.000000       -0.008818         1
        17        16        15        43     9      180.000000        0.034190         2
        17        16        15        43     9        0.000000        0.321909         3
        17        16        15        43     9      180.000000        0.000590         4
        17        16        15        44     9        0.000000       -0.008818         1
        17        16        15        44     9      180.000000        0.034190         2
        17        16        15        44     9        0.000000        0.321909         3
        17        16        15        44     9      180.000000        0.000590         4
        17        18        19        20     9        0.000000        0.067586         1
        17        18        19        20     9      180.000000       14.708794         2
        17        18        19        20     9        0.000000       -0.220102         3
        17        18        19        20     9      180.000000       -0.104022         4
        17        18        19        47     9        0.000000       -0.005329         1
        17        18        19        47     9      180.000000       12.643154         2
        17        18        19        47     9        0.000000       -0.414598         3
        17        18        19        47     9      180.000000        0.192414         4
        17        18        24        23     9        0.000000        0.067586         1
        17        18        24        23     9      180.000000       14.708794         2
        17        18        24        23     9        0.000000       -0.220102         3
        17        18        24        23     9      180.000000       -0.104022         4
        17        18        24        51     9        0.000000       -0.005329         1
        17        18        24        51     9      180.000000       12.643154         2
        17        18        24        51     9        0.000000       -0.414598         3
        17        18        24        51     9      180.000000        0.192414         4
        18        17        16        45     9        0.000000        0.055031         1
        18        17        16        45     9      180.000000       -0.036587         2
        18        17        16        45     9        0.000000        0.457766         3
        18        17        16        45     9      180.000000       -0.074420         4
        18        17        25        52     9        0.000000        3.017068         1
        18        17        25        52     9      180.000000       -0.815605         2
        18        17        25        52     9        0.000000        0.110223         3
        18        17        25        52     9      180.000000       -0.149251         4
        18        19        20        21     9        0.000000        0.008175         1
        18        19        20        21     9      180.000000       18.550258         2
        18        19        20        21     9        0.000000       -1.504660         3
        18        19        20        21     9      180.000000       -0.467726         4
        18        19        20        48     9        0.000000        0.061178         1
        18        19        20        48     9      180.000000       14.474803         2
        18        19        20        48     9        0.000000       -0.500604         3
        18        19        20        48     9      180.000000        0.120801         4
        18        24        23        21     9        0.000000        0.008175         1
        18        24        23        21     9      180.000000       18.550258         2
        18        24        23        21     9        0.000000       -1.504660         3
        18        24        23        21     9      180.000000       -0.467726         4
        18        24        23        50     9        0.000000        0.061178         1
        18        24        23        50     9      180.000000       14.474803         2
        18        24        23        50     9        0.000000       -0.500604         3
        18        24        23        50     9      180.000000        0.120801         4
        19        18        17        25     9        0.000000        0.015944         1
        19        18        17        25     9      180.000000        0.672634         2
        19        18        17        25     9        0.000000        0.017876         3
        19        18        17        25     9      180.000000        0.244975         4
        19        18        17        46     9        0.000000        0.140147         1
        19        18        17        46     9      180.000000        0.619199         2
        19        18        17        46     9        0.000000        0.088669         3
        19        18        17        46     9      180.000000       -0.160114         4
        19        18        24        23     9        0.000000       -0.127017         1
        19        18        24        23     9      180.000000       19.217840         2
        19        18        24        23     9        0.000000       -1.574164         3
        19        18        24        23     9      180.000000       -0.494322         4
        19        18        24        51     9        0.000000       -0.032630         1
        19        18        24        51     9      180.000000       14.858566         2
        19        18        24        51     9        0.000000       -0.655950         3
        19        18        24        51     9      180.000000       -0.038666         4
        19        20        21        22     9        0.000000        0.500087         1
        19        20        21        22     9      180.000000       20.288846         2
        19        20        21        22     9        0.000000        0.430888         3
        19        20        21        22     9      180.000000       -0.543796         4
        19        20        21        23     9        0.000000        0.083956         1
        19        20        21        23     9      180.000000       16.949163         2
        19        20        21        23     9        0.000000       -1.016674         3
        19        20        21        23     9      180.000000       -0.318356         4
        20        19        18        24     9        0.000000       -0.127017         1
        20        19        18        24     9      180.000000       19.217840         2
        20        19        18        24     9        0.000000       -1.574164         3
        20        19        18        24     9      180.000000       -0.494322         4
        20        21        22        49     9        0.000000        0.110783         1
        20        21        22        49     9      180.000000        4.248106         2
        20        21        22        49     9        0.000000        0.247377         3
        20        21        22        49     9      180.000000       -0.006588         4
        20        21        23        24     9        0.000000        0.083956         1
        20        21        23        24     9      180.000000       16.949163         2
        20        21        23        24     9        0.000000       -1.016674         3
        20        21        23        24     9      180.000000       -0.318356         4
        20        21        23        50     9        0.000000        0.042123         1
        20        21        23        50     9      180.000000       12.648788         2
        20        21        23        50     9        0.000000       -0.414168         3
        20        21        23        50     9      180.000000        0.165827         4
        21        20        19        47     9        0.000000        0.120768         1
        21        20        19        47     9      180.000000       14.543202         2
        21        20        19        47     9        0.000000       -0.536906         3
        21        20        19        47     9      180.000000        0.081740         4
        21        23        24        51     9        0.000000        0.120768         1
        21        23        24        51     9      180.000000       14.543202         2
        21        23        24        51     9        0.000000       -0.536906         3
        21        23        24        51     9      180.000000        0.081740         4
        22        21        20        48     9        0.000000       -0.046298         1
        22        21        20        48     9      180.000000       14.875532         2
        22        21        20        48     9        0.000000        0.050564         3
        22        21        20        48     9      180.000000        0.116884         4
        22        21        23        24     9        0.000000        0.500087         1
        22        21        23        24     9      180.000000       20.288846         2
        22        21        23        24     9        0.000000        0.430888         3
        22        21        23        24     9      180.000000       -0.543796         4
        22        21        23        50     9        0.000000       -0.046298         1
        22        21        23        50     9      180.000000       14.875532         2
        22        21        23        50     9        0.000000        0.050564         3
        22        21        23        50     9      180.000000        0.116884         4
        23        21        20        48     9        0.000000        0.042123         1
        23        21        20        48     9      180.000000       12.648788         2
        23        21        20        48     9        0.000000       -0.414168         3
        23        21        20        48     9      180.000000        0.165827         4
        23        21        22        49     9        0.000000        0.110783         1
        23        21        22        49     9      180.000000        4.248106         2
        23        21        22        49     9        0.000000        0.247377         3
        23        21        22        49     9      180.000000       -0.006588         4
        24        18        17        25     9        0.000000        0.015944         1
        24        18        17        25     9      180.000000        0.672634         2
        24        18        17        25     9        0.000000        0.017876         3
        24        18        17        25     9      180.000000        0.244975         4
        24        18        17        46     9        0.000000        0.140147         1
        24        18        17        46     9      180.000000        0.619199         2
        24        18        17        46     9        0.000000        0.088669         3
        24        18        17        46     9      180.000000       -0.160114         4
        24        18        19        47     9        0.000000       -0.032630         1
        24        18        19        47     9      180.000000       14.858566         2
        24        18        19        47     9        0.000000       -0.655950         3
        24        18        19        47     9      180.000000       -0.038666         4
        25         8         7        36     9        0.000000       -0.251168         1
        25         8         7        36     9      180.000000       15.379822         2
        25         8         7        36     9        0.000000       -0.154475         3
        25         8         7        36     9      180.000000        0.061062         4
        25        17        16        45     9        0.000000        0.031559         1
        25        17        16        45     9      180.000000       -0.020166         2
        25        17        16        45     9        0.000000        0.109362         3
        25        17        16        45     9      180.000000        0.240143         4
        35         6         7        36     9        0.000000       -0.108113         1
        35         6         7        36     9      180.000000       12.008828         2
        35         6         7        36     9        0.000000       -0.736421         3
        35         6         7        36     9      180.000000        0.369129         4
        38        11        16        45     9        0.000000        0.132091         1
        38        11        16        45     9      180.000000        0.094594         2
        38        11        16        45     9        0.000000        0.246920         3
        38        11        16        45     9      180.000000       -0.118212         4
        39        13        14        41     9        0.000000       -0.009178         1
        39        13        14        41     9      180.000000        0.003074         2
        39        13        14        41     9        0.000000        0.306791         3
        39        13        14        41     9      180.000000       -0.016783         4
        39        13        14        42     9        0.000000       -0.009178         1
        39        13        14        42     9      180.000000        0.003074         2
        39        13        14        42     9        0.000000        0.306791         3
        39        13        14        42     9      180.000000       -0.016783         4
        40        13        14        41     9        0.000000       -0.009177         1
        40        13        14        41     9      180.000000        0.003073         2
        40        13        14        41     9        0.000000        0.306791         3
        40        13        14        41     9      180.000000       -0.016784         4
        40        13        14        42     9        0.000000       -0.009177         1
        40        13        14        42     9      180.000000        0.003073         2
        40        13        14        42     9        0.000000        0.306791         3
        40        13        14        42     9      180.000000       -0.016784         4
        41        14        15        43     9        0.000000        0.025058         1
        41        14        15        43     9      180.000000       -0.027755         2
        41        14        15        43     9        0.000000        0.264036         3
        41        14        15        43     9      180.000000        0.007692         4
        41        14        15        44     9        0.000000        0.025058         1
        41        14        15        44     9      180.000000       -0.027755         2
        41        14        15        44     9        0.000000        0.264036         3
        41        14        15        44     9      180.000000        0.007692         4
        42        14        15        43     9        0.000000        0.025058         1
        42        14        15        43     9      180.000000       -0.027755         2
        42        14        15        43     9        0.000000        0.264036         3
        42        14        15        43     9      180.000000        0.007692         4
        42        14        15        44     9        0.000000        0.025058         1
        42        14        15        44     9      180.000000       -0.027755         2
        42        14        15        44     9        0.000000        0.264036         3
        42        14        15        44     9      180.000000        0.007692         4
        43        15        16        45     9        0.000000        0.338045         1
        43        15        16        45     9      180.000000        0.087981         2
        43        15        16        45     9        0.000000        0.382743         3
        43        15        16        45     9      180.000000       -0.048736         4
        44        15        16        45     9        0.000000        0.338045         1
        44        15        16        45     9      180.000000        0.087981         2
        44        15        16        45     9        0.000000        0.382743         3
        44        15        16        45     9      180.000000       -0.048736         4
        45        16        17        46     9        0.000000        0.619192         1
        45        16        17        46     9      180.000000        0.112960         2
        45        16        17        46     9        0.000000        0.465795         3
        45        16        17        46     9      180.000000       -0.276482         4
        46        17        25        52     9        0.000000       -0.890253         1
        46        17        25        52     9      180.000000       -0.260122         2
        46        17        25        52     9        0.000000        0.459100         3
        46        17        25        52     9      180.000000       -0.171435         4
        47        19        20        48     9        0.000000       -0.151741         1
        47        19        20        48     9      180.000000       12.005779         2
        47        19        20        48     9        0.000000       -0.670355         3
        47        19        20        48     9      180.000000        0.318275         4
        50        23        24        51     9        0.000000       -0.151741         1
        50        23        24        51     9      180.000000       12.005779         2
        50        23        24        51     9        0.000000       -0.670355         3
        50        23        24        51     9      180.000000        0.318275         4

[ dihedrals ] ; impropers
;       ai        aj        ak        al funct           phase               k        pn
        21        20        22        23     4      180.000000        0.448537         2
        21        22        23        20     4      180.000000        0.448537         2
        21        23        20        22     4      180.000000        0.448537         2

[ pairs ]
;       ai        aj funct
         1         6     1
         1        10     1
         1        29     1
         1        30     1
         1        31     1
         1        32     1
         1        33     1
         1        34     1
         2         7     1
         2         9     1
         2        35     1
         2        37     1
         3         6     1
         3        10     1
         3        26     1
         3        27     1
         3        28     1
         3        32     1
         3        33     1
         3        34     1
         4         6     1
         4        10     1
         4        26     1
         4        27     1
         4        28     1
         4        29     1
         4        30     1
         4        31     1
         5         8     1
         5        11     1
         5        26     1
         5        27     1
         5        28     1
         5        29     1
         5        30     1
         5        31     1
         5        32     1
         5        33     1
         5        34     1
         5        36     1
         6         9     1
         6        25     1
         6        37     1
         7        10     1
         7        11     1
         7        17     1
         7        52     1
         8        12     1
         8        16     1
         8        18     1
         8        35     1
         8        37     1
         8        38     1
         8        46     1
         9        13     1
         9        15     1
         9        17     1
         9        36     1
         9        45     1
         9        52     1
        10        12     1
        10        16     1
        10        25     1
        10        35     1
        10        38     1
        11        14     1
        11        18     1
        11        25     1
        11        37     1
        11        39     1
        11        40     1
        11        43     1
        11        44     1
        11        46     1
        12        15     1
        12        17     1
        12        41     1
        12        42     1
        12        45     1
        13        16     1
        13        38     1
        13        43     1
        13        44     1
        14        17     1
        14        45     1
        15        18     1
        15        25     1
        15        38     1
        15        39     1
        15        40     1
        15        46     1
        16        19     1
        16        24     1
        16        41     1
        16        42     1
        16        52     1
        17        20     1
        17        23     1
        17        38     1
        17        43     1
        17        44     1
        17        47     1
        17        51     1
        18        21     1
        18        45     1
        18        48     1
        18        50     1
        18        52     1
        19        22     1
        19        23     1
        19        25     1
        19        46     1
        19        51     1
        20        24     1
        20        49     1
        20        50     1
        21        47     1
        21        51     1
        22        24     1
        22        48     1
        22        50     1
        23        48     1
        23        49     1
        24        25     1
        24        46     1
        24        47     1
        25        36     1
        25        45     1
        35        36     1
        38        45     1
        39        41     1
        39        42     1
        40        41     1
        40        42     1
        41        43     1
        41        44     1
        42        43     1
        42        44     1
        43        45     1
        44        45     1
        45        46     1
        46        52     1
        47        48     1
        50        51     1
