; ITP file created by ByteFF-ML, 2026-02-21 07:38:34.848626

[ atomtypes ]
;name           bonded.type        at.num        mass        charge   ptype           sigma         epsilon
 c0bf                                   6      0.0000       0.00000       A     3.39685e-01     4.50679e-01
 n1bf                                   7      0.0000       0.00000       A     2.58828e-01     1.06565e+01
 c2bf                                   6      0.0000       0.00000       A     3.39685e-01     4.50679e-01
 c3bf                                   6      0.0000       0.00000       A     3.39481e-01     4.57183e-01
 c4bf                                   6      0.0000       0.00000       A     3.39385e-01     4.48859e-01
 c5bf                                   6      0.0000       0.00000       A     3.39728e-01     4.52324e-01
 c6bf                                   6      0.0000       0.00000       A     3.31743e-01     4.13867e-01
 o7bf                                   8      0.0000       0.00000       A     3.04813e-01     6.12634e-01
 n8bf                                   7      0.0000       0.00000       A     3.27118e-01     4.96472e-01
 c9bf                                   6      0.0000       0.00000       A     3.39916e-01     4.48965e-01
 c10bf                                  6      0.0000       0.00000       A     3.39809e-01     4.51415e-01
 c11bf                                  6      0.0000       0.00000       A     3.39840e-01     4.50605e-01
 c12bf                                  6      0.0000       0.00000       A     3.39938e-01     4.52179e-01
 c13bf                                  6      0.0000       0.00000       A     3.40218e-01     4.51818e-01
 c14bf                                  6      0.0000       0.00000       A     3.39362e-01     4.50304e-01
 c15bf                                  6      0.0000       0.00000       A     3.31416e-01     4.11566e-01
 c16bf                                  6      0.0000       0.00000       A     3.31559e-01     4.13032e-01
 c17bf                                  6      0.0000       0.00000       A     3.31517e-01     4.13352e-01
 c18bf                                  6      0.0000       0.00000       A     3.31506e-01     4.12857e-01
 c19bf                                  6      0.0000       0.00000       A     3.31517e-01     4.13352e-01
 c20bf                                  6      0.0000       0.00000       A     3.31559e-01     4.13032e-01
 n21bf                                  7      0.0000       0.00000       A     3.28297e-01     6.42817e-01
 c22bf                                  6      0.0000       0.00000       A     3.31314e-01     4.12539e-01
 c23bf                                  6      0.0000       0.00000       A     3.31682e-01     4.13783e-01
 f24bf                                  9      0.0000       0.00000       A     3.03470e-01     3.47222e-01
 c25bf                                  6      0.0000       0.00000       A     3.31490e-01     4.12643e-01
 c26bf                                  6      0.0000       0.00000       A     3.31567e-01     4.13471e-01
 br27bf                                35      0.0000       0.00000       A     3.61255e-01     1.64448e+00
 c28bf                                  6      0.0000       0.00000       A     3.31438e-01     4.12156e-01
 c29bf                                  6      0.0000       0.00000       A     3.31317e-01     4.10926e-01
 c30bf                                  6      0.0000       0.00000       A     3.39811e-01     4.51914e-01
 o31bf                                  8      0.0000       0.00000       A     3.15742e-01     3.04824e-01
 h32bf                                  1      0.0000       0.00000       A     1.88202e-01     8.71518e-02
 h33bf                                  1      0.0000       0.00000       A     1.88202e-01     8.71518e-02
 h34bf                                  1      0.0000       0.00000       A     1.88202e-01     8.71518e-02
 h35bf                                  1      0.0000       0.00000       A     1.88202e-01     8.71518e-02
 h36bf                                  1      0.0000       0.00000       A     1.88202e-01     8.71518e-02
 h37bf                                  1      0.0000       0.00000       A     1.88202e-01     8.71518e-02
 h38bf                                  1      0.0000       0.00000       A     1.87881e-01     8.63458e-02
 h39bf                                  1      0.0000       0.00000       A     1.87881e-01     8.63458e-02
 h40bf                                  1      0.0000       0.00000       A     2.60126e-01     8.83839e-02
 h41bf                                  1      0.0000       0.00000       A     2.60126e-01     8.83839e-02
 h42bf                                  1      0.0000       0.00000       A     2.60277e-01     8.80376e-02
 h43bf                                  1      0.0000       0.00000       A     2.60277e-01     8.80376e-02
 h44bf                                  1      0.0000       0.00000       A     1.10616e-01     4.10940e-02
 h45bf                                  1      0.0000       0.00000       A     2.41861e-01     8.77647e-02
 h46bf                                  1      0.0000       0.00000       A     2.41861e-01     8.77647e-02
 h47bf                                  1      0.0000       0.00000       A     2.42565e-01     8.73098e-02
 h48bf                                  1      0.0000       0.00000       A     2.59821e-01     8.71677e-02
 h49bf                                  1      0.0000       0.00000       A     2.59821e-01     8.71677e-02
 h50bf                                  1      0.0000       0.00000       A     2.60017e-01     8.63234e-02
 h51bf                                  1      0.0000       0.00000       A     2.60017e-01     8.63234e-02
 h52bf                                  1      0.0000       0.00000       A     2.59608e-01     8.66043e-02
 h53bf                                  1      0.0000       0.00000       A     2.42675e-01     8.80520e-02
 h54bf                                  1      0.0000       0.00000       A     2.62512e-01     6.76287e-02
 h55bf                                  1      0.0000       0.00000       A     2.62458e-01     6.72647e-02
 h56bf                                  1      0.0000       0.00000       A     2.62457e-01     6.73477e-02
 h57bf                                  1      0.0000       0.00000       A     2.62458e-01     6.72647e-02
 h58bf                                  1      0.0000       0.00000       A     2.62512e-01     6.76287e-02
 h59bf                                  1      0.0000       0.00000       A     1.10859e-01     4.14068e-02
 h60bf                                  1      0.0000       0.00000       A     2.62498e-01     6.73573e-02
 h61bf                                  1      0.0000       0.00000       A     2.62450e-01     6.70493e-02
 h62bf                                  1      0.0000       0.00000       A     2.42774e-01     8.84398e-02
 h63bf                                  1      0.0000       0.00000       A     1.10658e-01     4.28273e-02

[ moleculetype ]
;name             nrexcl
 CHEMBL1085692         3

[ atoms ]
;       nr            type      resi   res      atom      cgnr      charge          mass ; qtot
         1            c0bf         1   UNL        c0         1     0.08844       12.0110 ; qtot    0.088
         2            n1bf         1   UNL        n1         2    -0.68416       14.0070 ; qtot   -0.596
         3            c2bf         1   UNL        c2         3     0.08844       12.0110 ; qtot   -0.507
         4            c3bf         1   UNL        c3         4     0.10854       12.0110 ; qtot   -0.399
         5            c4bf         1   UNL        c4         5    -0.09588       12.0110 ; qtot   -0.495
         6            c5bf         1   UNL        c5         6    -0.17648       12.0110 ; qtot   -0.671
         7            c6bf         1   UNL        c6         7     0.60218       12.0110 ; qtot   -0.069
         8            o7bf         1   UNL        o7         8    -0.61430       15.9990 ; qtot   -0.683
         9            n8bf         1   UNL        n8         9    -0.50282       14.0070 ; qtot   -1.186
        10            c9bf         1   UNL        c9        10     0.09352       12.0110 ; qtot   -1.093
        11           c10bf         1   UNL       c10        11     0.14333       12.0110 ; qtot   -0.949
        12           c11bf         1   UNL       c11        12    -0.10094       12.0110 ; qtot   -1.050
        13           c12bf         1   UNL       c12        13    -0.06653       12.0110 ; qtot   -1.117
        14           c13bf         1   UNL       c13        14    -0.09753       12.0110 ; qtot   -1.214
        15           c14bf         1   UNL       c14        15     0.26317       12.0110 ; qtot   -0.951
        16           c15bf         1   UNL       c15        16    -0.10797       12.0110 ; qtot   -1.059
        17           c16bf         1   UNL       c16        17    -0.09640       12.0110 ; qtot   -1.155
        18           c17bf         1   UNL       c17        18    -0.11334       12.0110 ; qtot   -1.269
        19           c18bf         1   UNL       c18        19    -0.10684       12.0110 ; qtot   -1.376
        20           c19bf         1   UNL       c19        20    -0.11334       12.0110 ; qtot   -1.489
        21           c20bf         1   UNL       c20        21    -0.09640       12.0110 ; qtot   -1.585
        22           n21bf         1   UNL       n21        22    -0.91914       14.0070 ; qtot   -2.504
        23           c22bf         1   UNL       c22        23     0.28508       12.0110 ; qtot   -2.219
        24           c23bf         1   UNL       c23        24     0.09693       12.0110 ; qtot   -2.122
        25           f24bf         1   UNL       f24        25    -0.18119       18.9980 ; qtot   -2.304
        26           c25bf         1   UNL       c25        26    -0.06639       12.0110 ; qtot   -2.370
        27           c26bf         1   UNL       c26        27    -0.03967       12.0110 ; qtot   -2.410
        28          br27bf         1   UNL      br27        28    -0.08814       79.9040 ; qtot   -2.498
        29           c28bf         1   UNL       c28        29    -0.02729       12.0110 ; qtot   -2.525
        30           c29bf         1   UNL       c29        30    -0.14722       12.0110 ; qtot   -2.672
        31           c30bf         1   UNL       c30        31     0.22730       12.0110 ; qtot   -2.445
        32           o31bf         1   UNL       o31        32    -0.45621       15.9990 ; qtot   -2.901
        33           h32bf         1   UNL       h32        33     0.10239        1.0080 ; qtot   -2.799
        34           h33bf         1   UNL       h33        34     0.10239        1.0080 ; qtot   -2.696
        35           h34bf         1   UNL       h34        35     0.10239        1.0080 ; qtot   -2.594
        36           h35bf         1   UNL       h35        36     0.10239        1.0080 ; qtot   -2.492
        37           h36bf         1   UNL       h36        37     0.10239        1.0080 ; qtot   -2.389
        38           h37bf         1   UNL       h37        38     0.10239        1.0080 ; qtot   -2.287
        39           h38bf         1   UNL       h38        39     0.10135        1.0080 ; qtot   -2.186
        40           h39bf         1   UNL       h39        40     0.10135        1.0080 ; qtot   -2.084
        41           h40bf         1   UNL       h40        41     0.08581        1.0080 ; qtot   -1.998
        42           h41bf         1   UNL       h41        42     0.08581        1.0080 ; qtot   -1.913
        43           h42bf         1   UNL       h42        43     0.08273        1.0080 ; qtot   -1.830
        44           h43bf         1   UNL       h43        44     0.08273        1.0080 ; qtot   -1.747
        45           h44bf         1   UNL       h44        45     0.32279        1.0080 ; qtot   -1.424
        46           h45bf         1   UNL       h45        46     0.06794        1.0080 ; qtot   -1.356
        47           h46bf         1   UNL       h46        47     0.06794        1.0080 ; qtot   -1.288
        48           h47bf         1   UNL       h47        48     0.06045        1.0080 ; qtot   -1.228
        49           h48bf         1   UNL       h48        49     0.05251        1.0080 ; qtot   -1.175
        50           h49bf         1   UNL       h49        50     0.05251        1.0080 ; qtot   -1.123
        51           h50bf         1   UNL       h50        51     0.04867        1.0080 ; qtot   -1.074
        52           h51bf         1   UNL       h51        52     0.04867        1.0080 ; qtot   -1.026
        53           h52bf         1   UNL       h52        53     0.06779        1.0080 ; qtot   -0.958
        54           h53bf         1   UNL       h53        54     0.05724        1.0080 ; qtot   -0.901
        55           h54bf         1   UNL       h54        55     0.11749        1.0080 ; qtot   -0.783
        56           h55bf         1   UNL       h55        56     0.11433        1.0080 ; qtot   -0.669
        57           h56bf         1   UNL       h56        57     0.11376        1.0080 ; qtot   -0.555
        58           h57bf         1   UNL       h57        58     0.11433        1.0080 ; qtot   -0.441
        59           h58bf         1   UNL       h58        59     0.11749        1.0080 ; qtot   -0.323
        60           h59bf         1   UNL       h59        60     0.47232        1.0080 ; qtot    0.149
        61           h60bf         1   UNL       h60        61     0.14955        1.0080 ; qtot    0.299
        62           h61bf         1   UNL       h61        62     0.13932        1.0080 ; qtot    0.438
        63           h62bf         1   UNL       h62        63     0.05866        1.0080 ; qtot    0.497
        64           h63bf         1   UNL       h63        64     0.50337        1.0080 ; qtot    1.000

[ bonds ]
;       ai        aj funct               r               k
         1         2     1        0.150643   157849.444189
         1        33     1        0.108877   319001.423975
         1        34     1        0.108877   319001.423975
         1        35     1        0.108877   319001.423975
         2         3     1        0.150643   157849.444189
         2         4     1        0.152381   128453.703125
         2        64     1        0.102542   384901.696777
         3        36     1        0.108877   319001.423975
         3        37     1        0.108877   319001.423975
         3        38     1        0.108877   319001.423975
         4         5     1        0.152887   187022.680420
         4        39     1        0.109101   310622.723926
         4        40     1        0.109101   310622.723926
         5         6     1        0.154184   174686.634985
         5        41     1        0.109399   300399.733838
         5        42     1        0.109399   300399.733838
         6         7     1        0.152867   165631.303687
         6        43     1        0.109417   299912.358105
         6        44     1        0.109417   299912.358105
         7         8     1        0.123467   593170.664844
         7         9     1        0.136216   314940.538379
         9        10     1        0.145604   212057.538696
         9        45     1        0.101147   423035.342871
        10        11     1        0.153264   178174.582764
        10        46     1        0.109298   301280.023535
        10        47     1        0.109298   301280.023535
        11        12     1        0.153407   176287.339307
        11        32     1        0.143560   180053.271289
        11        48     1        0.109798   287746.223828
        12        13     1        0.153620   184015.890088
        12        49     1        0.109499   296516.203467
        12        50     1        0.109499   296516.203467
        13        14     1        0.153644   177808.291235
        13        51     1        0.109464   296701.219824
        13        52     1        0.109464   296701.219824
        14        15     1        0.154208   163102.248828
        14        31     1        0.153673   168377.858105
        14        53     1        0.109661   296507.444238
        15        16     1        0.151991   180812.068188
        15        22     1        0.146717   193240.366431
        15        54     1        0.109885   282868.406104
        16        17     1        0.140235   288447.651611
        16        21     1        0.140235   288447.651611
        17        18     1        0.139815   313021.067090
        17        55     1        0.108668   316228.298193
        18        19     1        0.139918   306554.075049
        18        56     1        0.108647   318864.647217
        19        20     1        0.139918   306554.075049
        19        57     1        0.108625   319984.423926
        20        21     1        0.139815   313021.067090
        20        58     1        0.108647   318864.647217
        21        59     1        0.108668   316228.298193
        22        23     1        0.139128   284249.478516
        22        60     1        0.101361   410557.247266
        23        24     1        0.140398   269232.432422
        23        30     1        0.141006   266914.020410
        24        25     1        0.136434   278589.331445
        24        26     1        0.138397   325358.095703
        26        27     1        0.139757   301771.357520
        26        61     1        0.108380   328183.802393
        27        28     1        0.191440   125833.965991
        27        29     1        0.139308   306767.412061
        29        30     1        0.139748   301577.122266
        29        62     1        0.108453   322949.665381
        30        31     1        0.151163   190746.195264
        31        32     1        0.143185   184066.096045
        31        63     1        0.109997   280297.764063

[ angles ]
;       ai        aj        ak funct           theta             cth
         1         2         3     1      111.402420      625.585888
         1         2         4     1      112.388161      606.934286
         1         2        64     1      107.174744      509.144650
         2         1        33     1      108.809326      544.162283
         2         1        34     1      108.809326      544.162283
         2         1        35     1      108.809326      544.162283
         2         3        36     1      108.809326      544.162283
         2         3        37     1      108.809326      544.162283
         2         3        38     1      108.809326      544.162283
         2         4         5     1      113.636086      671.668496
         2         4        39     1      105.972267      549.326717
         2         4        40     1      105.972267      549.326717
         3         2         4     1      112.388161      606.934222
         3         2        64     1      107.174744      509.144650
         4         2        64     1      106.330421      504.621294
         4         5         6     1      112.946312      583.958485
         4         5        41     1      109.483810      512.960085
         4         5        42     1      109.483810      512.960085
         5         4        39     1      111.289330      485.249193
         5         4        40     1      111.289330      485.249193
         5         6         7     1      111.135117      637.681412
         5         6        43     1      110.125084      495.493979
         5         6        44     1      110.125084      495.493979
         6         5        41     1      109.308594      487.161891
         6         5        42     1      109.308594      487.161891
         6         7         8     1      121.164696      480.983890
         6         7         9     1      115.861732      491.571384
         7         6        43     1      108.967545      527.137171
         7         6        44     1      108.967545      527.137171
         7         9        10     1      122.578941      534.809062
         7         9        45     1      118.854004      434.860199
         8         7         9     1      122.538063      632.188955
         9        10        11     1      112.298599      518.346309
         9        10        46     1      108.465317      524.734800
         9        10        47     1      108.465317      524.734800
        10         9        45     1      118.261185      417.867072
        10        11        12     1      113.394180      589.614635
        10        11        32     1      107.207703      611.471656
        10        11        48     1      108.194542      489.013523
        11        10        46     1      109.442833      478.187991
        11        10        47     1      109.442833      478.187991
        11        12        13     1      110.768326      657.304383
        11        12        49     1      109.172142      484.054791
        11        12        50     1      109.172142      484.054791
        11        32        31     1      113.829002      588.575019
        12        11        32     1      111.143082      560.284307
        12        11        48     1      109.275047      472.281673
        12        13        14     1      110.789017      628.541170
        12        13        51     1      109.847366      507.215353
        12        13        52     1      109.847366      507.215353
        13        12        49     1      110.407860      506.069216
        13        12        50     1      110.407860      506.069216
        13        14        15     1      113.411804      594.475688
        13        14        31     1      109.911514      600.626301
        13        14        53     1      108.811119      484.857103
        14        13        51     1      109.615433      494.102016
        14        13        52     1      109.615433      494.102016
        14        15        16     1      112.843285      538.257338
        14        15        22     1      108.766685      598.620105
        14        15        54     1      107.243668      478.689221
        14        31        30     1      112.006226      580.107425
        14        31        32     1      111.246765      581.459168
        14        31        63     1      108.424362      466.701048
        15        14        31     1      109.546631      678.285161
        15        14        53     1      107.093895      495.501704
        15        16        17     1      120.673706      479.725229
        15        16        21     1      120.673706      479.725229
        15        22        23     1      118.272751      525.595911
        15        22        60     1      114.178909      453.510972
        16        15        22     1      111.071960      594.254409
        16        15        54     1      107.675270      485.216729
        16        17        18     1      120.662560      709.918234
        16        17        55     1      119.614578      400.532036
        16        21        20     1      120.662560      709.918234
        16        21        59     1      119.614578      400.532036
        17        16        21     1      118.740906      679.590873
        17        18        19     1      120.153175      705.714506
        17        18        56     1      119.816544      429.696851
        18        17        55     1      119.686012      431.264766
        18        19        20     1      119.511429      689.005895
        18        19        57     1      120.255783      430.416551
        19        18        56     1      120.079079      431.521669
        19        20        21     1      120.153175      705.714506
        19        20        58     1      120.079079      431.521669
        20        19        57     1      120.255783      430.416551
        20        21        59     1      119.686012      431.264766
        21        20        58     1      119.816544      429.696851
        22        15        54     1      109.091698      442.116409
        22        23        24     1      120.468979      403.982418
        22        23        30     1      121.498253      577.648903
        23        22        60     1      114.261612      478.633007
        23        24        25     1      117.523033      420.936250
        23        24        26     1      123.632797      708.702923
        23        30        29     1      119.969955      772.690619
        23        30        31     1      119.181503      567.257662
        24        23        30     1      117.164291      634.869266
        24        26        27     1      117.811768      643.912914
        24        26        61     1      119.943581      422.076865
        25        24        26     1      118.833458      552.955221
        26        27        28     1      119.136879      328.575452
        26        27        29     1      120.930321      624.029529
        27        26        61     1      122.219482      411.326827
        27        29        30     1      120.218948      608.892663
        27        29        62     1      120.488724      410.546605
        28        27        29     1      119.680527      317.181177
        29        30        31     1      120.715530      484.644092
        30        29        62     1      119.532715      397.268265
        30        31        32     1      109.549706      618.314771
        30        31        63     1      108.474243      465.240996
        31        14        53     1      107.249863      505.289695
        32        11        48     1      107.423279      460.865500
        32        31        63     1      107.376564      473.841160
        33         1        34     1      110.238785      348.438759
        33         1        35     1      110.238785      348.438759
        34         1        35     1      110.238785      348.438759
        36         3        37     1      110.238785      348.438759
        36         3        38     1      110.238785      348.438759
        37         3        38     1      110.238785      348.438759
        39         4        40     1      108.303307      351.622566
        41         5        42     1      106.775085      362.526752
        43         6        44     1      106.781700      362.190460
        46        10        47     1      108.072144      348.517030
        49        12        50     1      107.051476      358.357723
        51        13        52     1      106.517052      361.462844

[ dihedrals ] ; propers for gromacs 4.5 or higher, use funct 9
;       ai        aj        ak        al funct           phase               k        pn
         1         2         3        36     9        0.000000       -0.015475         1
         1         2         3        36     9      180.000000        0.044787         2
         1         2         3        36     9        0.000000        0.667044         3
         1         2         3        36     9      180.000000       -0.002880         4
         1         2         3        37     9        0.000000       -0.015475         1
         1         2         3        37     9      180.000000        0.044787         2
         1         2         3        37     9        0.000000        0.667044         3
         1         2         3        37     9      180.000000       -0.002880         4
         1         2         3        38     9        0.000000       -0.015475         1
         1         2         3        38     9      180.000000        0.044787         2
         1         2         3        38     9        0.000000        0.667044         3
         1         2         3        38     9      180.000000       -0.002880         4
         1         2         4         5     9        0.000000        0.769307         1
         1         2         4         5     9      180.000000        0.226897         2
         1         2         4         5     9        0.000000        0.802782         3
         1         2         4         5     9      180.000000        0.044903         4
         1         2         4        39     9        0.000000       -0.201026         1
         1         2         4        39     9      180.000000       -0.006727         2
         1         2         4        39     9        0.000000        0.765645         3
         1         2         4        39     9      180.000000        0.005927         4
         1         2         4        40     9        0.000000       -0.201026         1
         1         2         4        40     9      180.000000       -0.006727         2
         1         2         4        40     9        0.000000        0.765645         3
         1         2         4        40     9      180.000000        0.005927         4
         2         4         5         6     9        0.000000        1.679396         1
         2         4         5         6     9      180.000000       -0.670945         2
         2         4         5         6     9        0.000000        0.586791         3
         2         4         5         6     9      180.000000       -0.068658         4
         2         4         5        41     9        0.000000       -0.310701         1
         2         4         5        41     9      180.000000       -0.002075         2
         2         4         5        41     9        0.000000        0.560056         3
         2         4         5        41     9      180.000000        0.027782         4
         2         4         5        42     9        0.000000       -0.310701         1
         2         4         5        42     9      180.000000       -0.002075         2
         2         4         5        42     9        0.000000        0.560056         3
         2         4         5        42     9      180.000000        0.027782         4
         3         2         1        33     9        0.000000       -0.015475         1
         3         2         1        33     9      180.000000        0.044787         2
         3         2         1        33     9        0.000000        0.667044         3
         3         2         1        33     9      180.000000       -0.002880         4
         3         2         1        34     9        0.000000       -0.015475         1
         3         2         1        34     9      180.000000        0.044787         2
         3         2         1        34     9        0.000000        0.667044         3
         3         2         1        34     9      180.000000       -0.002880         4
         3         2         1        35     9        0.000000       -0.015475         1
         3         2         1        35     9      180.000000        0.044787         2
         3         2         1        35     9        0.000000        0.667044         3
         3         2         1        35     9      180.000000       -0.002880         4
         3         2         4         5     9        0.000000        0.769307         1
         3         2         4         5     9      180.000000        0.226897         2
         3         2         4         5     9        0.000000        0.802782         3
         3         2         4         5     9      180.000000        0.044903         4
         3         2         4        39     9        0.000000       -0.201026         1
         3         2         4        39     9      180.000000       -0.006727         2
         3         2         4        39     9        0.000000        0.765645         3
         3         2         4        39     9      180.000000        0.005927         4
         3         2         4        40     9        0.000000       -0.201026         1
         3         2         4        40     9      180.000000       -0.006727         2
         3         2         4        40     9        0.000000        0.765645         3
         3         2         4        40     9      180.000000        0.005927         4
         4         2         1        33     9        0.000000       -0.031876         1
         4         2         1        33     9      180.000000        0.029574         2
         4         2         1        33     9        0.000000        0.598012         3
         4         2         1        33     9      180.000000       -0.015196         4
         4         2         1        34     9        0.000000       -0.031876         1
         4         2         1        34     9      180.000000        0.029574         2
         4         2         1        34     9        0.000000        0.598012         3
         4         2         1        34     9      180.000000       -0.015196         4
         4         2         1        35     9        0.000000       -0.031876         1
         4         2         1        35     9      180.000000        0.029574         2
         4         2         1        35     9        0.000000        0.598012         3
         4         2         1        35     9      180.000000       -0.015196         4
         4         2         3        36     9        0.000000       -0.031876         1
         4         2         3        36     9      180.000000        0.029574         2
         4         2         3        36     9        0.000000        0.598012         3
         4         2         3        36     9      180.000000       -0.015196         4
         4         2         3        37     9        0.000000       -0.031876         1
         4         2         3        37     9      180.000000        0.029574         2
         4         2         3        37     9        0.000000        0.598012         3
         4         2         3        37     9      180.000000       -0.015196         4
         4         2         3        38     9        0.000000       -0.031876         1
         4         2         3        38     9      180.000000        0.029574         2
         4         2         3        38     9        0.000000        0.598012         3
         4         2         3        38     9      180.000000       -0.015196         4
         4         5         6         7     9        0.000000        0.788659         1
         4         5         6         7     9      180.000000       -0.748616         2
         4         5         6         7     9        0.000000        0.335637         3
         4         5         6         7     9      180.000000       -0.037415         4
         4         5         6        43     9        0.000000       -0.292943         1
         4         5         6        43     9      180.000000       -0.010528         2
         4         5         6        43     9        0.000000        0.461937         3
         4         5         6        43     9      180.000000        0.041842         4
         4         5         6        44     9        0.000000       -0.292943         1
         4         5         6        44     9      180.000000       -0.010528         2
         4         5         6        44     9        0.000000        0.461937         3
         4         5         6        44     9      180.000000        0.041842         4
         5         4         2        64     9        0.000000       -0.848652         1
         5         4         2        64     9      180.000000       -0.136899         2
         5         4         2        64     9        0.000000        0.504820         3
         5         4         2        64     9      180.000000       -0.023058         4
         5         6         7         8     9        0.000000        0.210917         1
         5         6         7         8     9      180.000000        0.595403         2
         5         6         7         8     9        0.000000       -0.054587         3
         5         6         7         8     9      180.000000        0.068541         4
         5         6         7         9     9        0.000000        0.751920         1
         5         6         7         9     9      180.000000        1.711644         2
         5         6         7         9     9        0.000000       -0.336012         3
         5         6         7         9     9      180.000000        0.005114         4
         6         5         4        39     9        0.000000       -0.369023         1
         6         5         4        39     9      180.000000        0.163939         2
         6         5         4        39     9        0.000000        0.670112         3
         6         5         4        39     9      180.000000        0.053911         4
         6         5         4        40     9        0.000000       -0.369023         1
         6         5         4        40     9      180.000000        0.163939         2
         6         5         4        40     9        0.000000        0.670112         3
         6         5         4        40     9      180.000000        0.053911         4
         6         7         9        10     9        0.000000        4.040602         1
         6         7         9        10     9      180.000000       10.945133         2
         6         7         9        10     9        0.000000        1.820464         3
         6         7         9        10     9      180.000000       -0.459994         4
         6         7         9        45     9        0.000000        0.187139         1
         6         7         9        45     9      180.000000       11.088237         2
         6         7         9        45     9        0.000000       -0.220903         3
         6         7         9        45     9      180.000000        0.757773         4
         7         6         5        41     9        0.000000        0.002295         1
         7         6         5        41     9      180.000000        0.045144         2
         7         6         5        41     9        0.000000        0.341858         3
         7         6         5        41     9      180.000000        0.024986         4
         7         6         5        42     9        0.000000        0.002295         1
         7         6         5        42     9      180.000000        0.045144         2
         7         6         5        42     9        0.000000        0.341858         3
         7         6         5        42     9      180.000000        0.024986         4
         7         9        10        11     9        0.000000       -0.617601         1
         7         9        10        11     9      180.000000        0.098519         2
         7         9        10        11     9        0.000000       -0.052274         3
         7         9        10        11     9      180.000000        0.151834         4
         7         9        10        46     9        0.000000        0.026989         1
         7         9        10        46     9      180.000000       -0.068660         2
         7         9        10        46     9        0.000000       -0.011935         3
         7         9        10        46     9      180.000000        0.032689         4
         7         9        10        47     9        0.000000        0.026989         1
         7         9        10        47     9      180.000000       -0.068660         2
         7         9        10        47     9        0.000000       -0.011935         3
         7         9        10        47     9      180.000000        0.032689         4
         8         7         6        43     9        0.000000        0.320781         1
         8         7         6        43     9      180.000000       -0.085436         2
         8         7         6        43     9        0.000000        0.080537         3
         8         7         6        43     9      180.000000        0.011786         4
         8         7         6        44     9        0.000000        0.320781         1
         8         7         6        44     9      180.000000       -0.085436         2
         8         7         6        44     9        0.000000        0.080537         3
         8         7         6        44     9      180.000000        0.011786         4
         8         7         9        10     9        0.000000        0.393813         1
         8         7         9        10     9      180.000000       10.025285         2
         8         7         9        10     9        0.000000        0.828244         3
         8         7         9        10     9      180.000000       -1.514522         4
         8         7         9        45     9        0.000000       -0.075172         1
         8         7         9        45     9      180.000000       11.735461         2
         8         7         9        45     9        0.000000        0.170777         3
         8         7         9        45     9      180.000000        1.265937         4
         9         7         6        43     9        0.000000       -0.345402         1
         9         7         6        43     9      180.000000       -0.229397         2
         9         7         6        43     9        0.000000       -0.306111         3
         9         7         6        43     9      180.000000        0.105681         4
         9         7         6        44     9        0.000000       -0.345402         1
         9         7         6        44     9      180.000000       -0.229397         2
         9         7         6        44     9        0.000000       -0.306111         3
         9         7         6        44     9      180.000000        0.105681         4
         9        10        11        12     9        0.000000       -0.002106         1
         9        10        11        12     9      180.000000        1.154139         2
         9        10        11        12     9        0.000000        0.416275         3
         9        10        11        12     9      180.000000       -0.039854         4
         9        10        11        32     9        0.000000        0.123136         1
         9        10        11        32     9      180.000000       -0.607500         2
         9        10        11        32     9        0.000000        0.380321         3
         9        10        11        32     9      180.000000        0.026079         4
         9        10        11        48     9        0.000000        0.062929         1
         9        10        11        48     9      180.000000       -0.006953         2
         9        10        11        48     9        0.000000        0.661493         3
         9        10        11        48     9      180.000000       -0.001570         4
        10        11        12        13     9        0.000000       -0.030695         1
        10        11        12        13     9      180.000000        0.445551         2
        10        11        12        13     9        0.000000        0.242724         3
        10        11        12        13     9      180.000000       -0.001364         4
        10        11        12        49     9        0.000000       -0.070379         1
        10        11        12        49     9      180.000000       -0.035050         2
        10        11        12        49     9        0.000000        0.304981         3
        10        11        12        49     9      180.000000        0.007396         4
        10        11        12        50     9        0.000000       -0.070379         1
        10        11        12        50     9      180.000000       -0.035050         2
        10        11        12        50     9        0.000000        0.304981         3
        10        11        12        50     9      180.000000        0.007396         4
        10        11        32        31     9        0.000000       -0.295949         1
        10        11        32        31     9      180.000000        0.096148         2
        10        11        32        31     9        0.000000        0.311170         3
        10        11        32        31     9      180.000000        0.096508         4
        11        10         9        45     9        0.000000        0.536136         1
        11        10         9        45     9      180.000000       -2.043267         2
        11        10         9        45     9        0.000000        0.465609         3
        11        10         9        45     9      180.000000        0.005159         4
        11        12        13        14     9        0.000000        0.749443         1
        11        12        13        14     9      180.000000       -1.135542         2
        11        12        13        14     9        0.000000        0.102484         3
        11        12        13        14     9      180.000000        0.145170         4
        11        12        13        51     9        0.000000       -0.056178         1
        11        12        13        51     9      180.000000        0.033817         2
        11        12        13        51     9        0.000000        0.187582         3
        11        12        13        51     9      180.000000        0.009769         4
        11        12        13        52     9        0.000000       -0.056178         1
        11        12        13        52     9      180.000000        0.033817         2
        11        12        13        52     9        0.000000        0.187582         3
        11        12        13        52     9      180.000000        0.009769         4
        11        32        31        14     9        0.000000        6.259643         1
        11        32        31        14     9      180.000000       -3.128709         2
        11        32        31        14     9        0.000000        0.015481         3
        11        32        31        14     9      180.000000        0.204303         4
        11        32        31        30     9        0.000000        0.220197         1
        11        32        31        30     9      180.000000       -1.072950         2
        11        32        31        30     9        0.000000        0.685051         3
        11        32        31        30     9      180.000000        0.125243         4
        11        32        31        63     9        0.000000       -0.147656         1
        11        32        31        63     9      180.000000        0.222605         2
        11        32        31        63     9        0.000000        0.637761         3
        11        32        31        63     9      180.000000        0.046116         4
        12        11        10        46     9        0.000000       -0.057975         1
        12        11        10        46     9      180.000000       -0.020655         2
        12        11        10        46     9        0.000000        0.581227         3
        12        11        10        46     9      180.000000        0.045892         4
        12        11        10        47     9        0.000000       -0.057975         1
        12        11        10        47     9      180.000000       -0.020655         2
        12        11        10        47     9        0.000000        0.581227         3
        12        11        10        47     9      180.000000        0.045892         4
        12        11        32        31     9        0.000000        4.710011         1
        12        11        32        31     9      180.000000       -1.697885         2
        12        11        32        31     9        0.000000        0.073395         3
        12        11        32        31     9      180.000000        0.162996         4
        12        13        14        15     9        0.000000        0.234609         1
        12        13        14        15     9      180.000000       -0.405427         2
        12        13        14        15     9        0.000000        0.339813         3
        12        13        14        15     9      180.000000        0.019245         4
        12        13        14        31     9        0.000000        0.873068         1
        12        13        14        31     9      180.000000       -0.919347         2
        12        13        14        31     9        0.000000        0.119479         3
        12        13        14        31     9      180.000000        0.075058         4
        12        13        14        53     9        0.000000       -0.857169         1
        12        13        14        53     9      180.000000       -0.013729         2
        12        13        14        53     9        0.000000        0.208833         3
        12        13        14        53     9      180.000000        0.137834         4
        13        12        11        32     9        0.000000       -0.274455         1
        13        12        11        32     9      180.000000       -0.449764         2
        13        12        11        32     9        0.000000        0.207855         3
        13        12        11        32     9      180.000000        0.016902         4
        13        12        11        48     9        0.000000       -0.129578         1
        13        12        11        48     9      180.000000       -0.014688         2
        13        12        11        48     9        0.000000        0.414129         3
        13        12        11        48     9      180.000000        0.015722         4
        13        14        15        16     9        0.000000        1.320949         1
        13        14        15        16     9      180.000000       -0.514293         2
        13        14        15        16     9        0.000000        0.883995         3
        13        14        15        16     9      180.000000        0.109917         4
        13        14        15        22     9        0.000000       -2.127418         1
        13        14        15        22     9      180.000000        0.810742         2
        13        14        15        22     9        0.000000        0.321075         3
        13        14        15        22     9      180.000000       -0.116557         4
        13        14        15        54     9        0.000000       -0.229337         1
        13        14        15        54     9      180.000000        0.171580         2
        13        14        15        54     9        0.000000        0.511325         3
        13        14        15        54     9      180.000000       -0.011479         4
        13        14        31        30     9        0.000000        0.301585         1
        13        14        31        30     9      180.000000       -1.169644         2
        13        14        31        30     9        0.000000        0.285303         3
        13        14        31        30     9      180.000000       -0.005935         4
        13        14        31        32     9        0.000000       -0.328887         1
        13        14        31        32     9      180.000000       -1.400306         2
        13        14        31        32     9        0.000000        0.272840         3
        13        14        31        32     9      180.000000        0.112757         4
        13        14        31        63     9        0.000000       -0.098918         1
        13        14        31        63     9      180.000000        0.209490         2
        13        14        31        63     9        0.000000        0.261326         3
        13        14        31        63     9      180.000000        0.094739         4
        14        13        12        49     9        0.000000       -0.046888         1
        14        13        12        49     9      180.000000        0.013585         2
        14        13        12        49     9        0.000000        0.178988         3
        14        13        12        49     9      180.000000        0.009060         4
        14        13        12        50     9        0.000000       -0.046888         1
        14        13        12        50     9      180.000000        0.013585         2
        14        13        12        50     9        0.000000        0.178988         3
        14        13        12        50     9      180.000000        0.009060         4
        14        15        16        17     9        0.000000       -0.370684         1
        14        15        16        17     9      180.000000       -0.121357         2
        14        15        16        17     9        0.000000        0.103495         3
        14        15        16        17     9      180.000000        0.008068         4
        14        15        16        21     9        0.000000       -0.370684         1
        14        15        16        21     9      180.000000       -0.121357         2
        14        15        16        21     9        0.000000        0.103495         3
        14        15        16        21     9      180.000000        0.008068         4
        14        15        22        23     9        0.000000        6.152469         1
        14        15        22        23     9      180.000000       -3.277935         2
        14        15        22        23     9        0.000000       -0.104402         3
        14        15        22        23     9      180.000000        0.689222         4
        14        15        22        60     9        0.000000        3.368913         1
        14        15        22        60     9      180.000000       -3.021058         2
        14        15        22        60     9        0.000000        0.143701         3
        14        15        22        60     9      180.000000        0.376102         4
        14        31        30        23     9        0.000000        3.383213         1
        14        31        30        23     9      180.000000       -3.601871         2
        14        31        30        23     9        0.000000       -0.178205         3
        14        31        30        23     9      180.000000        0.733376         4
        14        31        30        29     9        0.000000       -0.341006         1
        14        31        30        29     9      180.000000       -0.866208         2
        14        31        30        29     9        0.000000       -0.540564         3
        14        31        30        29     9      180.000000        0.256400         4
        15        14        13        51     9        0.000000       -0.014273         1
        15        14        13        51     9      180.000000        0.031203         2
        15        14        13        51     9        0.000000        0.287933         3
        15        14        13        51     9      180.000000        0.003848         4
        15        14        13        52     9        0.000000       -0.014273         1
        15        14        13        52     9      180.000000        0.031203         2
        15        14        13        52     9        0.000000        0.287933         3
        15        14        13        52     9      180.000000        0.003848         4
        15        14        31        30     9        0.000000        2.249213         1
        15        14        31        30     9      180.000000       -2.822180         2
        15        14        31        30     9        0.000000       -0.003299         3
        15        14        31        30     9      180.000000        0.180056         4
        15        14        31        32     9        0.000000        0.561573         1
        15        14        31        32     9      180.000000       -3.955252         2
        15        14        31        32     9        0.000000        0.101010         3
        15        14        31        32     9      180.000000        0.413051         4
        15        14        31        63     9        0.000000       -0.402306         1
        15        14        31        63     9      180.000000        0.118655         2
        15        14        31        63     9        0.000000        0.053805         3
        15        14        31        63     9      180.000000        0.146227         4
        15        16        17        18     9        0.000000        0.091853         1
        15        16        17        18     9      180.000000       14.677092         2
        15        16        17        18     9        0.000000       -0.133576         3
        15        16        17        18     9      180.000000       -0.085438         4
        15        16        17        55     9        0.000000       -0.043395         1
        15        16        17        55     9      180.000000       12.777157         2
        15        16        17        55     9        0.000000       -0.359360         3
        15        16        17        55     9      180.000000        0.187324         4
        15        16        21        20     9        0.000000        0.091853         1
        15        16        21        20     9      180.000000       14.677092         2
        15        16        21        20     9        0.000000       -0.133576         3
        15        16        21        20     9      180.000000       -0.085438         4
        15        16        21        59     9        0.000000       -0.043395         1
        15        16        21        59     9      180.000000       12.777157         2
        15        16        21        59     9        0.000000       -0.359360         3
        15        16        21        59     9      180.000000        0.187324         4
        15        22        23        24     9        0.000000        1.944444         1
        15        22        23        24     9      180.000000        0.918943         2
        15        22        23        24     9        0.000000        0.630628         3
        15        22        23        24     9      180.000000        0.345632         4
        15        22        23        30     9        0.000000        1.860276         1
        15        22        23        30     9      180.000000        1.354599         2
        15        22        23        30     9        0.000000       -0.317517         3
        15        22        23        30     9      180.000000        0.763917         4
        16        15        14        31     9        0.000000       -0.196485         1
        16        15        14        31     9      180.000000       -0.268425         2
        16        15        14        31     9        0.000000        0.337420         3
        16        15        14        31     9      180.000000        0.071592         4
        16        15        14        53     9        0.000000        0.084158         1
        16        15        14        53     9      180.000000       -0.049815         2
        16        15        14        53     9        0.000000        0.449041         3
        16        15        14        53     9      180.000000       -0.057460         4
        16        15        22        23     9        0.000000        1.014975         1
        16        15        22        23     9      180.000000       -0.699765         2
        16        15        22        23     9        0.000000        0.757986         3
        16        15        22        23     9      180.000000        0.039718         4
        16        15        22        60     9        0.000000        2.971056         1
        16        15        22        60     9      180.000000       -1.086297         2
        16        15        22        60     9        0.000000        0.133229         3
        16        15        22        60     9      180.000000       -0.155301         4
        16        17        18        19     9        0.000000        0.027332         1
        16        17        18        19     9      180.000000       18.735526         2
        16        17        18        19     9        0.000000       -1.491713         3
        16        17        18        19     9      180.000000       -0.406339         4
        16        17        18        56     9        0.000000        0.060410         1
        16        17        18        56     9      180.000000       14.990249         2
        16        17        18        56     9        0.000000       -0.580982         3
        16        17        18        56     9      180.000000        0.057213         4
        16        21        20        19     9        0.000000        0.027332         1
        16        21        20        19     9      180.000000       18.735526         2
        16        21        20        19     9        0.000000       -1.491713         3
        16        21        20        19     9      180.000000       -0.406339         4
        16        21        20        58     9        0.000000        0.060410         1
        16        21        20        58     9      180.000000       14.990249         2
        16        21        20        58     9        0.000000       -0.580982         3
        16        21        20        58     9      180.000000        0.057213         4
        17        16        15        22     9        0.000000       -0.200700         1
        17        16        15        22     9      180.000000        0.868726         2
        17        16        15        22     9        0.000000       -0.009400         3
        17        16        15        22     9      180.000000        0.236591         4
        17        16        15        54     9        0.000000        0.164796         1
        17        16        15        54     9      180.000000        0.637916         2
        17        16        15        54     9        0.000000        0.052389         3
        17        16        15        54     9      180.000000       -0.143521         4
        17        16        21        20     9        0.000000       -0.144446         1
        17        16        21        20     9      180.000000       19.062213         2
        17        16        21        20     9        0.000000       -1.504557         3
        17        16        21        20     9      180.000000       -0.477342         4
        17        16        21        59     9        0.000000       -0.069577         1
        17        16        21        59     9      180.000000       14.508781         2
        17        16        21        59     9        0.000000       -0.591210         3
        17        16        21        59     9      180.000000       -0.002966         4
        17        18        19        20     9        0.000000       -0.058928         1
        17        18        19        20     9      180.000000       18.660778         2
        17        18        19        20     9        0.000000       -1.621207         3
        17        18        19        20     9      180.000000       -0.382782         4
        17        18        19        57     9        0.000000        0.016777         1
        17        18        19        57     9      180.000000       14.282109         2
        17        18        19        57     9        0.000000       -0.780702         3
        17        18        19        57     9      180.000000        0.125906         4
        18        17        16        21     9        0.000000       -0.144446         1
        18        17        16        21     9      180.000000       19.062213         2
        18        17        16        21     9        0.000000       -1.504557         3
        18        17        16        21     9      180.000000       -0.477342         4
        18        19        20        21     9        0.000000       -0.058928         1
        18        19        20        21     9      180.000000       18.660778         2
        18        19        20        21     9        0.000000       -1.621207         3
        18        19        20        21     9      180.000000       -0.382782         4
        18        19        20        58     9        0.000000        0.010660         1
        18        19        20        58     9      180.000000       14.271862         2
        18        19        20        58     9        0.000000       -0.794146         3
        18        19        20        58     9      180.000000        0.157356         4
        19        18        17        55     9        0.000000        0.060923         1
        19        18        17        55     9      180.000000       14.800027         2
        19        18        17        55     9        0.000000       -0.680405         3
        19        18        17        55     9      180.000000        0.105082         4
        19        20        21        59     9        0.000000        0.060923         1
        19        20        21        59     9      180.000000       14.800027         2
        19        20        21        59     9        0.000000       -0.680405         3
        19        20        21        59     9      180.000000        0.105082         4
        20        19        18        56     9        0.000000        0.010660         1
        20        19        18        56     9      180.000000       14.271862         2
        20        19        18        56     9        0.000000       -0.794146         3
        20        19        18        56     9      180.000000        0.157356         4
        21        16        15        22     9        0.000000       -0.200700         1
        21        16        15        22     9      180.000000        0.868726         2
        21        16        15        22     9        0.000000       -0.009400         3
        21        16        15        22     9      180.000000        0.236591         4
        21        16        15        54     9        0.000000        0.164796         1
        21        16        15        54     9      180.000000        0.637916         2
        21        16        15        54     9        0.000000        0.052389         3
        21        16        15        54     9      180.000000       -0.143521         4
        21        16        17        55     9        0.000000       -0.069577         1
        21        16        17        55     9      180.000000       14.508781         2
        21        16        17        55     9        0.000000       -0.591210         3
        21        16        17        55     9      180.000000       -0.002966         4
        21        20        19        57     9        0.000000        0.016777         1
        21        20        19        57     9      180.000000       14.282109         2
        21        20        19        57     9        0.000000       -0.780702         3
        21        20        19        57     9      180.000000        0.125906         4
        22        15        14        31     9        0.000000       -0.324154         1
        22        15        14        31     9      180.000000       -1.659246         2
        22        15        14        31     9        0.000000       -0.197454         3
        22        15        14        31     9      180.000000        0.195250         4
        22        15        14        53     9        0.000000       -0.132359         1
        22        15        14        53     9      180.000000       -0.128847         2
        22        15        14        53     9        0.000000        0.112706         3
        22        15        14        53     9      180.000000        0.255319         4
        22        23        24        25     9        0.000000       -0.591693         1
        22        23        24        25     9      180.000000       21.222699         2
        22        23        24        25     9        0.000000        0.141001         3
        22        23        24        25     9      180.000000       -0.799612         4
        22        23        24        26     9        0.000000        0.211434         1
        22        23        24        26     9      180.000000       15.186544         2
        22        23        24        26     9        0.000000        0.100586         3
        22        23        24        26     9      180.000000       -0.077565         4
        22        23        30        29     9        0.000000        0.169268         1
        22        23        30        29     9      180.000000       17.029641         2
        22        23        30        29     9        0.000000        0.222215         3
        22        23        30        29     9      180.000000       -0.606628         4
        22        23        30        31     9        0.000000       -0.056253         1
        22        23        30        31     9      180.000000       15.540956         2
        22        23        30        31     9        0.000000        0.235539         3
        22        23        30        31     9      180.000000       -0.563714         4
        23        22        15        54     9        0.000000       -0.088418         1
        23        22        15        54     9      180.000000       -0.374105         2
        23        22        15        54     9        0.000000        0.631899         3
        23        22        15        54     9      180.000000       -0.040100         4
        23        24        26        27     9        0.000000        0.008460         1
        23        24        26        27     9      180.000000       16.590205         2
        23        24        26        27     9        0.000000       -1.509034         3
        23        24        26        27     9      180.000000       -0.342866         4
        23        24        26        61     9        0.000000        0.051836         1
        23        24        26        61     9      180.000000       12.548510         2
        23        24        26        61     9        0.000000       -0.578329         3
        23        24        26        61     9      180.000000        0.141959         4
        23        30        29        27     9        0.000000       -0.056626         1
        23        30        29        27     9      180.000000       18.750341         2
        23        30        29        27     9        0.000000       -1.521217         3
        23        30        29        27     9      180.000000       -0.357562         4
        23        30        29        62     9        0.000000        0.130393         1
        23        30        29        62     9      180.000000       14.174817         2
        23        30        29        62     9        0.000000       -0.320428         3
        23        30        29        62     9      180.000000        0.181591         4
        23        30        31        32     9        0.000000       -4.064323         1
        23        30        31        32     9      180.000000       -1.206442         2
        23        30        31        32     9        0.000000        0.616614         3
        23        30        31        32     9      180.000000       -0.181609         4
        23        30        31        63     9        0.000000        0.238916         1
        23        30        31        63     9      180.000000        0.354049         2
        23        30        31        63     9        0.000000        0.057761         3
        23        30        31        63     9      180.000000        0.040589         4
        24        23        22        60     9        0.000000        2.516106         1
        24        23        22        60     9      180.000000        3.440209         2
        24        23        22        60     9        0.000000        0.216481         3
        24        23        22        60     9      180.000000        0.066096         4
        24        23        30        29     9        0.000000        0.084554         1
        24        23        30        29     9      180.000000       15.237610         2
        24        23        30        29     9        0.000000       -0.795633         3
        24        23        30        29     9      180.000000       -0.301335         4
        24        23        30        31     9        0.000000       -0.085095         1
        24        23        30        31     9      180.000000       13.068774         2
        24        23        30        31     9        0.000000       -0.308021         3
        24        23        30        31     9      180.000000       -0.237309         4
        24        26        27        28     9        0.000000        0.402886         1
        24        26        27        28     9      180.000000       17.285265         2
        24        26        27        28     9        0.000000        0.323074         3
        24        26        27        28     9      180.000000       -0.585240         4
        24        26        27        29     9        0.000000       -0.153853         1
        24        26        27        29     9      180.000000       17.851625         2
        24        26        27        29     9        0.000000       -1.438677         3
        24        26        27        29     9      180.000000       -0.409432         4
        25        24        23        30     9        0.000000        0.117331         1
        25        24        23        30     9      180.000000       16.817439         2
        25        24        23        30     9        0.000000        0.418994         3
        25        24        23        30     9      180.000000       -0.310774         4
        25        24        26        27     9        0.000000        0.701954         1
        25        24        26        27     9      180.000000       23.243039         2
        25        24        26        27     9        0.000000        0.438534         3
        25        24        26        27     9      180.000000       -0.460011         4
        25        24        26        61     9        0.000000        0.304181         1
        25        24        26        61     9      180.000000       16.065946         2
        25        24        26        61     9        0.000000        0.188158         3
        25        24        26        61     9      180.000000        0.390660         4
        26        24        23        30     9        0.000000        0.004839         1
        26        24        23        30     9      180.000000       12.580535         2
        26        24        23        30     9        0.000000       -0.250425         3
        26        24        23        30     9      180.000000       -0.141692         4
        26        27        29        30     9        0.000000       -0.090664         1
        26        27        29        30     9      180.000000       17.737559         2
        26        27        29        30     9        0.000000       -1.543234         3
        26        27        29        30     9      180.000000       -0.406932         4
        26        27        29        62     9        0.000000        0.023885         1
        26        27        29        62     9      180.000000       13.862561         2
        26        27        29        62     9        0.000000       -0.633839         3
        26        27        29        62     9      180.000000        0.079809         4
        27        29        30        31     9        0.000000       -0.029117         1
        27        29        30        31     9      180.000000       16.784626         2
        27        29        30        31     9        0.000000       -0.265195         3
        27        29        30        31     9      180.000000       -0.358402         4
        28        27        26        61     9        0.000000        0.209467         1
        28        27        26        61     9      180.000000       12.454861         2
        28        27        26        61     9        0.000000       -0.062914         3
        28        27        26        61     9      180.000000        0.154045         4
        28        27        29        30     9        0.000000        0.291202         1
        28        27        29        30     9      180.000000       17.818825         2
        28        27        29        30     9        0.000000        0.219746         3
        28        27        29        30     9      180.000000       -0.642698         4
        28        27        29        62     9        0.000000        0.113238         1
        28        27        29        62     9      180.000000       12.678024         2
        28        27        29        62     9        0.000000       -0.120456         3
        28        27        29        62     9      180.000000        0.176198         4
        29        27        26        61     9        0.000000        0.095687         1
        29        27        26        61     9      180.000000       12.980202         2
        29        27        26        61     9        0.000000       -0.621807         3
        29        27        26        61     9      180.000000        0.116493         4
        29        30        31        32     9        0.000000        0.086009         1
        29        30        31        32     9      180.000000        0.484366         2
        29        30        31        32     9        0.000000       -0.809349         3
        29        30        31        32     9      180.000000        0.182412         4
        29        30        31        63     9        0.000000        0.060066         1
        29        30        31        63     9      180.000000       -0.040165         2
        29        30        31        63     9        0.000000       -0.585921         3
        29        30        31        63     9      180.000000       -0.028795         4
        30        23        22        60     9        0.000000        4.556579         1
        30        23        22        60     9      180.000000        4.208907         2
        30        23        22        60     9        0.000000       -0.555926         3
        30        23        22        60     9      180.000000        0.366071         4
        30        31        14        53     9        0.000000       -0.151961         1
        30        31        14        53     9      180.000000        0.067278         2
        30        31        14        53     9        0.000000        0.117780         3
        30        31        14        53     9      180.000000        0.256283         4
        31        14        13        51     9        0.000000       -0.114015         1
        31        14        13        51     9      180.000000        0.080765         2
        31        14        13        51     9        0.000000        0.152310         3
        31        14        13        51     9      180.000000        0.037378         4
        31        14        13        52     9        0.000000       -0.114015         1
        31        14        13        52     9      180.000000        0.080765         2
        31        14        13        52     9        0.000000        0.152310         3
        31        14        13        52     9      180.000000        0.037378         4
        31        14        15        54     9        0.000000       -0.209349         1
        31        14        15        54     9      180.000000       -0.027041         2
        31        14        15        54     9        0.000000        0.098569         3
        31        14        15        54     9      180.000000        0.135781         4
        31        30        29        62     9        0.000000       -0.022380         1
        31        30        29        62     9      180.000000       12.864756         2
        31        30        29        62     9        0.000000       -0.296917         3
        31        30        29        62     9      180.000000        0.163972         4
        31        32        11        48     9        0.000000       -0.371378         1
        31        32        11        48     9      180.000000        0.023440         2
        31        32        11        48     9        0.000000        0.404512         3
        31        32        11        48     9      180.000000        0.030217         4
        32        11        10        46     9        0.000000       -0.097734         1
        32        11        10        46     9      180.000000       -0.022824         2
        32        11        10        46     9        0.000000        0.450014         3
        32        11        10        46     9      180.000000        0.040265         4
        32        11        10        47     9        0.000000       -0.097734         1
        32        11        10        47     9      180.000000       -0.022824         2
        32        11        10        47     9        0.000000        0.450014         3
        32        11        10        47     9      180.000000        0.040265         4
        32        11        12        49     9        0.000000       -0.082062         1
        32        11        12        49     9      180.000000        0.006931         2
        32        11        12        49     9        0.000000        0.204352         3
        32        11        12        49     9      180.000000        0.006504         4
        32        11        12        50     9        0.000000       -0.082062         1
        32        11        12        50     9      180.000000        0.006931         2
        32        11        12        50     9        0.000000        0.204352         3
        32        11        12        50     9      180.000000        0.006504         4
        32        31        14        53     9        0.000000       -0.478280         1
        32        31        14        53     9      180.000000        0.177459         2
        32        31        14        53     9        0.000000        0.031307         3
        32        31        14        53     9      180.000000        0.221097         4
        33         1         2        64     9        0.000000       -0.085039         1
        33         1         2        64     9      180.000000        0.139224         2
        33         1         2        64     9        0.000000        0.519975         3
        33         1         2        64     9      180.000000        0.019438         4
        34         1         2        64     9        0.000000       -0.085039         1
        34         1         2        64     9      180.000000        0.139224         2
        34         1         2        64     9        0.000000        0.519975         3
        34         1         2        64     9      180.000000        0.019438         4
        35         1         2        64     9        0.000000       -0.085039         1
        35         1         2        64     9      180.000000        0.139224         2
        35         1         2        64     9        0.000000        0.519975         3
        35         1         2        64     9      180.000000        0.019438         4
        36         3         2        64     9        0.000000       -0.085039         1
        36         3         2        64     9      180.000000        0.139224         2
        36         3         2        64     9        0.000000        0.519975         3
        36         3         2        64     9      180.000000        0.019438         4
        37         3         2        64     9        0.000000       -0.085039         1
        37         3         2        64     9      180.000000        0.139224         2
        37         3         2        64     9        0.000000        0.519975         3
        37         3         2        64     9      180.000000        0.019438         4
        38         3         2        64     9        0.000000       -0.085039         1
        38         3         2        64     9      180.000000        0.139224         2
        38         3         2        64     9        0.000000        0.519975         3
        38         3         2        64     9      180.000000        0.019438         4
        39         4         2        64     9        0.000000        0.046146         1
        39         4         2        64     9      180.000000        0.138818         2
        39         4         2        64     9        0.000000        0.562964         3
        39         4         2        64     9      180.000000       -0.059853         4
        39         4         5        41     9        0.000000       -0.042910         1
        39         4         5        41     9      180.000000        0.027906         2
        39         4         5        41     9        0.000000        0.639048         3
        39         4         5        41     9      180.000000       -0.092145         4
        39         4         5        42     9        0.000000       -0.042910         1
        39         4         5        42     9      180.000000        0.027906         2
        39         4         5        42     9        0.000000        0.639048         3
        39         4         5        42     9      180.000000       -0.092145         4
        40         4         2        64     9        0.000000        0.046146         1
        40         4         2        64     9      180.000000        0.138818         2
        40         4         2        64     9        0.000000        0.562964         3
        40         4         2        64     9      180.000000       -0.059853         4
        40         4         5        41     9        0.000000       -0.042910         1
        40         4         5        41     9      180.000000        0.027906         2
        40         4         5        41     9        0.000000        0.639048         3
        40         4         5        41     9      180.000000       -0.092145         4
        40         4         5        42     9        0.000000       -0.042910         1
        40         4         5        42     9      180.000000        0.027906         2
        40         4         5        42     9        0.000000        0.639048         3
        40         4         5        42     9      180.000000       -0.092145         4
        41         5         6        43     9        0.000000        0.156728         1
        41         5         6        43     9      180.000000        0.033713         2
        41         5         6        43     9        0.000000        0.559980         3
        41         5         6        43     9      180.000000       -0.066080         4
        41         5         6        44     9        0.000000        0.156728         1
        41         5         6        44     9      180.000000        0.033713         2
        41         5         6        44     9        0.000000        0.559980         3
        41         5         6        44     9      180.000000       -0.066080         4
        42         5         6        43     9        0.000000        0.156728         1
        42         5         6        43     9      180.000000        0.033713         2
        42         5         6        43     9        0.000000        0.559980         3
        42         5         6        43     9      180.000000       -0.066080         4
        42         5         6        44     9        0.000000        0.156728         1
        42         5         6        44     9      180.000000        0.033713         2
        42         5         6        44     9        0.000000        0.559980         3
        42         5         6        44     9      180.000000       -0.066080         4
        45         9        10        46     9        0.000000       -0.118127         1
        45         9        10        46     9      180.000000        0.150480         2
        45         9        10        46     9        0.000000        0.501380         3
        45         9        10        46     9      180.000000        0.075815         4
        45         9        10        47     9        0.000000       -0.118127         1
        45         9        10        47     9      180.000000        0.150480         2
        45         9        10        47     9        0.000000        0.501380         3
        45         9        10        47     9      180.000000        0.075815         4
        46        10        11        48     9        0.000000       -0.034385         1
        46        10        11        48     9      180.000000        0.011587         2
        46        10        11        48     9        0.000000        0.707199         3
        46        10        11        48     9      180.000000       -0.063622         4
        47        10        11        48     9        0.000000       -0.034385         1
        47        10        11        48     9      180.000000        0.011587         2
        47        10        11        48     9        0.000000        0.707199         3
        47        10        11        48     9      180.000000       -0.063622         4
        48        11        12        49     9        0.000000        0.009472         1
        48        11        12        49     9      180.000000       -0.015290         2
        48        11        12        49     9        0.000000        0.463650         3
        48        11        12        49     9      180.000000       -0.048779         4
        48        11        12        50     9        0.000000        0.009472         1
        48        11        12        50     9      180.000000       -0.015290         2
        48        11        12        50     9        0.000000        0.463650         3
        48        11        12        50     9      180.000000       -0.048779         4
        49        12        13        51     9        0.000000        0.002608         1
        49        12        13        51     9      180.000000       -0.019702         2
        49        12        13        51     9        0.000000        0.279086         3
        49        12        13        51     9      180.000000        0.006997         4
        49        12        13        52     9        0.000000        0.002608         1
        49        12        13        52     9      180.000000       -0.019702         2
        49        12        13        52     9        0.000000        0.279086         3
        49        12        13        52     9      180.000000        0.006997         4
        50        12        13        51     9        0.000000        0.002608         1
        50        12        13        51     9      180.000000       -0.019702         2
        50        12        13        51     9        0.000000        0.279086         3
        50        12        13        51     9      180.000000        0.006997         4
        50        12        13        52     9        0.000000        0.002608         1
        50        12        13        52     9      180.000000       -0.019702         2
        50        12        13        52     9        0.000000        0.279086         3
        50        12        13        52     9      180.000000        0.006997         4
        51        13        14        53     9        0.000000        0.307712         1
        51        13        14        53     9      180.000000        0.073108         2
        51        13        14        53     9        0.000000        0.368973         3
        51        13        14        53     9      180.000000       -0.053939         4
        52        13        14        53     9        0.000000        0.307712         1
        52        13        14        53     9      180.000000        0.073108         2
        52        13        14        53     9        0.000000        0.368973         3
        52        13        14        53     9      180.000000       -0.053939         4
        53        14        15        54     9        0.000000        0.583554         1
        53        14        15        54     9      180.000000        0.096562         2
        53        14        15        54     9        0.000000        0.457936         3
        53        14        15        54     9      180.000000       -0.279237         4
        53        14        31        63     9        0.000000        0.092800         1
        53        14        31        63     9      180.000000        0.064157         2
        53        14        31        63     9        0.000000        0.246130         3
        53        14        31        63     9      180.000000       -0.117893         4
        54        15        22        60     9        0.000000       -0.771406         1
        54        15        22        60     9      180.000000       -0.244059         2
        54        15        22        60     9        0.000000        0.458117         3
        54        15        22        60     9      180.000000       -0.163048         4
        55        17        18        56     9        0.000000       -0.180341         1
        55        17        18        56     9      180.000000       11.789161         2
        55        17        18        56     9        0.000000       -0.659630         3
        55        17        18        56     9      180.000000        0.310085         4
        56        18        19        57     9        0.000000       -0.084557         1
        56        18        19        57     9      180.000000       11.520938         2
        56        18        19        57     9        0.000000       -0.587926         3
        56        18        19        57     9      180.000000        0.263272         4
        57        19        20        58     9        0.000000       -0.084557         1
        57        19        20        58     9      180.000000       11.520938         2
        57        19        20        58     9        0.000000       -0.587926         3
        57        19        20        58     9      180.000000        0.263272         4
        58        20        21        59     9        0.000000       -0.180341         1
        58        20        21        59     9      180.000000       11.789161         2
        58        20        21        59     9        0.000000       -0.659630         3
        58        20        21        59     9      180.000000        0.310085         4

[ dihedrals ] ; impropers
;       ai        aj        ak        al funct           phase               k        pn
         7         6         8         9     4      180.000000       13.638157         2
         7         8         9         6     4      180.000000       13.638157         2
         7         9         6         8     4      180.000000       13.638157         2
        17        16        18        55     4      180.000000        0.182436         2
        17        18        55        16     4      180.000000        0.182436         2
        17        55        16        18     4      180.000000        0.182436         2
        18        17        19        56     4      180.000000        0.258179         2
        18        19        56        17     4      180.000000        0.258179         2
        18        56        17        19     4      180.000000        0.258179         2
        19        18        20        57     4      180.000000        0.333131         2
        19        20        57        18     4      180.000000        0.333131         2
        19        57        18        20     4      180.000000        0.333131         2
        20        19        21        58     4      180.000000        0.258179         2
        20        21        58        19     4      180.000000        0.258179         2
        20        58        19        21     4      180.000000        0.258179         2
        21        16        20        59     4      180.000000        0.182436         2
        21        20        59        16     4      180.000000        0.182436         2
        21        59        16        20     4      180.000000        0.182436         2

[ pairs ]
;       ai        aj funct
         1         5     1
         1        36     1
         1        37     1
         1        38     1
         1        39     1
         1        40     1
         2         6     1
         2        41     1
         2        42     1
         3         5     1
         3        33     1
         3        34     1
         3        35     1
         3        39     1
         3        40     1
         4         7     1
         4        33     1
         4        34     1
         4        35     1
         4        36     1
         4        37     1
         4        38     1
         4        43     1
         4        44     1
         5         8     1
         5         9     1
         5        64     1
         6        10     1
         6        39     1
         6        40     1
         6        45     1
         7        11     1
         7        41     1
         7        42     1
         7        46     1
         7        47     1
         8        10     1
         8        43     1
         8        44     1
         8        45     1
         9        12     1
         9        32     1
         9        43     1
         9        44     1
         9        48     1
        10        13     1
        10        31     1
        10        49     1
        10        50     1
        11        14     1
        11        30     1
        11        45     1
        11        51     1
        11        52     1
        11        63     1
        12        15     1
        12        31     1
        12        46     1
        12        47     1
        12        53     1
        13        16     1
        13        22     1
        13        30     1
        13        32     1
        13        48     1
        13        54     1
        13        63     1
        14        17     1
        14        21     1
        14        23     1
        14        29     1
        14        49     1
        14        50     1
        14        60     1
        15        18     1
        15        20     1
        15        24     1
        15        30     1
        15        32     1
        15        51     1
        15        52     1
        15        55     1
        15        59     1
        15        63     1
        16        19     1
        16        23     1
        16        31     1
        16        53     1
        16        56     1
        16        58     1
        16        60     1
        17        20     1
        17        22     1
        17        54     1
        17        57     1
        17        59     1
        18        21     1
        18        58     1
        19        55     1
        19        59     1
        20        56     1
        21        22     1
        21        54     1
        21        55     1
        21        57     1
        22        25     1
        22        26     1
        22        29     1
        22        31     1
        22        53     1
        23        27     1
        23        32     1
        23        54     1
        23        61     1
        23        62     1
        23        63     1
        24        28     1
        24        29     1
        24        31     1
        24        60     1
        25        27     1
        25        30     1
        25        61     1
        26        30     1
        26        62     1
        27        31     1
        28        30     1
        28        61     1
        28        62     1
        29        32     1
        29        61     1
        29        63     1
        30        53     1
        30        60     1
        31        48     1
        31        51     1
        31        52     1
        31        54     1
        31        62     1
        32        46     1
        32        47     1
        32        49     1
        32        50     1
        32        53     1
        33        64     1
        34        64     1
        35        64     1
        36        64     1
        37        64     1
        38        64     1
        39        41     1
        39        42     1
        39        64     1
        40        41     1
        40        42     1
        40        64     1
        41        43     1
        41        44     1
        42        43     1
        42        44     1
        45        46     1
        45        47     1
        46        48     1
        47        48     1
        48        49     1
        48        50     1
        49        51     1
        49        52     1
        50        51     1
        50        52     1
        51        53     1
        52        53     1
        53        54     1
        53        63     1
        54        60     1
        55        56     1
        56        57     1
        57        58     1
        58        59     1
