; ITP file created by ByteFF-ML, 2026-02-21 07:38:26.542839

[ atomtypes ]
;name           bonded.type        at.num        mass        charge   ptype           sigma         epsilon
 c0bf                                   6      0.0000       0.00000       A     3.39828e-01     4.48488e-01
 n1bf                                   7      0.0000       0.00000       A     2.67231e-01     7.08236e+00
 c2bf                                   6      0.0000       0.00000       A     3.39891e-01     4.48109e-01
 c3bf                                   6      0.0000       0.00000       A     3.39681e-01     4.49622e-01
 c4bf                                   6      0.0000       0.00000       A     3.39753e-01     4.52720e-01
 c5bf                                   6      0.0000       0.00000       A     3.39899e-01     4.52709e-01
 c6bf                                   6      0.0000       0.00000       A     3.40218e-01     4.51818e-01
 c7bf                                   6      0.0000       0.00000       A     3.39362e-01     4.50344e-01
 c8bf                                   6      0.0000       0.00000       A     3.31442e-01     4.11328e-01
 c9bf                                   6      0.0000       0.00000       A     3.31557e-01     4.13160e-01
 c10bf                                  6      0.0000       0.00000       A     3.31517e-01     4.12670e-01
 c11bf                                  6      0.0000       0.00000       A     3.31525e-01     4.13214e-01
 f12bf                                  9      0.0000       0.00000       A     3.03427e-01     3.47782e-01
 c13bf                                  6      0.0000       0.00000       A     3.31517e-01     4.12670e-01
 c14bf                                  6      0.0000       0.00000       A     3.31557e-01     4.13160e-01
 n15bf                                  7      0.0000       0.00000       A     3.28286e-01     6.41163e-01
 c16bf                                  6      0.0000       0.00000       A     3.31454e-01     4.11042e-01
 c17bf                                  6      0.0000       0.00000       A     3.31569e-01     4.14507e-01
 c18bf                                  6      0.0000       0.00000       A     3.31508e-01     4.13091e-01
 c19bf                                  6      0.0000       0.00000       A     3.31488e-01     4.14461e-01
 c20bf                                  6      0.0000       0.00000       A     3.39788e-01     4.48602e-01
 f21bf                                  9      0.0000       0.00000       A     3.03460e-01     3.47943e-01
 f22bf                                  9      0.0000       0.00000       A     3.03460e-01     3.47943e-01
 f23bf                                  9      0.0000       0.00000       A     3.03460e-01     3.47943e-01
 c24bf                                  6      0.0000       0.00000       A     3.31217e-01     4.13522e-01
 c25bf                                  6      0.0000       0.00000       A     3.31287e-01     4.10150e-01
 c26bf                                  6      0.0000       0.00000       A     3.39616e-01     4.52931e-01
 o27bf                                  8      0.0000       0.00000       A     3.16041e-01     3.06723e-01
 h28bf                                  1      0.0000       0.00000       A     1.88028e-01     8.70799e-02
 h29bf                                  1      0.0000       0.00000       A     1.88028e-01     8.70799e-02
 h30bf                                  1      0.0000       0.00000       A     1.88028e-01     8.70799e-02
 h31bf                                  1      0.0000       0.00000       A     1.10814e-01     4.12951e-02
 h32bf                                  1      0.0000       0.00000       A     1.87691e-01     8.61032e-02
 h33bf                                  1      0.0000       0.00000       A     1.87691e-01     8.61032e-02
 h34bf                                  1      0.0000       0.00000       A     2.42371e-01     8.77264e-02
 h35bf                                  1      0.0000       0.00000       A     2.60071e-01     8.65692e-02
 h36bf                                  1      0.0000       0.00000       A     2.60071e-01     8.65692e-02
 h37bf                                  1      0.0000       0.00000       A     2.60017e-01     8.63234e-02
 h38bf                                  1      0.0000       0.00000       A     2.60017e-01     8.63234e-02
 h39bf                                  1      0.0000       0.00000       A     2.59608e-01     8.66043e-02
 h40bf                                  1      0.0000       0.00000       A     2.42675e-01     8.80520e-02
 h41bf                                  1      0.0000       0.00000       A     2.62462e-01     6.74180e-02
 h42bf                                  1      0.0000       0.00000       A     2.62526e-01     6.71227e-02
 h43bf                                  1      0.0000       0.00000       A     2.62526e-01     6.71227e-02
 h44bf                                  1      0.0000       0.00000       A     2.62462e-01     6.74180e-02
 h45bf                                  1      0.0000       0.00000       A     1.10887e-01     4.11451e-02
 h46bf                                  1      0.0000       0.00000       A     2.62406e-01     6.70142e-02
 h47bf                                  1      0.0000       0.00000       A     2.62597e-01     6.75951e-02
 h48bf                                  1      0.0000       0.00000       A     2.62549e-01     6.73222e-02
 h49bf                                  1      0.0000       0.00000       A     2.42774e-01     8.84398e-02
 h50bf                                  1      0.0000       0.00000       A     1.10814e-01     4.12951e-02

[ moleculetype ]
;name             nrexcl
 CHEMBL1086409         3

[ atoms ]
;       nr            type      resi   res      atom      cgnr      charge          mass ; qtot
         1            c0bf         1   UNL        c0         1     0.09470       12.0110 ; qtot    0.095
         2            n1bf         1   UNL        n1         2    -0.83582       14.0070 ; qtot   -0.741
         3            c2bf         1   UNL        c2         3     0.09252       12.0110 ; qtot   -0.649
         4            c3bf         1   UNL        c3         4     0.14946       12.0110 ; qtot   -0.499
         5            c4bf         1   UNL        c4         5    -0.09709       12.0110 ; qtot   -0.596
         6            c5bf         1   UNL        c5         6    -0.06571       12.0110 ; qtot   -0.662
         7            c6bf         1   UNL        c6         7    -0.09920       12.0110 ; qtot   -0.761
         8            c7bf         1   UNL        c7         8     0.26239       12.0110 ; qtot   -0.499
         9            c8bf         1   UNL        c8         9    -0.11927       12.0110 ; qtot   -0.618
        10            c9bf         1   UNL        c9        10    -0.07024       12.0110 ; qtot   -0.688
        11           c10bf         1   UNL       c10        11    -0.14849       12.0110 ; qtot   -0.837
        12           c11bf         1   UNL       c11        12     0.16304       12.0110 ; qtot   -0.674
        13           f12bf         1   UNL       f12        13    -0.18099       18.9980 ; qtot   -0.855
        14           c13bf         1   UNL       c13        14    -0.14849       12.0110 ; qtot   -1.003
        15           c14bf         1   UNL       c14        15    -0.07024       12.0110 ; qtot   -1.073
        16           n15bf         1   UNL       n15        16    -0.92305       14.0070 ; qtot   -1.996
        17           c16bf         1   UNL       c16        17     0.30845       12.0110 ; qtot   -1.688
        18           c17bf         1   UNL       c17        18    -0.17966       12.0110 ; qtot   -1.868
        19           c18bf         1   UNL       c18        19    -0.01484       12.0110 ; qtot   -1.883
        20           c19bf         1   UNL       c19        20    -0.23480       12.0110 ; qtot   -2.117
        21           c20bf         1   UNL       c20        21     0.34500       12.0110 ; qtot   -1.772
        22           f21bf         1   UNL       f21        22    -0.10402       18.9980 ; qtot   -1.876
        23           f22bf         1   UNL       f22        23    -0.10402       18.9980 ; qtot   -1.980
        24           f23bf         1   UNL       f23        24    -0.10402       18.9980 ; qtot   -2.084
        25           c24bf         1   UNL       c24        25     0.01257       12.0110 ; qtot   -2.072
        26           c25bf         1   UNL       c25        26    -0.16857       12.0110 ; qtot   -2.240
        27           c26bf         1   UNL       c26        27     0.23737       12.0110 ; qtot   -2.003
        28           o27bf         1   UNL       o27        28    -0.46191       15.9990 ; qtot   -2.465
        29           h28bf         1   UNL       h28        29     0.10802        1.0080 ; qtot   -2.357
        30           h29bf         1   UNL       h29        30     0.10802        1.0080 ; qtot   -2.249
        31           h30bf         1   UNL       h30        31     0.10802        1.0080 ; qtot   -2.141
        32           h31bf         1   UNL       h31        32     0.51632        1.0080 ; qtot   -1.625
        33           h32bf         1   UNL       h32        33     0.11656        1.0080 ; qtot   -1.508
        34           h33bf         1   UNL       h33        34     0.11656        1.0080 ; qtot   -1.391
        35           h34bf         1   UNL       h34        35     0.08641        1.0080 ; qtot   -1.305
        36           h35bf         1   UNL       h35        36     0.06631        1.0080 ; qtot   -1.239
        37           h36bf         1   UNL       h36        37     0.06631        1.0080 ; qtot   -1.172
        38           h37bf         1   UNL       h37        38     0.05432        1.0080 ; qtot   -1.118
        39           h38bf         1   UNL       h38        39     0.05432        1.0080 ; qtot   -1.064
        40           h39bf         1   UNL       h39        40     0.06779        1.0080 ; qtot   -0.996
        41           h40bf         1   UNL       h40        41     0.05590        1.0080 ; qtot   -0.940
        42           h41bf         1   UNL       h41        42     0.12348        1.0080 ; qtot   -0.817
        43           h42bf         1   UNL       h42        43     0.13491        1.0080 ; qtot   -0.682
        44           h43bf         1   UNL       h43        44     0.13491        1.0080 ; qtot   -0.547
        45           h44bf         1   UNL       h44        45     0.12348        1.0080 ; qtot   -0.423
        46           h45bf         1   UNL       h45        46     0.45777        1.0080 ; qtot    0.034
        47           h46bf         1   UNL       h46        47     0.11995        1.0080 ; qtot    0.154
        48           h47bf         1   UNL       h47        48     0.13153        1.0080 ; qtot    0.286
        49           h48bf         1   UNL       h48        49     0.13526        1.0080 ; qtot    0.421
        50           h49bf         1   UNL       h49        50     0.06250        1.0080 ; qtot    0.484
        51           h50bf         1   UNL       h50        51     0.51628        1.0080 ; qtot    1.000

[ bonds ]
;       ai        aj funct               r               k
         1         2     1        0.150678   160703.433228
         1        29     1        0.108854   320317.529980
         1        30     1        0.108854   320317.529980
         1        31     1        0.108854   320317.529980
         2         3     1        0.151399   142318.795752
         2        32     1        0.102819   378731.216113
         2        51     1        0.102819   378731.216113
         3         4     1        0.153307   175832.931982
         3        33     1        0.109027   314180.400781
         3        34     1        0.109027   314180.400781
         4         5     1        0.153737   171222.717627
         4        28     1        0.142798   186894.586279
         4        35     1        0.109778   291513.585889
         5         6     1        0.153730   182168.050391
         5        36     1        0.109433   298905.659717
         5        37     1        0.109433   298905.659717
         6         7     1        0.153672   177369.653076
         6        38     1        0.109414   298482.535352
         6        39     1        0.109414   298482.535352
         7         8     1        0.154231   162728.372778
         7        27     1        0.153696   167726.444751
         7        40     1        0.109661   296507.444238
         8         9     1        0.151995   180729.251343
         8        16     1        0.146639   193821.578271
         8        41     1        0.109903   282326.764014
         9        10     1        0.140212   287978.356152
         9        15     1        0.140212   287978.356152
        10        11     1        0.139781   317085.323584
        10        42     1        0.108627   317977.411426
        11        12     1        0.139141   307055.802637
        11        43     1        0.108508   324110.761133
        12        13     1        0.135808   286795.809229
        12        14     1        0.139141   307055.802637
        14        15     1        0.139781   317085.349121
        14        44     1        0.108508   324110.761133
        15        45     1        0.108627   317977.385889
        16        17     1        0.140120   267840.276904
        16        46     1        0.101355   410549.739355
        17        18     1        0.140735   277586.412549
        17        26     1        0.141215   263372.840527
        18        19     1        0.139041   333166.424414
        18        47     1        0.108629   317015.479590
        19        20     1        0.140173   293861.288965
        19        48     1        0.108531   322344.538037
        20        21     1        0.150293   195287.357275
        20        25     1        0.139887   297622.828564
        21        22     1        0.135840   221716.758789
        21        23     1        0.135840   221716.758789
        21        24     1        0.135840   221716.758789
        25        26     1        0.139370   310255.806738
        25        49     1        0.108550   319487.752686
        26        27     1        0.151014   191286.024219
        27        28     1        0.144972   161888.584937
        27        50     1        0.109939   282248.952441

[ angles ]
;       ai        aj        ak funct           theta             cth
         1         2         3     1      115.187744      598.576820
         1         2        32     1      109.700928      498.669519
         1         2        51     1      109.700928      498.669583
         2         1        29     1      108.587814      556.078792
         2         1        30     1      108.587814      556.078792
         2         1        31     1      108.587814      556.078792
         2         3         4     1      109.782944      666.941322
         2         3        33     1      107.335121      541.874094
         2         3        34     1      107.335121      541.874094
         3         2        32     1      107.926857      485.947378
         3         2        51     1      107.926857      485.947378
         3         4         5     1      113.556824      579.916471
         3         4        28     1      104.664413      644.269029
         3         4        35     1      108.838211      491.167067
         4         3        33     1      111.428970      470.995113
         4         3        34     1      111.428970      470.995113
         4         5         6     1      110.426315      651.287457
         4         5        36     1      109.441452      484.410810
         4         5        37     1      109.441452      484.410810
         4        28        27     1      113.849854      593.057037
         5         4        28     1      112.597496      554.383639
         5         4        35     1      109.474503      457.415436
         5         6         7     1      111.060867      623.724488
         5         6        38     1      109.777687      504.865492
         5         6        39     1      109.777687      504.865492
         6         5        36     1      110.383827      503.331382
         6         5        37     1      110.383827      503.331382
         6         7         8     1      113.328896      594.607268
         6         7        27     1      110.180885      597.397133
         6         7        40     1      108.813293      484.520077
         7         6        38     1      109.690323      493.512396
         7         6        39     1      109.690323      493.512396
         7         8         9     1      112.815956      537.690350
         7         8        16     1      108.654358      596.889008
         7         8        41     1      107.204910      478.962787
         7        27        26     1      112.233177      567.866977
         7        27        28     1      111.193848      595.220924
         7        27        50     1      108.455673      466.184592
         8         7        27     1      109.567154      678.098102
         8         7        40     1      107.115433      495.353525
         8         9        10     1      120.726562      485.270453
         8         9        15     1      120.726562      485.270453
         8        16        17     1      118.392113      536.379083
         8        16        46     1      113.211632      469.750690
         9         8        16     1      111.191956      591.072102
         9         8        41     1      107.633011      484.419716
         9        10        11     1      121.127731      700.094938
         9        10        42     1      119.683044      395.200845
         9        15        14     1      121.127731      700.094938
         9        15        45     1      119.683044      395.200845
        10         9        15     1      118.655251      675.120347
        10        11        12     1      118.460266      694.377690
        10        11        43     1      121.739807      420.449130
        11        10        42     1      119.144913      422.752353
        11        12        13     1      118.967628      576.647210
        11        12        14     1      122.101158      586.535626
        12        11        43     1      119.842857      427.309706
        12        14        15     1      118.460266      694.377690
        12        14        44     1      119.842857      427.309706
        13        12        14     1      118.967628      576.647210
        14        15        45     1      119.144913      422.752353
        15        14        44     1      121.739807      420.449130
        16         8        41     1      109.216263      441.919231
        16        17        18     1      119.853516      544.844699
        16        17        26     1      120.381920      586.866970
        17        16        46     1      113.638138      488.207987
        17        18        19     1      120.859085      770.216712
        17        18        47     1      119.257690      424.611327
        17        26        25     1      119.148849      776.854445
        17        26        27     1      119.978683      563.062362
        18        17        26     1      119.169983      656.365575
        18        19        20     1      119.814743      649.825202
        18        19        48     1      119.982407      418.252204
        19        18        47     1      119.795059      441.763486
        19        20        21     1      119.944275      539.726551
        19        20        25     1      119.428001      627.848668
        20        19        48     1      120.115784      419.580102
        20        21        22     1      112.050613      590.814688
        20        21        23     1      112.050613      590.814688
        20        21        24     1      112.050613      590.814688
        20        25        26     1      121.233292      658.046299
        20        25        49     1      119.835167      412.227904
        21        20        25     1      120.179886      484.271952
        22        21        23     1      106.686356      701.106016
        22        21        24     1      106.686356      701.106016
        23        21        24     1      106.686356      701.106016
        25        26        27     1      120.741089      462.558259
        26        25        49     1      118.870621      400.905548
        26        27        28     1      109.568336      626.553106
        26        27        50     1      108.765259      459.778608
        27         7        40     1      107.224144      503.814129
        28         4        35     1      108.373062      453.719546
        28        27        50     1      106.351967      485.220305
        29         1        30     1      110.439980      348.692534
        29         1        31     1      110.439980      348.692534
        30         1        31     1      110.439980      348.692534
        32         2        51     1      106.186768      403.175637
        33         3        34     1      109.253494      345.162060
        36         5        37     1      107.026955      357.757824
        38         6        39     1      106.531815      361.918011

[ dihedrals ] ; propers for gromacs 4.5 or higher, use funct 9
;       ai        aj        ak        al funct           phase               k        pn
         1         2         3         4     9        0.000000       -0.148125         1
         1         2         3         4     9      180.000000       -0.408852         2
         1         2         3         4     9        0.000000        0.731077         3
         1         2         3         4     9      180.000000        0.103734         4
         1         2         3        33     9        0.000000       -0.129659         1
         1         2         3        33     9      180.000000        0.160150         2
         1         2         3        33     9        0.000000        0.778493         3
         1         2         3        33     9      180.000000        0.001367         4
         1         2         3        34     9        0.000000       -0.129659         1
         1         2         3        34     9      180.000000        0.160150         2
         1         2         3        34     9        0.000000        0.778493         3
         1         2         3        34     9      180.000000        0.001367         4
         2         3         4         5     9        0.000000        2.014708         1
         2         3         4         5     9      180.000000        1.223700         2
         2         3         4         5     9        0.000000        0.738295         3
         2         3         4         5     9      180.000000        0.029904         4
         2         3         4        28     9        0.000000        7.418826         1
         2         3         4        28     9      180.000000       -1.892051         2
         2         3         4        28     9        0.000000        0.625270         3
         2         3         4        28     9      180.000000        0.231430         4
         2         3         4        35     9        0.000000       -0.850898         1
         2         3         4        35     9      180.000000       -1.223401         2
         2         3         4        35     9        0.000000        0.896097         3
         2         3         4        35     9      180.000000        0.031154         4
         3         2         1        29     9        0.000000       -0.025776         1
         3         2         1        29     9      180.000000        0.084967         2
         3         2         1        29     9        0.000000        0.554715         3
         3         2         1        29     9      180.000000       -0.036747         4
         3         2         1        30     9        0.000000       -0.025776         1
         3         2         1        30     9      180.000000        0.084967         2
         3         2         1        30     9        0.000000        0.554715         3
         3         2         1        30     9      180.000000       -0.036747         4
         3         2         1        31     9        0.000000       -0.025776         1
         3         2         1        31     9      180.000000        0.084967         2
         3         2         1        31     9        0.000000        0.554715         3
         3         2         1        31     9      180.000000       -0.036747         4
         3         4         5         6     9        0.000000        0.974052         1
         3         4         5         6     9      180.000000        0.565821         2
         3         4         5         6     9        0.000000        0.417842         3
         3         4         5         6     9      180.000000        0.001361         4
         3         4         5        36     9        0.000000       -0.365848         1
         3         4         5        36     9      180.000000       -0.037095         2
         3         4         5        36     9        0.000000        0.432078         3
         3         4         5        36     9      180.000000        0.049548         4
         3         4         5        37     9        0.000000       -0.365848         1
         3         4         5        37     9      180.000000       -0.037095         2
         3         4         5        37     9        0.000000        0.432078         3
         3         4         5        37     9      180.000000        0.049548         4
         3         4        28        27     9        0.000000       -1.011323         1
         3         4        28        27     9      180.000000       -0.381184         2
         3         4        28        27     9        0.000000        0.603114         3
         3         4        28        27     9      180.000000       -0.027529         4
         4         3         2        32     9        0.000000        0.737996         1
         4         3         2        32     9      180.000000        0.138845         2
         4         3         2        32     9        0.000000        0.428803         3
         4         3         2        32     9      180.000000       -0.076223         4
         4         3         2        51     9        0.000000        0.737996         1
         4         3         2        51     9      180.000000        0.138845         2
         4         3         2        51     9        0.000000        0.428803         3
         4         3         2        51     9      180.000000       -0.076223         4
         4         5         6         7     9        0.000000        0.540228         1
         4         5         6         7     9      180.000000       -0.840758         2
         4         5         6         7     9        0.000000        0.214074         3
         4         5         6         7     9      180.000000        0.001396         4
         4         5         6        38     9        0.000000       -0.067366         1
         4         5         6        38     9      180.000000        0.005620         2
         4         5         6        38     9        0.000000        0.242890         3
         4         5         6        38     9      180.000000        0.001881         4
         4         5         6        39     9        0.000000       -0.067366         1
         4         5         6        39     9      180.000000        0.005620         2
         4         5         6        39     9        0.000000        0.242890         3
         4         5         6        39     9      180.000000        0.001881         4
         4        28        27         7     9        0.000000        6.852292         1
         4        28        27         7     9      180.000000       -3.005623         2
         4        28        27         7     9        0.000000        0.090681         3
         4        28        27         7     9      180.000000        0.255357         4
         4        28        27        26     9        0.000000        0.465855         1
         4        28        27        26     9      180.000000       -1.050177         2
         4        28        27        26     9        0.000000        0.698331         3
         4        28        27        26     9      180.000000        0.110978         4
         4        28        27        50     9        0.000000       -0.237720         1
         4        28        27        50     9      180.000000       -0.062973         2
         4        28        27        50     9        0.000000        0.858127         3
         4        28        27        50     9      180.000000       -0.032060         4
         5         4         3        33     9        0.000000       -0.227143         1
         5         4         3        33     9      180.000000        0.093726         2
         5         4         3        33     9        0.000000        0.703277         3
         5         4         3        33     9      180.000000        0.086746         4
         5         4         3        34     9        0.000000       -0.227143         1
         5         4         3        34     9      180.000000        0.093726         2
         5         4         3        34     9        0.000000        0.703277         3
         5         4         3        34     9      180.000000        0.086746         4
         5         4        28        27     9        0.000000        6.015266         1
         5         4        28        27     9      180.000000       -1.389733         2
         5         4        28        27     9        0.000000       -0.012013         3
         5         4        28        27     9      180.000000        0.083016         4
         5         6         7         8     9        0.000000        0.063331         1
         5         6         7         8     9      180.000000       -0.380457         2
         5         6         7         8     9        0.000000        0.341469         3
         5         6         7         8     9      180.000000        0.031064         4
         5         6         7        27     9        0.000000        0.818395         1
         5         6         7        27     9      180.000000       -0.727129         2
         5         6         7        27     9        0.000000        0.101266         3
         5         6         7        27     9      180.000000        0.090342         4
         5         6         7        40     9        0.000000       -0.906563         1
         5         6         7        40     9      180.000000       -0.034068         2
         5         6         7        40     9        0.000000        0.210362         3
         5         6         7        40     9      180.000000        0.132300         4
         6         5         4        28     9        0.000000       -0.474681         1
         6         5         4        28     9      180.000000       -0.105879         2
         6         5         4        28     9        0.000000        0.296819         3
         6         5         4        28     9      180.000000       -0.049557         4
         6         5         4        35     9        0.000000       -0.459414         1
         6         5         4        35     9      180.000000       -0.018794         2
         6         5         4        35     9        0.000000        0.414334         3
         6         5         4        35     9      180.000000        0.036888         4
         6         7         8         9     9        0.000000        1.285677         1
         6         7         8         9     9      180.000000       -0.476412         2
         6         7         8         9     9        0.000000        0.901018         3
         6         7         8         9     9      180.000000        0.103471         4
         6         7         8        16     9        0.000000       -1.633119         1
         6         7         8        16     9      180.000000        0.708535         2
         6         7         8        16     9        0.000000        0.330455         3
         6         7         8        16     9      180.000000       -0.098155         4
         6         7         8        41     9        0.000000       -0.330422         1
         6         7         8        41     9      180.000000        0.178701         2
         6         7         8        41     9        0.000000        0.519501         3
         6         7         8        41     9      180.000000       -0.013983         4
         6         7        27        26     9        0.000000        0.781402         1
         6         7        27        26     9      180.000000       -1.418269         2
         6         7        27        26     9        0.000000        0.333501         3
         6         7        27        26     9      180.000000        0.069045         4
         6         7        27        28     9        0.000000        0.304669         1
         6         7        27        28     9      180.000000       -1.680837         2
         6         7        27        28     9        0.000000        0.263678         3
         6         7        27        28     9      180.000000        0.174090         4
         6         7        27        50     9        0.000000       -0.071141         1
         6         7        27        50     9      180.000000        0.159360         2
         6         7        27        50     9        0.000000        0.292224         3
         6         7        27        50     9      180.000000        0.094285         4
         7         6         5        36     9        0.000000       -0.087810         1
         7         6         5        36     9      180.000000        0.053871         2
         7         6         5        36     9        0.000000        0.216392         3
         7         6         5        36     9      180.000000        0.010328         4
         7         6         5        37     9        0.000000       -0.087810         1
         7         6         5        37     9      180.000000        0.053871         2
         7         6         5        37     9        0.000000        0.216392         3
         7         6         5        37     9      180.000000        0.010328         4
         7         8         9        10     9        0.000000       -0.296027         1
         7         8         9        10     9      180.000000       -0.155074         2
         7         8         9        10     9        0.000000        0.108098         3
         7         8         9        10     9      180.000000        0.000610         4
         7         8         9        15     9        0.000000       -0.296027         1
         7         8         9        15     9      180.000000       -0.155074         2
         7         8         9        15     9        0.000000        0.108098         3
         7         8         9        15     9      180.000000        0.000610         4
         7         8        16        17     9        0.000000        5.940338         1
         7         8        16        17     9      180.000000       -3.136762         2
         7         8        16        17     9        0.000000       -0.048298         3
         7         8        16        17     9      180.000000        0.710952         4
         7         8        16        46     9        0.000000        3.523494         1
         7         8        16        46     9      180.000000       -3.065427         2
         7         8        16        46     9        0.000000        0.126340         3
         7         8        16        46     9      180.000000        0.382838         4
         7        27        26        17     9        0.000000        4.633798         1
         7        27        26        17     9      180.000000       -3.889905         2
         7        27        26        17     9        0.000000       -0.247986         3
         7        27        26        17     9      180.000000        0.842276         4
         7        27        26        25     9        0.000000       -0.639587         1
         7        27        26        25     9      180.000000       -0.827696         2
         7        27        26        25     9        0.000000       -0.592729         3
         7        27        26        25     9      180.000000        0.255337         4
         8         7         6        38     9        0.000000       -0.011244         1
         8         7         6        38     9      180.000000        0.026542         2
         8         7         6        38     9        0.000000        0.298064         3
         8         7         6        38     9      180.000000       -0.002558         4
         8         7         6        39     9        0.000000       -0.011244         1
         8         7         6        39     9      180.000000        0.026542         2
         8         7         6        39     9        0.000000        0.298064         3
         8         7         6        39     9      180.000000       -0.002558         4
         8         7        27        26     9        0.000000        2.211175         1
         8         7        27        26     9      180.000000       -2.782245         2
         8         7        27        26     9        0.000000        0.013965         3
         8         7        27        26     9      180.000000        0.212796         4
         8         7        27        28     9        0.000000        0.946426         1
         8         7        27        28     9      180.000000       -4.232993         2
         8         7        27        28     9        0.000000        0.154785         3
         8         7        27        28     9      180.000000        0.438708         4
         8         7        27        50     9        0.000000       -0.361868         1
         8         7        27        50     9      180.000000        0.121142         2
         8         7        27        50     9        0.000000        0.073836         3
         8         7        27        50     9      180.000000        0.153866         4
         8         9        10        11     9        0.000000        0.064852         1
         8         9        10        11     9      180.000000       14.883589         2
         8         9        10        11     9        0.000000       -0.184074         3
         8         9        10        11     9      180.000000       -0.121633         4
         8         9        10        42     9        0.000000        0.003329         1
         8         9        10        42     9      180.000000       12.740132         2
         8         9        10        42     9        0.000000       -0.387757         3
         8         9        10        42     9      180.000000        0.191800         4
         8         9        15        14     9        0.000000        0.064852         1
         8         9        15        14     9      180.000000       14.883589         2
         8         9        15        14     9        0.000000       -0.184074         3
         8         9        15        14     9      180.000000       -0.121633         4
         8         9        15        45     9        0.000000        0.003329         1
         8         9        15        45     9      180.000000       12.740132         2
         8         9        15        45     9        0.000000       -0.387757         3
         8         9        15        45     9      180.000000        0.191800         4
         8        16        17        18     9        0.000000       -0.720221         1
         8        16        17        18     9      180.000000        3.224797         2
         8        16        17        18     9        0.000000        0.007484         3
         8        16        17        18     9      180.000000        0.386793         4
         8        16        17        26     9        0.000000        3.392995         1
         8        16        17        26     9      180.000000        0.902665         2
         8        16        17        26     9        0.000000       -0.216725         3
         8        16        17        26     9      180.000000        0.933904         4
         9         8         7        27     9        0.000000       -0.227321         1
         9         8         7        27     9      180.000000       -0.228875         2
         9         8         7        27     9        0.000000        0.345461         3
         9         8         7        27     9      180.000000        0.085798         4
         9         8         7        40     9        0.000000       -0.022714         1
         9         8         7        40     9      180.000000       -0.045468         2
         9         8         7        40     9        0.000000        0.474394         3
         9         8         7        40     9      180.000000       -0.067254         4
         9         8        16        17     9        0.000000        0.891227         1
         9         8        16        17     9      180.000000       -0.629024         2
         9         8        16        17     9        0.000000        0.764712         3
         9         8        16        17     9      180.000000        0.089704         4
         9         8        16        46     9        0.000000        2.565959         1
         9         8        16        46     9      180.000000       -0.938780         2
         9         8        16        46     9        0.000000        0.093785         3
         9         8        16        46     9      180.000000       -0.148007         4
         9        10        11        12     9        0.000000       -0.010634         1
         9        10        11        12     9      180.000000       18.852829         2
         9        10        11        12     9        0.000000       -1.478375         3
         9        10        11        12     9      180.000000       -0.452997         4
         9        10        11        43     9        0.000000        0.070896         1
         9        10        11        43     9      180.000000       14.448191         2
         9        10        11        43     9        0.000000       -0.546969         3
         9        10        11        43     9      180.000000        0.093374         4
         9        15        14        12     9        0.000000       -0.010634         1
         9        15        14        12     9      180.000000       18.852829         2
         9        15        14        12     9        0.000000       -1.478375         3
         9        15        14        12     9      180.000000       -0.452997         4
         9        15        14        44     9        0.000000        0.070896         1
         9        15        14        44     9      180.000000       14.448191         2
         9        15        14        44     9        0.000000       -0.546969         3
         9        15        14        44     9      180.000000        0.093374         4
        10         9         8        16     9        0.000000       -0.061072         1
        10         9         8        16     9      180.000000        0.793431         2
        10         9         8        16     9        0.000000       -0.031557         3
        10         9         8        16     9      180.000000        0.270622         4
        10         9         8        41     9        0.000000        0.149853         1
        10         9         8        41     9      180.000000        0.627032         2
        10         9         8        41     9        0.000000        0.050771         3
        10         9         8        41     9      180.000000       -0.157135         4
        10         9        15        14     9        0.000000       -0.153939         1
        10         9        15        14     9      180.000000       19.139391         2
        10         9        15        14     9        0.000000       -1.538084         3
        10         9        15        14     9      180.000000       -0.502118         4
        10         9        15        45     9        0.000000       -0.044808         1
        10         9        15        45     9      180.000000       14.508890         2
        10         9        15        45     9        0.000000       -0.658024         3
        10         9        15        45     9      180.000000       -0.010792         4
        10        11        12        13     9        0.000000        0.576783         1
        10        11        12        13     9      180.000000       23.568368         2
        10        11        12        13     9        0.000000        0.484755         3
        10        11        12        13     9      180.000000       -0.714030         4
        10        11        12        14     9        0.000000       -0.125491         1
        10        11        12        14     9      180.000000       17.159790         2
        10        11        12        14     9        0.000000       -1.123272         3
        10        11        12        14     9      180.000000       -0.329041         4
        11        10         9        15     9        0.000000       -0.153939         1
        11        10         9        15     9      180.000000       19.139391         2
        11        10         9        15     9        0.000000       -1.538084         3
        11        10         9        15     9      180.000000       -0.502118         4
        11        12        14        15     9        0.000000       -0.125491         1
        11        12        14        15     9      180.000000       17.159790         2
        11        12        14        15     9        0.000000       -1.123272         3
        11        12        14        15     9      180.000000       -0.329041         4
        11        12        14        44     9        0.000000        0.130033         1
        11        12        14        44     9      180.000000       12.668282         2
        11        12        14        44     9        0.000000       -0.500000         3
        11        12        14        44     9      180.000000        0.154857         4
        12        11        10        42     9        0.000000        0.178260         1
        12        11        10        42     9      180.000000       14.936100         2
        12        11        10        42     9        0.000000       -0.522309         3
        12        11        10        42     9      180.000000        0.048646         4
        12        14        15        45     9        0.000000        0.178260         1
        12        14        15        45     9      180.000000       14.936100         2
        12        14        15        45     9        0.000000       -0.522309         3
        12        14        15        45     9      180.000000        0.048646         4
        13        12        11        43     9        0.000000        0.268034         1
        13        12        11        43     9      180.000000       15.850919         2
        13        12        11        43     9        0.000000        0.304498         3
        13        12        11        43     9      180.000000        0.160944         4
        13        12        14        15     9        0.000000        0.576783         1
        13        12        14        15     9      180.000000       23.568368         2
        13        12        14        15     9        0.000000        0.484755         3
        13        12        14        15     9      180.000000       -0.714030         4
        13        12        14        44     9        0.000000        0.268034         1
        13        12        14        44     9      180.000000       15.850919         2
        13        12        14        44     9        0.000000        0.304498         3
        13        12        14        44     9      180.000000        0.160944         4
        14        12        11        43     9        0.000000        0.130033         1
        14        12        11        43     9      180.000000       12.668282         2
        14        12        11        43     9        0.000000       -0.500000         3
        14        12        11        43     9      180.000000        0.154857         4
        15         9         8        16     9        0.000000       -0.061072         1
        15         9         8        16     9      180.000000        0.793431         2
        15         9         8        16     9        0.000000       -0.031557         3
        15         9         8        16     9      180.000000        0.270622         4
        15         9         8        41     9        0.000000        0.149853         1
        15         9         8        41     9      180.000000        0.627032         2
        15         9         8        41     9        0.000000        0.050771         3
        15         9         8        41     9      180.000000       -0.157135         4
        15         9        10        42     9        0.000000       -0.044808         1
        15         9        10        42     9      180.000000       14.508890         2
        15         9        10        42     9        0.000000       -0.658024         3
        15         9        10        42     9      180.000000       -0.010792         4
        16         8         7        27     9        0.000000       -0.120464         1
        16         8         7        27     9      180.000000       -1.543956         2
        16         8         7        27     9        0.000000       -0.245586         3
        16         8         7        27     9      180.000000        0.187407         4
        16         8         7        40     9        0.000000       -0.081847         1
        16         8         7        40     9      180.000000        0.009201         2
        16         8         7        40     9        0.000000        0.106304         3
        16         8         7        40     9      180.000000        0.240746         4
        16        17        18        19     9        0.000000        0.394468         1
        16        17        18        19     9      180.000000       18.736531         2
        16        17        18        19     9        0.000000        0.460433         3
        16        17        18        19     9      180.000000       -0.281804         4
        16        17        18        47     9        0.000000       -0.277982         1
        16        17        18        47     9      180.000000       15.530411         2
        16        17        18        47     9        0.000000       -0.156391         3
        16        17        18        47     9      180.000000        0.040111         4
        16        17        26        25     9        0.000000        0.175401         1
        16        17        26        25     9      180.000000       17.341016         2
        16        17        26        25     9        0.000000        0.120033         3
        16        17        26        25     9      180.000000       -0.597496         4
        16        17        26        27     9        0.000000       -0.025325         1
        16        17        26        27     9      180.000000       15.731625         2
        16        17        26        27     9        0.000000        0.477358         3
        16        17        26        27     9      180.000000       -0.524083         4
        17        16         8        41     9        0.000000       -0.112048         1
        17        16         8        41     9      180.000000       -0.155155         2
        17        16         8        41     9        0.000000        0.621816         3
        17        16         8        41     9      180.000000       -0.029643         4
        17        18        19        20     9        0.000000        0.055675         1
        17        18        19        20     9      180.000000       18.406921         2
        17        18        19        20     9        0.000000       -1.912952         3
        17        18        19        20     9      180.000000       -0.412704         4
        17        18        19        48     9        0.000000        0.076473         1
        17        18        19        48     9      180.000000       14.070312         2
        17        18        19        48     9        0.000000       -0.680251         3
        17        18        19        48     9      180.000000        0.120126         4
        17        26        25        20     9        0.000000       -0.001933         1
        17        26        25        20     9      180.000000       18.915734         2
        17        26        25        20     9        0.000000       -1.767628         3
        17        26        25        20     9      180.000000       -0.421815         4
        17        26        25        49     9        0.000000        0.151073         1
        17        26        25        49     9      180.000000       14.320046         2
        17        26        25        49     9        0.000000       -0.365312         3
        17        26        25        49     9      180.000000        0.114163         4
        17        26        27        28     9        0.000000       -2.693978         1
        17        26        27        28     9      180.000000       -1.748740         2
        17        26        27        28     9        0.000000        0.754086         3
        17        26        27        28     9      180.000000       -0.217225         4
        17        26        27        50     9        0.000000       -0.138183         1
        17        26        27        50     9      180.000000        0.439349         2
        17        26        27        50     9        0.000000        0.120215         3
        17        26        27        50     9      180.000000        0.012886         4
        18        17        16        46     9        0.000000       -0.833285         1
        18        17        16        46     9      180.000000        4.468193         2
        18        17        16        46     9        0.000000        0.018400         3
        18        17        16        46     9      180.000000        0.261817         4
        18        17        26        25     9        0.000000        0.026765         1
        18        17        26        25     9      180.000000       14.737099         2
        18        17        26        25     9        0.000000       -0.705376         3
        18        17        26        25     9      180.000000       -0.274300         4
        18        17        26        27     9        0.000000        0.037109         1
        18        17        26        27     9      180.000000       12.132040         2
        18        17        26        27     9        0.000000       -0.168069         3
        18        17        26        27     9      180.000000       -0.084717         4
        18        19        20        21     9        0.000000        0.032550         1
        18        19        20        21     9      180.000000       14.438455         2
        18        19        20        21     9        0.000000       -0.070405         3
        18        19        20        21     9      180.000000       -0.263928         4
        18        19        20        25     9        0.000000       -0.087046         1
        18        19        20        25     9      180.000000       18.415396         2
        18        19        20        25     9        0.000000       -1.600674         3
        18        19        20        25     9      180.000000       -0.395144         4
        19        18        17        26     9        0.000000        0.031509         1
        19        18        17        26     9      180.000000       16.807129         2
        19        18        17        26     9        0.000000       -0.691304         3
        19        18        17        26     9      180.000000       -0.383093         4
        19        20        21        22     9        0.000000       -0.000026         1
        19        20        21        22     9      180.000000        0.048574         2
        19        20        21        22     9        0.000000        0.186873         3
        19        20        21        22     9      180.000000        0.032348         4
        19        20        21        23     9        0.000000       -0.000026         1
        19        20        21        23     9      180.000000        0.048574         2
        19        20        21        23     9        0.000000        0.186873         3
        19        20        21        23     9      180.000000        0.032348         4
        19        20        21        24     9        0.000000       -0.000026         1
        19        20        21        24     9      180.000000        0.048574         2
        19        20        21        24     9        0.000000        0.186873         3
        19        20        21        24     9      180.000000        0.032348         4
        19        20        25        26     9        0.000000       -0.011174         1
        19        20        25        26     9      180.000000       17.759799         2
        19        20        25        26     9        0.000000       -1.674413         3
        19        20        25        26     9      180.000000       -0.400159         4
        19        20        25        49     9        0.000000        0.124949         1
        19        20        25        49     9      180.000000       14.034475         2
        19        20        25        49     9        0.000000       -0.702800         3
        19        20        25        49     9      180.000000        0.060916         4
        20        19        18        47     9        0.000000        0.072241         1
        20        19        18        47     9      180.000000       15.427600         2
        20        19        18        47     9        0.000000       -0.713637         3
        20        19        18        47     9      180.000000        0.090772         4
        20        25        26        27     9        0.000000       -0.025940         1
        20        25        26        27     9      180.000000       17.497985         2
        20        25        26        27     9        0.000000       -0.555785         3
        20        25        26        27     9      180.000000       -0.414233         4
        21        20        19        48     9        0.000000        0.122363         1
        21        20        19        48     9      180.000000       11.493078         2
        21        20        19        48     9        0.000000       -0.272450         3
        21        20        19        48     9      180.000000        0.132038         4
        21        20        25        26     9        0.000000        0.031312         1
        21        20        25        26     9      180.000000       14.343546         2
        21        20        25        26     9        0.000000       -0.113217         3
        21        20        25        26     9      180.000000       -0.321206         4
        21        20        25        49     9        0.000000        0.021233         1
        21        20        25        49     9      180.000000       11.255695         2
        21        20        25        49     9        0.000000       -0.353476         3
        21        20        25        49     9      180.000000        0.163687         4
        22        21        20        25     9        0.000000       -0.028912         1
        22        21        20        25     9      180.000000        0.059371         2
        22        21        20        25     9        0.000000        0.082074         3
        22        21        20        25     9      180.000000        0.049959         4
        23        21        20        25     9        0.000000       -0.028912         1
        23        21        20        25     9      180.000000        0.059371         2
        23        21        20        25     9        0.000000        0.082074         3
        23        21        20        25     9      180.000000        0.049959         4
        24        21        20        25     9        0.000000       -0.028912         1
        24        21        20        25     9      180.000000        0.059371         2
        24        21        20        25     9        0.000000        0.082074         3
        24        21        20        25     9      180.000000        0.049959         4
        25        20        19        48     9        0.000000        0.163703         1
        25        20        19        48     9      180.000000       13.957222         2
        25        20        19        48     9        0.000000       -0.633766         3
        25        20        19        48     9      180.000000        0.029795         4
        25        26        27        28     9        0.000000       -0.198482         1
        25        26        27        28     9      180.000000        0.326794         2
        25        26        27        28     9        0.000000       -0.709775         3
        25        26        27        28     9      180.000000        0.109532         4
        25        26        27        50     9        0.000000       -0.268514         1
        25        26        27        50     9      180.000000       -0.034409         2
        25        26        27        50     9        0.000000       -0.636113         3
        25        26        27        50     9      180.000000        0.014176         4
        26        17        16        46     9        0.000000        5.986842         1
        26        17        16        46     9      180.000000        4.005795         2
        26        17        16        46     9        0.000000       -0.592975         3
        26        17        16        46     9      180.000000        0.382814         4
        26        17        18        47     9        0.000000        0.020995         1
        26        17        18        47     9      180.000000       12.789966         2
        26        17        18        47     9        0.000000       -0.209460         3
        26        17        18        47     9      180.000000        0.003016         4
        26        27         7        40     9        0.000000       -0.089455         1
        26        27         7        40     9      180.000000       -0.004564         2
        26        27         7        40     9        0.000000        0.119984         3
        26        27         7        40     9      180.000000        0.251202         4
        27         7         6        38     9        0.000000       -0.091881         1
        27         7         6        38     9      180.000000        0.059686         2
        27         7         6        38     9        0.000000        0.162435         3
        27         7         6        38     9      180.000000        0.032515         4
        27         7         6        39     9        0.000000       -0.091881         1
        27         7         6        39     9      180.000000        0.059686         2
        27         7         6        39     9        0.000000        0.162435         3
        27         7         6        39     9      180.000000        0.032515         4
        27         7         8        41     9        0.000000       -0.205145         1
        27         7         8        41     9      180.000000        0.005190         2
        27         7         8        41     9        0.000000        0.111424         3
        27         7         8        41     9      180.000000        0.140077         4
        27        26        25        49     9        0.000000       -0.048835         1
        27        26        25        49     9      180.000000       12.777158         2
        27        26        25        49     9        0.000000       -0.287924         3
        27        26        25        49     9      180.000000        0.170445         4
        27        28         4        35     9        0.000000       -0.895465         1
        27        28         4        35     9      180.000000        0.204018         2
        27        28         4        35     9        0.000000        0.611366         3
        27        28         4        35     9      180.000000        0.167053         4
        28         4         3        33     9        0.000000       -0.213767         1
        28         4         3        33     9      180.000000        0.108410         2
        28         4         3        33     9        0.000000        0.614433         3
        28         4         3        33     9      180.000000        0.027969         4
        28         4         3        34     9        0.000000       -0.213767         1
        28         4         3        34     9      180.000000        0.108410         2
        28         4         3        34     9        0.000000        0.614433         3
        28         4         3        34     9      180.000000        0.027969         4
        28         4         5        36     9        0.000000        0.055975         1
        28         4         5        36     9      180.000000        0.036487         2
        28         4         5        36     9        0.000000        0.326521         3
        28         4         5        36     9      180.000000        0.017483         4
        28         4         5        37     9        0.000000        0.055975         1
        28         4         5        37     9      180.000000        0.036487         2
        28         4         5        37     9        0.000000        0.326521         3
        28         4         5        37     9      180.000000        0.017483         4
        28        27         7        40     9        0.000000       -0.719575         1
        28        27         7        40     9      180.000000       -0.023310         2
        28        27         7        40     9        0.000000        0.046345         3
        28        27         7        40     9      180.000000        0.162986         4
        29         1         2        32     9        0.000000       -0.209413         1
        29         1         2        32     9      180.000000        0.092758         2
        29         1         2        32     9        0.000000        0.403926         3
        29         1         2        32     9      180.000000        0.036922         4
        29         1         2        51     9        0.000000       -0.209413         1
        29         1         2        51     9      180.000000        0.092756         2
        29         1         2        51     9        0.000000        0.403926         3
        29         1         2        51     9      180.000000        0.036922         4
        30         1         2        32     9        0.000000       -0.209413         1
        30         1         2        32     9      180.000000        0.092758         2
        30         1         2        32     9        0.000000        0.403926         3
        30         1         2        32     9      180.000000        0.036922         4
        30         1         2        51     9        0.000000       -0.209413         1
        30         1         2        51     9      180.000000        0.092756         2
        30         1         2        51     9        0.000000        0.403926         3
        30         1         2        51     9      180.000000        0.036922         4
        31         1         2        32     9        0.000000       -0.209413         1
        31         1         2        32     9      180.000000        0.092758         2
        31         1         2        32     9        0.000000        0.403926         3
        31         1         2        32     9      180.000000        0.036922         4
        31         1         2        51     9        0.000000       -0.209413         1
        31         1         2        51     9      180.000000        0.092756         2
        31         1         2        51     9        0.000000        0.403926         3
        31         1         2        51     9      180.000000        0.036922         4
        32         2         3        33     9        0.000000       -0.010031         1
        32         2         3        33     9      180.000000       -0.011853         2
        32         2         3        33     9        0.000000        0.447966         3
        32         2         3        33     9      180.000000        0.047175         4
        32         2         3        34     9        0.000000       -0.010031         1
        32         2         3        34     9      180.000000       -0.011853         2
        32         2         3        34     9        0.000000        0.447966         3
        32         2         3        34     9      180.000000        0.047175         4
        33         3         2        51     9        0.000000       -0.010032         1
        33         3         2        51     9      180.000000       -0.011852         2
        33         3         2        51     9        0.000000        0.447966         3
        33         3         2        51     9      180.000000        0.047175         4
        33         3         4        35     9        0.000000       -0.147414         1
        33         3         4        35     9      180.000000        0.142584         2
        33         3         4        35     9        0.000000        0.671232         3
        33         3         4        35     9      180.000000       -0.039688         4
        34         3         2        51     9        0.000000       -0.010032         1
        34         3         2        51     9      180.000000       -0.011852         2
        34         3         2        51     9        0.000000        0.447966         3
        34         3         2        51     9      180.000000        0.047175         4
        34         3         4        35     9        0.000000       -0.147414         1
        34         3         4        35     9      180.000000        0.142584         2
        34         3         4        35     9        0.000000        0.671232         3
        34         3         4        35     9      180.000000       -0.039688         4
        35         4         5        36     9        0.000000        0.101066         1
        35         4         5        36     9      180.000000       -0.004487         2
        35         4         5        36     9        0.000000        0.497701         3
        35         4         5        36     9      180.000000       -0.076082         4
        35         4         5        37     9        0.000000        0.101066         1
        35         4         5        37     9      180.000000       -0.004487         2
        35         4         5        37     9        0.000000        0.497701         3
        35         4         5        37     9      180.000000       -0.076082         4
        36         5         6        38     9        0.000000        0.002806         1
        36         5         6        38     9      180.000000        0.000718         2
        36         5         6        38     9        0.000000        0.291687         3
        36         5         6        38     9      180.000000        0.023503         4
        36         5         6        39     9        0.000000        0.002806         1
        36         5         6        39     9      180.000000        0.000718         2
        36         5         6        39     9        0.000000        0.291687         3
        36         5         6        39     9      180.000000        0.023503         4
        37         5         6        38     9        0.000000        0.002806         1
        37         5         6        38     9      180.000000        0.000718         2
        37         5         6        38     9        0.000000        0.291687         3
        37         5         6        38     9      180.000000        0.023503         4
        37         5         6        39     9        0.000000        0.002806         1
        37         5         6        39     9      180.000000        0.000718         2
        37         5         6        39     9        0.000000        0.291687         3
        37         5         6        39     9      180.000000        0.023503         4
        38         6         7        40     9        0.000000        0.300281         1
        38         6         7        40     9      180.000000        0.083329         2
        38         6         7        40     9        0.000000        0.383292         3
        38         6         7        40     9      180.000000       -0.056411         4
        39         6         7        40     9        0.000000        0.300281         1
        39         6         7        40     9      180.000000        0.083329         2
        39         6         7        40     9        0.000000        0.383292         3
        39         6         7        40     9      180.000000       -0.056411         4
        40         7         8        41     9        0.000000        0.589952         1
        40         7         8        41     9      180.000000        0.106993         2
        40         7         8        41     9        0.000000        0.459468         3
        40         7         8        41     9      180.000000       -0.274357         4
        40         7        27        50     9        0.000000        0.061019         1
        40         7        27        50     9      180.000000        0.058921         2
        40         7        27        50     9        0.000000        0.272865         3
        40         7        27        50     9      180.000000       -0.080540         4
        41         8        16        46     9        0.000000       -0.890253         1
        41         8        16        46     9      180.000000       -0.260122         2
        41         8        16        46     9        0.000000        0.459100         3
        41         8        16        46     9      180.000000       -0.171435         4
        42        10        11        43     9        0.000000       -0.196849         1
        42        10        11        43     9      180.000000       11.796276         2
        42        10        11        43     9        0.000000       -0.694959         3
        42        10        11        43     9      180.000000        0.256947         4
        44        14        15        45     9        0.000000       -0.196849         1
        44        14        15        45     9      180.000000       11.796276         2
        44        14        15        45     9        0.000000       -0.694959         3
        44        14        15        45     9      180.000000        0.256947         4
        47        18        19        48     9        0.000000       -0.149691         1
        47        18        19        48     9      180.000000       12.317767         2
        47        18        19        48     9        0.000000       -0.778015         3
        47        18        19        48     9      180.000000        0.331038         4

[ dihedrals ] ; impropers
;       ai        aj        ak        al funct           phase               k        pn
        10         9        11        42     4      180.000000        0.669157         2
        10        11        42         9     4      180.000000        0.669157         2
        10        42         9        11     4      180.000000        0.669157         2
        12        11        13        14     4      180.000000        0.336976         2
        12        13        14        11     4      180.000000        0.336976         2
        12        14        11        13     4      180.000000        0.336976         2
        15         9        14        45     4      180.000000        0.669157         2
        15        14        45         9     4      180.000000        0.669157         2
        15        45         9        14     4      180.000000        0.669157         2

[ pairs ]
;       ai        aj funct
         1         4     1
         1        33     1
         1        34     1
         2         5     1
         2        28     1
         2        35     1
         3         6     1
         3        27     1
         3        29     1
         3        30     1
         3        31     1
         3        36     1
         3        37     1
         4         7     1
         4        26     1
         4        32     1
         4        38     1
         4        39     1
         4        50     1
         4        51     1
         5         8     1
         5        27     1
         5        33     1
         5        34     1
         5        40     1
         6         9     1
         6        16     1
         6        26     1
         6        28     1
         6        35     1
         6        41     1
         6        50     1
         7        10     1
         7        15     1
         7        17     1
         7        25     1
         7        36     1
         7        37     1
         7        46     1
         8        11     1
         8        14     1
         8        18     1
         8        26     1
         8        28     1
         8        38     1
         8        39     1
         8        42     1
         8        45     1
         8        50     1
         9        12     1
         9        17     1
         9        27     1
         9        40     1
         9        43     1
         9        44     1
         9        46     1
        10        13     1
        10        14     1
        10        16     1
        10        41     1
        10        45     1
        11        15     1
        11        44     1
        12        42     1
        12        45     1
        13        15     1
        13        43     1
        13        44     1
        14        43     1
        15        16     1
        15        41     1
        15        42     1
        16        19     1
        16        25     1
        16        27     1
        16        40     1
        16        47     1
        17        20     1
        17        28     1
        17        41     1
        17        48     1
        17        49     1
        17        50     1
        18        21     1
        18        25     1
        18        27     1
        18        46     1
        19        22     1
        19        23     1
        19        24     1
        19        26     1
        19        49     1
        20        27     1
        20        47     1
        21        26     1
        21        48     1
        21        49     1
        22        25     1
        23        25     1
        24        25     1
        25        28     1
        25        48     1
        25        50     1
        26        40     1
        26        46     1
        26        47     1
        27        35     1
        27        38     1
        27        39     1
        27        41     1
        27        49     1
        28        33     1
        28        34     1
        28        36     1
        28        37     1
        28        40     1
        29        32     1
        29        51     1
        30        32     1
        30        51     1
        31        32     1
        31        51     1
        32        33     1
        32        34     1
        33        35     1
        33        51     1
        34        35     1
        34        51     1
        35        36     1
        35        37     1
        36        38     1
        36        39     1
        37        38     1
        37        39     1
        38        40     1
        39        40     1
        40        41     1
        40        50     1
        41        46     1
        42        43     1
        44        45     1
        47        48     1
