clashed crystal waters from merck/cdk8
6
   68SOL     OW  202  -0.344   1.458  -0.925
   68SOL    HW1  203  -0.268   1.418  -0.976
   68SOL    HW2  204  -0.344   1.423  -0.831
  101SOL     OW  301  -0.131   1.345  -1.066
  101SOL    HW1  302  -0.080   1.264  -1.038
  101SOL    HW2  303  -0.083   1.390  -1.142
    7.9497    7.9497    7.9497
