Generated by PDBParser (exclude clash < 1.000 A)
534
    1SOL     OW    1   0.014  -0.407  -1.985
    1SOL    HW1    2   0.020  -0.389  -2.083
    1SOL    HW2    3  -0.026  -0.328  -1.939
    2SOL     OW    4  -1.172   0.585  -1.646
    2SOL    HW1    5  -1.085   0.536  -1.648
    2SOL    HW2    6  -1.171   0.658  -1.714
    3SOL     OW    7  -2.927   1.223  -1.033
    3SOL    HW1    8  -2.891   1.143  -1.080
    3SOL    HW2    9  -2.853   1.284  -1.007
    4SOL     OW   10  -0.525   1.311  -0.119
    4SOL    HW1   11  -0.534   1.361  -0.205
    4SOL    HW2   12  -0.602   1.333  -0.059
    5SOL     OW   13   1.282  -0.699  -1.062
    5SOL    HW1   14   1.263  -0.657  -1.151
    5SOL    HW2   15   1.322  -0.790  -1.077
    6SOL     OW   16   0.489   0.659  -3.417
    6SOL    HW1   17   0.519   0.589  -3.482
    6SOL    HW2   18   0.400   0.634  -3.379
    7SOL     OW   19  -0.993   0.832  -2.273
    7SOL    HW1   20  -0.958   0.773  -2.345
    7SOL    HW2   21  -1.026   0.918  -2.313
    8SOL     OW   22   0.955  -0.708  -0.930
    8SOL    HW1   23   0.935  -0.780  -0.864
    8SOL    HW2   24   1.027  -0.739  -0.993
    9SOL     OW   25   2.620   2.813  -1.565
    9SOL    HW1   26   2.673   2.730  -1.584
    9SOL    HW2   27   2.563   2.798  -1.484
   10SOL     OW   28  -0.757   0.474  -2.215
   10SOL    HW1   29  -0.715   0.473  -2.124
   10SOL    HW2   30  -0.730   0.557  -2.263
   11SOL     OW   31   3.359   1.975  -1.319
   11SOL    HW1   32   3.387   2.064  -1.282
   11SOL    HW2   33   3.413   1.903  -1.275
   12SOL     OW   34  -1.163   1.090  -3.452
   12SOL    HW1   35  -1.138   1.046  -3.366
   12SOL    HW2   36  -1.086   1.143  -3.486
   13SOL     OW   37   0.124  -0.076  -2.617
   13SOL    HW1   38   0.046  -0.106  -2.672
   13SOL    HW2   39   0.111  -0.104  -2.522
   14SOL     OW   40  -0.666  -0.500  -0.009
   14SOL    HW1   41  -0.711  -0.519  -0.096
   14SOL    HW2   42  -0.713  -0.425   0.037
   15SOL     OW   43  -1.249   2.478  -1.642
   15SOL    HW1   44  -1.181   2.461  -1.571
   15SOL    HW2   45  -1.203   2.507  -1.726
   16SOL     OW   46   1.737   0.540  -0.751
   16SOL    HW1   47   1.660   0.585  -0.707
   16SOL    HW2   48   1.705   0.458  -0.799
   17SOL     OW   49   1.776  -0.736  -1.936
   17SOL    HW1   50   1.689  -0.726  -1.984
   17SOL    HW2   51   1.768  -0.694  -1.845
   18SOL     OW   52   1.324  -1.134  -1.276
   18SOL    HW1   53   1.291  -1.224  -1.249
   18SOL    HW2   54   1.409  -1.143  -1.328
   19SOL     OW   55  -0.838   0.284  -1.896
   19SOL    HW1   56  -0.820   0.345  -1.974
   19SOL    HW2   57  -0.909   0.218  -1.922
   20SOL     OW   58   1.473   2.204  -2.290
   20SOL    HW1   59   1.466   2.204  -2.389
   20SOL    HW2   60   1.560   2.164  -2.262
   21SOL     OW   61  -0.621  -0.962  -0.897
   21SOL    HW1   62  -0.546  -0.908  -0.859
   21SOL    HW2   63  -0.709  -0.924  -0.868
   22SOL     OW   64   2.159   1.280  -3.013
   22SOL    HW1   65   2.177   1.199  -2.956
   22SOL    HW2   66   2.077   1.264  -3.068
   23SOL     OW   67  -2.910   2.570  -2.300
   23SOL    HW1   68  -2.845   2.636  -2.338
   23SOL    HW2   69  -2.999   2.582  -2.344
   24SOL     OW   70   1.554  -0.488  -2.474
   24SOL    HW1   71   1.571  -0.518  -2.380
   24SOL    HW2   72   1.456  -0.472  -2.486
   25SOL     OW   73   1.257   1.336  -1.939
   25SOL    HW1   74   1.262   1.320  -1.841
   25SOL    HW2   75   1.224   1.253  -1.985
   26SOL     OW   76   1.853  -1.142  -1.370
   26SOL    HW1   77   1.754  -1.150  -1.384
   26SOL    HW2   78   1.884  -1.216  -1.311
   27SOL     OW   79   2.705   0.488  -1.625
   27SOL    HW1   80   2.732   0.584  -1.614
   27SOL    HW2   81   2.709   0.463  -1.722
   28SOL     OW   82   1.664   1.315  -1.482
   28SOL    HW1   83   1.653   1.370  -1.565
   28SOL    HW2   84   1.625   1.363  -1.404
   29SOL     OW   85   3.124   1.505  -2.934
   29SOL    HW1   86   3.207   1.503  -2.878
   29SOL    HW2   87   3.083   1.415  -2.936
   30SOL     OW   88  -1.129   1.399  -3.054
   30SOL    HW1   89  -1.055   1.390  -2.986
   30SOL    HW2   90  -1.199   1.330  -3.036
   31SOL     OW   91   2.640   0.895  -3.005
   31SOL    HW1   92   2.612   0.894  -3.101
   31SOL    HW2   93   2.564   0.927  -2.948
   32SOL     OW   94   1.547   0.688  -2.888
   32SOL    HW1   95   1.623   0.743  -2.851
   32SOL    HW2   96   1.556   0.593  -2.857
   33SOL     OW   97  -0.922   0.254  -0.738
   33SOL    HW1   98  -0.953   0.326  -0.800
   33SOL    HW2   99  -0.994   0.185  -0.728
   34SOL     OW  100   0.968  -0.943  -2.319
   34SOL    HW1  101   0.931  -0.851  -2.327
   34SOL    HW2  102   1.054  -0.941  -2.269
   35SOL     OW  103   1.525   1.367  -2.722
   35SOL    HW1  104   1.562   1.350  -2.631
   35SOL    HW2  105   1.536   1.464  -2.745
   36SOL     OW  106  -1.268   2.951  -2.401
   36SOL    HW1  107  -1.323   2.917  -2.477
   36SOL    HW2  108  -1.178   2.980  -2.434
   37SOL     OW  109   1.387   0.875  -0.983
   37SOL    HW1  110   1.300   0.869  -0.934
   37SOL    HW2  111   1.393   0.798  -1.047
   38SOL     OW  112  -1.109   2.551  -1.853
   38SOL    HW1  113  -1.165   2.592  -1.925
   38SOL    HW2  114  -1.040   2.616  -1.822
   39SOL     OW  115   2.467   1.141  -3.131
   39SOL    HW1  116   2.444   1.084  -3.051
   39SOL    HW2  117   2.382   1.175  -3.172
   40SOL     OW  118   0.861   0.461  -2.758
   40SOL    HW1  119   0.948   0.509  -2.770
   40SOL    HW2  120   0.785   0.520  -2.788
   41SOL     OW  121  -0.930   2.664  -0.959
   41SOL    HW1  122  -0.856   2.660  -1.026
   41SOL    HW2  123  -0.925   2.750  -0.909
   42SOL     OW  124   3.474   0.939  -2.712
   42SOL    HW1  125   3.503   0.880  -2.637
   42SOL    HW2  126   3.554   0.983  -2.753
   43SOL     OW  127   1.130   1.599  -1.352
   43SOL    HW1  128   1.122   1.687  -1.305
   43SOL    HW2  129   1.049   1.582  -1.407
   44SOL     OW  130   0.803   1.363  -2.426
   44SOL    HW1  131   0.773   1.298  -2.357
   44SOL    HW2  132   0.863   1.316  -2.491
   45SOL     OW  133  -1.113   0.200  -1.671
   45SOL    HW1  134  -1.187   0.240  -1.618
   45SOL    HW2  135  -1.072   0.124  -1.620
   46SOL     OW  136  -0.120   0.469  -0.295
   46SOL    HW1  137  -0.035   0.426  -0.263
   46SOL    HW2  138  -0.144   0.545  -0.235
   47SOL     OW  139  -2.120   2.199  -0.410
   47SOL    HW1  140  -2.158   2.167  -0.323
   47SOL    HW2  141  -2.104   2.121  -0.470
   48SOL     OW  142   0.067   1.527  -2.586
   48SOL    HW1  143  -0.018   1.522  -2.534
   48SOL    HW2  144   0.135   1.468  -2.544
   49SOL     OW  145  -1.390   0.335  -0.150
   49SOL    HW1  146  -1.404   0.358  -0.246
   49SOL    HW2  147  -1.399   0.236  -0.138
   50SOL     OW  148  -0.123   2.032  -2.099
   50SOL    HW1  149  -0.163   2.117  -2.066
   50SOL    HW2  150  -0.152   1.956  -2.042
   51SOL     OW  151  -1.029  -0.180  -0.954
   51SOL    HW1  152  -0.972  -0.175  -0.872
   51SOL    HW2  153  -1.125  -0.180  -0.929
   52SOL     OW  154   1.344  -1.735  -1.503
   52SOL    HW1  155   1.408  -1.734  -1.579
   52SOL    HW2  156   1.371  -1.805  -1.437
   53SOL     OW  157   2.795   0.693  -0.991
   53SOL    HW1  158   2.786   0.792  -0.987
   53SOL    HW2  159   2.746   0.658  -1.070
   54SOL     OW  160   0.781   1.285  -1.976
   54SOL    HW1  161   0.854   1.345  -1.943
   54SOL    HW2  162   0.792   1.270  -2.075
   55SOL     OW  163  -2.035   1.778  -2.270
   55SOL    HW1  164  -2.001   1.726  -2.192
   55SOL    HW2  165  -1.970   1.772  -2.345
   56SOL     OW  166   0.776   0.399  -3.041
   56SOL    HW1  167   0.790   0.307  -3.005
   56SOL    HW2  168   0.838   0.414  -3.118
   57SOL     OW  169   0.836   0.976  -0.541
   57SOL    HW1  170   0.921   0.937  -0.577
   57SOL    HW2  171   0.812   1.058  -0.593
   58SOL     OW  172   1.273   1.026  -2.957
   58SOL    HW1  173   1.193   1.063  -3.004
   58SOL    HW2  174   1.350   1.019  -3.021
   59SOL     OW  175   1.526   1.099  -1.052
   59SOL    HW1  176   1.475   1.017  -1.026
   59SOL    HW2  177   1.488   1.137  -1.136
   60SOL     OW  178  -0.283  -1.057  -1.209
   60SOL    HW1  179  -0.225  -1.067  -1.127
   60SOL    HW2  180  -0.309  -1.148  -1.242
   61SOL     OW  181  -0.262   0.387  -3.427
   61SOL    HW1  182  -0.308   0.345  -3.349
   61SOL    HW2  183  -0.321   0.379  -3.508
   62SOL     OW  184  -2.409   1.762  -0.220
   62SOL    HW1  185  -2.342   1.694  -0.192
   62SOL    HW2  186  -2.450   1.804  -0.139
   63SOL     OW  187  -0.049   1.341  -0.030
   63SOL    HW1  188  -0.120   1.355   0.039
   63SOL    HW2  189   0.031   1.397  -0.008
   64SOL     OW  190   0.884  -0.628  -0.651
   64SOL    HW1  191   0.885  -0.635  -0.551
   64SOL    HW2  192   0.958  -0.684  -0.689
   65SOL     OW  193  -0.937   0.454  -1.652
   65SOL    HW1  194  -0.906   0.400  -1.730
   65SOL    HW2  195  -0.944   0.396  -1.572
   66SOL     OW  196  -0.925   0.444  -3.032
   66SOL    HW1  197  -1.001   0.453  -3.096
   66SOL    HW2  198  -0.959   0.407  -2.945
   67SOL     OW  199   0.833   1.197  -0.731
   67SOL    HW1  200   0.909   1.159  -0.785
   67SOL    HW2  201   0.859   1.287  -0.696
   69SOL     OW  205   3.276   0.981  -1.623
   69SOL    HW1  206   3.269   0.886  -1.654
   69SOL    HW2  207   3.294   0.983  -1.524
   70SOL     OW  208   2.469   0.770  -2.454
   70SOL    HW1  209   2.527   0.798  -2.531
   70SOL    HW2  210   2.527   0.740  -2.378
   71SOL     OW  211   1.665  -0.927  -1.289
   71SOL    HW1  212   1.664  -1.021  -1.253
   71SOL    HW2  213   1.577  -0.907  -1.333
   72SOL     OW  214  -1.490   0.171  -0.762
   72SOL    HW1  215  -1.433   0.174  -0.844
   72SOL    HW2  216  -1.555   0.095  -0.770
   73SOL     OW  217   0.195   1.483  -2.814
   73SOL    HW1  218   0.274   1.541  -2.835
   73SOL    HW2  219   0.140   1.526  -2.743
   74SOL     OW  220   2.276   2.929  -2.013
   74SOL    HW1  221   2.279   2.853  -2.077
   74SOL    HW2  222   2.236   2.899  -1.927
   75SOL     OW  223   2.262  -0.221  -2.094
   75SOL    HW1  224   2.173  -0.234  -2.051
   75SOL    HW2  225   2.250  -0.212  -2.193
   76SOL     OW  226   1.501  -1.473  -1.949
   76SOL    HW1  227   1.517  -1.512  -2.040
   76SOL    HW2  228   1.444  -1.391  -1.958
   77SOL     OW  229   1.012   1.147  -3.112
   77SOL    HW1  230   0.979   1.080  -3.178
   77SOL    HW2  231   1.038   1.231  -3.160
   78SOL     OW  232   2.347   0.398  -2.006
   78SOL    HW1  233   2.327   0.326  -2.073
   78SOL    HW2  234   2.262   0.432  -1.967
   79SOL     OW  235   3.584   2.394  -1.799
   79SOL    HW1  236   3.502   2.379  -1.854
   79SOL    HW2  237   3.609   2.491  -1.801
   80SOL     OW  238  -0.685  -0.020  -0.161
   80SOL    HW1  239  -0.649  -0.087  -0.096
   80SOL    HW2  240  -0.744  -0.066  -0.227
   81SOL     OW  241   2.721   0.184  -1.582
   81SOL    HW1  242   2.716   0.283  -1.596
   81SOL    HW2  243   2.667   0.138  -1.652
   82SOL     OW  244  -3.135   1.687  -1.714
   82SOL    HW1  245  -3.188   1.746  -1.775
   82SOL    HW2  246  -3.041   1.720  -1.709
   83SOL     OW  247   2.867   1.765  -0.613
   83SOL    HW1  248   2.814   1.794  -0.693
   83SOL    HW2  249   2.821   1.795  -0.529
   84SOL     OW  250   0.364  -0.877  -0.935
   84SOL    HW1  251   0.330  -0.892  -0.843
   84SOL    HW2  252   0.397  -0.783  -0.944
   85SOL     OW  253  -2.183   2.053  -1.516
   85SOL    HW1  254  -2.238   2.060  -1.599
   85SOL    HW2  255  -2.088   2.031  -1.541
   86SOL     OW  256  -0.807  -0.928  -0.355
   86SOL    HW1  257  -0.854  -0.903  -0.270
   86SOL    HW2  258  -0.738  -0.998  -0.336
   87SOL     OW  259  -2.064   2.271  -1.038
   87SOL    HW1  260  -2.148   2.224  -1.066
   87SOL    HW2  261  -2.087   2.357  -0.993
   88SOL     OW  262   1.550   1.942  -0.926
   88SOL    HW1  263   1.584   1.998  -0.850
   88SOL    HW2  264   1.626   1.887  -0.963
   89SOL     OW  265  -1.616   2.078  -0.229
   89SOL    HW1  266  -1.701   2.091  -0.279
   89SOL    HW2  267  -1.540   2.067  -0.294
   90SOL     OW  268   0.158  -0.596  -2.456
   90SOL    HW1  269   0.189  -0.554  -2.541
   90SOL    HW2  270   0.110  -0.528  -2.400
   91SOL     OW  271   0.617   1.244  -0.867
   91SOL    HW1  272   0.701   1.225  -0.814
   91SOL    HW2  273   0.642   1.282  -0.956
   92SOL     OW  274  -4.136   2.988  -2.730
   92SOL    HW1  275  -4.065   2.922  -2.756
   92SOL    HW2  276  -4.095   3.067  -2.686
   93SOL     OW  277   1.700   2.083  -3.015
   93SOL    HW1  278   1.774   2.035  -2.968
   93SOL    HW2  279   1.736   2.165  -3.059
   94SOL     OW  280   2.124   1.488  -0.358
   94SOL    HW1  281   2.155   1.553  -0.288
   94SOL    HW2  282   2.150   1.522  -0.448
   95SOL     OW  283   2.151   2.656  -1.287
   95SOL    HW1  284   2.068   2.684  -1.335
   95SOL    HW2  285   2.226   2.716  -1.312
   96SOL     OW  286  -1.900   1.352  -2.289
   96SOL    HW1  287  -1.854   1.395  -2.367
   96SOL    HW2  288  -1.993   1.387  -2.282
   97SOL     OW  289   2.153   2.489  -1.073
   97SOL    HW1  290   2.197   2.541  -1.145
   97SOL    HW2  291   2.102   2.551  -1.014
   98SOL     OW  292   3.038   1.682  -0.807
   98SOL    HW1  293   2.971   1.712  -0.875
   98SOL    HW2  294   3.003   1.700  -0.715
   99SOL     OW  295  -0.206   1.662  -0.621
   99SOL    HW1  296  -0.226   1.758  -0.641
   99SOL    HW2  297  -0.133   1.656  -0.553
  100SOL     OW  298  -0.218  -1.192  -1.512
  100SOL    HW1  299  -0.305  -1.213  -1.558
  100SOL    HW2  300  -0.165  -1.275  -1.501
  102SOL     OW  304   2.516   0.659  -2.164
  102SOL    HW1  305   2.611   0.626  -2.156
  102SOL    HW2  306   2.453   0.584  -2.146
  103SOL     OW  307   1.022  -1.807  -1.621
  103SOL    HW1  308   1.042  -1.731  -1.683
  103SOL    HW2  309   1.101  -1.822  -1.561
  104SOL     OW  310   1.331   2.225  -2.067
  104SOL    HW1  311   1.384   2.217  -2.151
  104SOL    HW2  312   1.245   2.174  -2.077
  105SOL     OW  313   1.778  -1.089  -1.132
  105SOL    HW1  314   1.810  -0.997  -1.107
  105SOL    HW2  315   1.817  -1.155  -1.069
  106SOL     OW  316   2.566   0.894  -3.256
  106SOL    HW1  317   2.627   0.916  -3.332
  106SOL    HW2  318   2.488   0.840  -3.290
  107SOL     OW  319  -0.160   1.422  -0.314
  107SOL    HW1  320  -0.124   1.396  -0.224
  107SOL    HW2  321  -0.254   1.453  -0.305
  108SOL     OW  322   0.980   1.449  -1.887
  108SOL    HW1  323   1.071   1.411  -1.904
  108SOL    HW2  324   0.971   1.537  -1.934
  109SOL     OW  325   1.122   0.607  -2.796
  109SOL    HW1  326   1.110   0.703  -2.774
  109SOL    HW2  327   1.151   0.598  -2.891
  110SOL     OW  328   0.337   1.568  -0.646
  110SOL    HW1  329   0.396   1.503  -0.598
  110SOL    HW2  330   0.247   1.526  -0.661
  111SOL     OW  331  -2.006   3.198  -5.734
  111SOL    HW1  332  -2.069   3.154  -5.798
  111SOL    HW2  333  -1.955   3.128  -5.684
  112SOL     OW  334  -2.186   2.032  -4.752
  112SOL    HW1  335  -2.235   1.951  -4.721
  112SOL    HW2  336  -2.159   2.021  -4.847
  113SOL     OW  337  -1.285   2.514  -5.336
  113SOL    HW1  338  -1.359   2.528  -5.270
  113SOL    HW2  339  -1.303   2.431  -5.389
  114SOL     OW  340  -1.235   1.053  -6.276
  114SOL    HW1  341  -1.201   0.959  -6.276
  114SOL    HW2  342  -1.335   1.053  -6.282
  115SOL     OW  343  -0.658   1.969  -3.708
  115SOL    HW1  344  -0.582   2.006  -3.654
  115SOL    HW2  345  -0.626   1.947  -3.800
  116SOL     OW  346  -1.662   1.682  -3.451
  116SOL    HW1  347  -1.705   1.770  -3.430
  116SOL    HW2  348  -1.596   1.659  -3.379
  117SOL     OW  349   0.219   1.889  -3.146
  117SOL    HW1  350   0.227   1.933  -3.057
  117SOL    HW2  351   0.122   1.876  -3.168
  118SOL     OW  352  -0.416   3.793  -3.876
  118SOL    HW1  353  -0.485   3.853  -3.838
  118SOL    HW2  354  -0.451   3.749  -3.959
  119SOL     OW  355  -2.131   4.596  -4.489
  119SOL    HW1  356  -2.225   4.600  -4.456
  119SOL    HW2  357  -2.123   4.525  -4.559
  120SOL     OW  358  -2.915   3.783  -5.375
  120SOL    HW1  359  -2.822   3.800  -5.342
  120SOL    HW2  360  -2.913   3.764  -5.473
  121SOL     OW  361  -1.865   1.839  -6.411
  121SOL    HW1  362  -1.906   1.824  -6.321
  121SOL    HW2  363  -1.918   1.906  -6.462
  122SOL     OW  364  -0.313   3.535  -3.172
  122SOL    HW1  365  -0.227   3.579  -3.146
  122SOL    HW2  366  -0.303   3.436  -3.163
  123SOL     OW  367  -0.594   2.925  -3.107
  123SOL    HW1  368  -0.528   2.852  -3.089
  123SOL    HW2  369  -0.657   2.897  -3.180
  124SOL     OW  370  -1.359  -0.048  -3.602
  124SOL    HW1  371  -1.308   0.039  -3.605
  124SOL    HW2  372  -1.457  -0.029  -3.606
  125SOL     OW  373  -1.414   1.653  -4.816
  125SOL    HW1  374  -1.379   1.673  -4.908
  125SOL    HW2  375  -1.361   1.705  -4.749
  126SOL     OW  376  -0.681   0.292  -3.047
  126SOL    HW1  377  -0.667   0.348  -3.128
  126SOL    HW2  378  -0.779   0.273  -3.036
  127SOL     OW  379  -2.927   2.217  -4.109
  127SOL    HW1  380  -2.915   2.211  -4.010
  127SOL    HW2  381  -3.006   2.274  -4.130
  128SOL     OW  382  -2.191   0.696  -4.542
  128SOL    HW1  383  -2.241   0.739  -4.467
  128SOL    HW2  384  -2.101   0.739  -4.551
  129SOL     OW  385  -2.271   0.923  -5.295
  129SOL    HW1  386  -2.204   0.866  -5.248
  129SOL    HW2  387  -2.232   0.955  -5.382
  130SOL     OW  388  -2.007   0.644  -3.767
  130SOL    HW1  389  -1.910   0.623  -3.775
  130SOL    HW2  390  -2.050   0.584  -3.699
  131SOL     OW  391  -1.474   1.167  -4.364
  131SOL    HW1  392  -1.496   1.096  -4.431
  131SOL    HW2  393  -1.555   1.226  -4.351
  132SOL     OW  394  -0.421   2.734  -3.060
  132SOL    HW1  395  -0.333   2.766  -3.094
  132SOL    HW2  396  -0.419   2.634  -3.052
  133SOL     OW  397  -3.729   3.265  -3.971
  133SOL    HW1  398  -3.781   3.184  -4.001
  133SOL    HW2  399  -3.725   3.331  -4.046
  134SOL     OW  400  -1.416   1.302  -3.458
  134SOL    HW1  401  -1.417   1.235  -3.384
  134SOL    HW2  402  -1.322   1.328  -3.478
  135SOL     OW  403  -2.596   3.841  -5.264
  135SOL    HW1  404  -2.533   3.840  -5.342
  135SOL    HW2  405  -2.563   3.905  -5.195
  136SOL     OW  406  -2.063   2.367  -4.482
  136SOL    HW1  407  -2.154   2.361  -4.524
  136SOL    HW2  408  -2.064   2.435  -4.409
  137SOL     OW  409  -1.734   1.356  -4.018
  137SOL    HW1  410  -1.722   1.343  -4.116
  137SOL    HW2  411  -1.795   1.285  -3.983
  138SOL     OW  412  -1.808   4.301  -4.042
  138SOL    HW1  413  -1.711   4.281  -4.060
  138SOL    HW2  414  -1.865   4.258  -4.112
  139SOL     OW  415  -3.293   3.135  -5.473
  139SOL    HW1  416  -3.342   3.068  -5.417
  139SOL    HW2  417  -3.352   3.215  -5.490
  140SOL     OW  418  -0.143   1.914  -6.063
  140SOL    HW1  419  -0.089   1.844  -6.109
  140SOL    HW2  420  -0.084   1.990  -6.038
  141SOL     OW  421  -1.683   4.243  -5.023
  141SOL    HW1  422  -1.586   4.239  -4.998
  141SOL    HW2  423  -1.691   4.257  -5.122
  142SOL     OW  424  -0.854   0.841  -3.313
  142SOL    HW1  425  -0.818   0.856  -3.405
  142SOL    HW2  426  -0.938   0.895  -3.301
  143SOL     OW  427  -1.342   2.594  -4.584
  143SOL    HW1  428  -1.356   2.534  -4.505
  143SOL    HW2  429  -1.420   2.656  -4.593
  144SOL     OW  430  -0.711   0.267  -3.749
  144SOL    HW1  431  -0.619   0.303  -3.737
  144SOL    HW2  432  -0.708   0.167  -3.748
  145SOL     OW  433  -1.696   1.711  -4.742
  145SOL    HW1  434  -1.734   1.768  -4.668
  145SOL    HW2  435  -1.662   1.770  -4.815
  146SOL     OW  436  -0.469   2.432  -4.965
  146SOL    HW1  437  -0.530   2.472  -4.896
  146SOL    HW2  438  -0.377   2.471  -4.954
  147SOL     OW  439  -3.629   3.342  -5.440
  147SOL    HW1  440  -3.638   3.426  -5.386
  147SOL    HW2  441  -3.706   3.335  -5.503
  148SOL     OW  442  -1.059   2.558  -5.506
  148SOL    HW1  443  -1.138   2.542  -5.447
  148SOL    HW2  444  -0.976   2.563  -5.451
  149SOL     OW  445  -3.026   3.120  -3.851
  149SOL    HW1  446  -3.001   3.024  -3.837
  149SOL    HW2  447  -3.116   3.125  -3.894
  150SOL     OW  448  -0.564   0.571  -3.960
  150SOL    HW1  449  -0.502   0.646  -3.935
  150SOL    HW2  450  -0.646   0.609  -4.003
  151SOL     OW  451  -3.003   1.926  -3.990
  151SOL    HW1  452  -2.942   1.848  -3.974
  151SOL    HW2  453  -2.951   2.002  -4.027
  152SOL     OW  454  -3.262   2.171  -3.483
  152SOL    HW1  455  -3.212   2.148  -3.400
  152SOL    HW2  456  -3.313   2.091  -3.515
  153SOL     OW  457  -0.591   1.369  -4.167
  153SOL    HW1  458  -0.560   1.423  -4.088
  153SOL    HW2  459  -0.550   1.278  -4.163
  154SOL     OW  460  -0.523   1.480  -4.370
  154SOL    HW1  461  -0.594   1.417  -4.403
  154SOL    HW2  462  -0.562   1.541  -4.301
  155SOL     OW  463  -2.473   1.534  -2.848
  155SOL    HW1  464  -2.490   1.630  -2.823
  155SOL    HW2  465  -2.391   1.502  -2.801
  156SOL     OW  466  -0.852   1.739  -3.576
  156SOL    HW1  467  -0.793   1.809  -3.616
  156SOL    HW2  468  -0.924   1.783  -3.522
  157SOL     OW  469  -2.518   0.386  -4.529
  157SOL    HW1  470  -2.603   0.412  -4.483
  157SOL    HW2  471  -2.455   0.346  -4.463
  158SOL     OW  472  -4.406   2.380  -4.040
  158SOL    HW1  473  -4.503   2.359  -4.051
  158SOL    HW2  474  -4.375   2.437  -4.116
  159SOL     OW  475  -2.083   2.233  -6.874
  159SOL    HW1  476  -2.138   2.198  -6.950
  159SOL    HW2  477  -1.987   2.205  -6.888
  160SOL     OW  478  -2.799   1.918  -2.331
  160SOL    HW1  479  -2.706   1.953  -2.341
  160SOL    HW2  480  -2.857   1.989  -2.291
  161SOL     OW  481  -2.206   1.315  -6.170
  161SOL    HW1  482  -2.157   1.338  -6.086
  161SOL    HW2  483  -2.153   1.249  -6.223
  162SOL     OW  484  -2.947   1.975  -5.038
  162SOL    HW1  485  -2.969   2.060  -5.085
  162SOL    HW2  486  -2.929   1.903  -5.106
  163SOL     OW  487  -2.484   4.135  -4.154
  163SOL    HW1  488  -2.409   4.202  -4.156
  163SOL    HW2  489  -2.505   4.111  -4.059
  164SOL     OW  490  -0.247   2.668  -3.824
  164SOL    HW1  491  -0.166   2.723  -3.805
  164SOL    HW2  492  -0.230   2.573  -3.797
  165SOL     OW  493  -0.893   0.760  -4.416
  165SOL    HW1  494  -0.977   0.743  -4.364
  165SOL    HW2  495  -0.839   0.831  -4.371
  166SOL     OW  496  -1.153   2.451  -4.750
  166SOL    HW1  497  -1.219   2.500  -4.693
  166SOL    HW2  498  -1.071   2.506  -4.763
  167SOL     OW  499  -1.906   0.489  -4.662
  167SOL    HW1  500  -1.920   0.586  -4.640
  167SOL    HW2  501  -1.878   0.481  -4.758
  168SOL     OW  502  -0.301   0.524  -4.685
  168SOL    HW1  503  -0.356   0.557  -4.763
  168SOL    HW2  504  -0.361   0.511  -4.606
  169SOL     OW  505  -0.688   1.057  -4.275
  169SOL    HW1  506  -0.700   1.136  -4.335
  169SOL    HW2  507  -0.591   1.042  -4.259
  170SOL     OW  508  -0.252   2.100  -4.385
  170SOL    HW1  509  -0.271   2.007  -4.416
  170SOL    HW2  510  -0.186   2.097  -4.310
  171SOL     OW  511  -0.396   0.262  -3.198
  171SOL    HW1  512  -0.482   0.306  -3.225
  171SOL    HW2  513  -0.408   0.216  -3.110
  172SOL     OW  514  -0.200   0.246  -6.615
  172SOL    HW1  515  -0.228   0.282  -6.704
  172SOL    HW2  516  -0.115   0.291  -6.587
  173SOL     OW  517  -0.720   3.912  -2.698
  173SOL    HW1  518  -0.700   4.006  -2.671
  173SOL    HW2  519  -0.634   3.865  -2.720
  174SOL     OW  520  -3.630   3.769  -4.408
  174SOL    HW1  521  -3.587   3.684  -4.440
  174SOL    HW2  522  -3.617   3.840  -4.476
  175SOL     OW  523  -2.330   0.484  -4.097
  175SOL    HW1  524  -2.274   0.562  -4.067
  175SOL    HW2  525  -2.277   0.427  -4.159
  176SOL     OW  526  -0.680   0.683  -6.447
  176SOL    HW1  527  -0.681   0.778  -6.418
  176SOL    HW2  528  -0.717   0.626  -6.374
  177SOL     OW  529  -0.870   2.674  -5.162
  177SOL    HW1  530  -0.928   2.681  -5.243
  177SOL    HW2  531  -0.797   2.742  -5.167
  178SOL     OW  532  -2.336   1.749  -5.165
  178SOL    HW1  533  -2.308   1.686  -5.237
  178SOL    HW2  534  -2.336   1.843  -5.200
  179SOL     OW  535  -0.533   0.345  -4.085
  179SOL    HW1  536  -0.545   0.432  -4.037
  179SOL    HW2  537  -0.476   0.284  -4.030
  180SOL     OW  538  -2.858   1.729  -2.524
  180SOL    HW1  539  -2.837   1.797  -2.454
  180SOL    HW2  540  -2.925   1.766  -2.588
    7.9497    7.9497    7.9497
