; ITP file created by ByteFF-joint-25, 2025-07-14 11:28:56.373383

[ atomtypes ]
;name           bonded.type        at.num        mass        charge   ptype           sigma         epsilon
 f0bf                                   9      0.0000       0.00000       A     3.03460e-01     3.48159e-01    ;  uncertainty sigma = 0.000009, epsilon = 0.001180
 c1bf                                   6      0.0000       0.00000       A     3.31524e-01     4.13420e-01    ;  uncertainty sigma = 0.000010, epsilon = 0.000431
 c2bf                                   6      0.0000       0.00000       A     3.31557e-01     4.13180e-01    ;  uncertainty sigma = 0.000013, epsilon = 0.000992
 n3bf                                   7      0.0000       0.00000       A     3.26938e-01     4.90358e-01    ;  uncertainty sigma = 0.000022, epsilon = 0.001866
 c4bf                                   6      0.0000       0.00000       A     3.31417e-01     4.11960e-01    ;  uncertainty sigma = 0.000092, epsilon = 0.001610
 o5bf                                   8      0.0000       0.00000       A     3.04768e-01     6.12506e-01    ;  uncertainty sigma = 0.000026, epsilon = 0.002291
 n6bf                                   7      0.0000       0.00000       A     3.26911e-01     4.90562e-01    ;  uncertainty sigma = 0.000022, epsilon = 0.003078
 c7bf                                   6      0.0000       0.00000       A     3.31550e-01     4.12934e-01    ;  uncertainty sigma = 0.000036, epsilon = 0.001226
 c8bf                                   6      0.0000       0.00000       A     3.31577e-01     4.13277e-01    ;  uncertainty sigma = 0.000020, epsilon = 0.000425
 o9bf                                   8      0.0000       0.00000       A     3.15742e-01     3.04478e-01    ;  uncertainty sigma = 0.000034, epsilon = 0.001935
 c10bf                                  6      0.0000       0.00000       A     3.31523e-01     4.13558e-01    ;  uncertainty sigma = 0.000013, epsilon = 0.000652
 c11bf                                  6      0.0000       0.00000       A     3.31520e-01     4.13203e-01    ;  uncertainty sigma = 0.000004, epsilon = 0.000719
 c12bf                                  6      0.0000       0.00000       A     3.31526e-01     4.13604e-01    ;  uncertainty sigma = 0.000013, epsilon = 0.000997
 c13bf                                  6      0.0000       0.00000       A     3.39780e-01     4.51205e-01    ;  uncertainty sigma = 0.000015, epsilon = 0.000821
 c14bf                                  6      0.0000       0.00000       A     3.39771e-01     4.50889e-01    ;  uncertainty sigma = 0.000007, epsilon = 0.000480
 c15bf                                  6      0.0000       0.00000       A     3.39771e-01     4.50889e-01    ;  uncertainty sigma = 0.000007, epsilon = 0.000480
 c16bf                                  6      0.0000       0.00000       A     3.39771e-01     4.50889e-01    ;  uncertainty sigma = 0.000007, epsilon = 0.000480
 c17bf                                  6      0.0000       0.00000       A     3.31524e-01     4.13420e-01    ;  uncertainty sigma = 0.000005, epsilon = 0.000583
 c18bf                                  6      0.0000       0.00000       A     3.31522e-01     4.13508e-01    ;  uncertainty sigma = 0.000003, epsilon = 0.000524
 c19bf                                  6      0.0000       0.00000       A     3.31516e-01     4.13581e-01    ;  uncertainty sigma = 0.000006, epsilon = 0.000572
 n20bf                                  7      0.0000       0.00000       A     3.38387e-01     3.93418e-01    ;  uncertainty sigma = 0.000011, epsilon = 0.000773
 c21bf                                  6      0.0000       0.00000       A     3.31528e-01     4.13303e-01    ;  uncertainty sigma = 0.000012, epsilon = 0.000565
 c22bf                                  6      0.0000       0.00000       A     3.31519e-01     4.13136e-01    ;  uncertainty sigma = 0.000006, epsilon = 0.000735
 c23bf                                  6      0.0000       0.00000       A     3.31539e-01     4.13381e-01    ;  uncertainty sigma = 0.000004, epsilon = 0.001208
 c24bf                                  6      0.0000       0.00000       A     3.31514e-01     4.13398e-01    ;  uncertainty sigma = 0.000007, epsilon = 0.000800
 c25bf                                  6      0.0000       0.00000       A     3.31520e-01     4.13283e-01    ;  uncertainty sigma = 0.000005, epsilon = 0.000612
 c26bf                                  6      0.0000       0.00000       A     3.31522e-01     4.13330e-01    ;  uncertainty sigma = 0.000006, epsilon = 0.000632
 f27bf                                  9      0.0000       0.00000       A     3.03426e-01     3.47978e-01    ;  uncertainty sigma = 0.000008, epsilon = 0.000768
 c28bf                                  6      0.0000       0.00000       A     3.31518e-01     4.13223e-01    ;  uncertainty sigma = 0.000007, epsilon = 0.000597
 h29bf                                  1      0.0000       0.00000       A     1.10684e-01     4.18805e-02    ;  uncertainty sigma = 0.000084, epsilon = 0.000945
 h30bf                                  1      0.0000       0.00000       A     1.10682e-01     4.19025e-02    ;  uncertainty sigma = 0.000080, epsilon = 0.001074
 h31bf                                  1      0.0000       0.00000       A     2.62542e-01     6.70842e-02    ;  uncertainty sigma = 0.000009, epsilon = 0.000604
 h32bf                                  1      0.0000       0.00000       A     2.60023e-01     8.66594e-02    ;  uncertainty sigma = 0.000006, epsilon = 0.000286
 h33bf                                  1      0.0000       0.00000       A     2.60023e-01     8.66594e-02    ;  uncertainty sigma = 0.000006, epsilon = 0.000286
 h34bf                                  1      0.0000       0.00000       A     2.60023e-01     8.66594e-02    ;  uncertainty sigma = 0.000006, epsilon = 0.000286
 h35bf                                  1      0.0000       0.00000       A     2.60023e-01     8.66594e-02    ;  uncertainty sigma = 0.000006, epsilon = 0.000286
 h36bf                                  1      0.0000       0.00000       A     2.60023e-01     8.66594e-02    ;  uncertainty sigma = 0.000006, epsilon = 0.000286
 h37bf                                  1      0.0000       0.00000       A     2.60023e-01     8.66594e-02    ;  uncertainty sigma = 0.000006, epsilon = 0.000286
 h38bf                                  1      0.0000       0.00000       A     2.60023e-01     8.66594e-02    ;  uncertainty sigma = 0.000006, epsilon = 0.000286
 h39bf                                  1      0.0000       0.00000       A     2.60023e-01     8.66594e-02    ;  uncertainty sigma = 0.000006, epsilon = 0.000286
 h40bf                                  1      0.0000       0.00000       A     2.60023e-01     8.66594e-02    ;  uncertainty sigma = 0.000006, epsilon = 0.000286
 h41bf                                  1      0.0000       0.00000       A     2.62552e-01     6.70773e-02    ;  uncertainty sigma = 0.000008, epsilon = 0.000533
 h42bf                                  1      0.0000       0.00000       A     2.62568e-01     6.69722e-02    ;  uncertainty sigma = 0.000010, epsilon = 0.000464
 h43bf                                  1      0.0000       0.00000       A     2.62561e-01     6.71298e-02    ;  uncertainty sigma = 0.000006, epsilon = 0.000455
 h44bf                                  1      0.0000       0.00000       A     2.53636e-01     6.70246e-02    ;  uncertainty sigma = 0.000013, epsilon = 0.000470
 h45bf                                  1      0.0000       0.00000       A     2.62567e-01     6.71100e-02    ;  uncertainty sigma = 0.000011, epsilon = 0.000575
 h46bf                                  1      0.0000       0.00000       A     2.62550e-01     6.71051e-02    ;  uncertainty sigma = 0.000018, epsilon = 0.000451
 h47bf                                  1      0.0000       0.00000       A     2.62556e-01     6.69781e-02    ;  uncertainty sigma = 0.000014, epsilon = 0.000427
 h48bf                                  1      0.0000       0.00000       A     2.62565e-01     6.70529e-02    ;  uncertainty sigma = 0.000013, epsilon = 0.000444
 h49bf                                  1      0.0000       0.00000       A     2.62561e-01     6.73633e-02    ;  uncertainty sigma = 0.000010, epsilon = 0.000362

[ moleculetype ]
;name             nrexcl
 MOL                   3

[ atoms ]
;       nr            type      resi   res      atom      cgnr      charge          mass ; qtot
         1            f0bf         1   UNL        f0         1    -0.14472       18.9980 ; qtot   -0.145
         2            c1bf         1   UNL        c1         2     0.11068       12.0110 ; qtot   -0.034
         3            c2bf         1   UNL        c2         3     0.03080       12.0110 ; qtot   -0.003
         4            n3bf         1   UNL        n3         4    -0.47988       14.0070 ; qtot   -0.483
         5            c4bf         1   UNL        c4         5     0.79837       12.0110 ; qtot    0.315
         6            o5bf         1   UNL        o5         6    -0.59331       15.9990 ; qtot   -0.278
         7            n6bf         1   UNL        n6         7    -0.47318       14.0070 ; qtot   -0.751
         8            c7bf         1   UNL        c7         8    -0.04576       12.0110 ; qtot   -0.797
         9            c8bf         1   UNL        c8         9     0.59681       12.0110 ; qtot   -0.200
        10            o9bf         1   UNL        o9        10    -0.39272       15.9990 ; qtot   -0.593
        11           c10bf         1   UNL       c10        11     0.11561       12.0110 ; qtot   -0.477
        12           c11bf         1   UNL       c11        12    -0.13893       12.0110 ; qtot   -0.616
        13           c12bf         1   UNL       c12        13    -0.04763       12.0110 ; qtot   -0.664
        14           c13bf         1   UNL       c13        14    -0.00242       12.0110 ; qtot   -0.666
        15           c14bf         1   UNL       c14        15    -0.08505       12.0110 ; qtot   -0.751
        16           c15bf         1   UNL       c15        16    -0.08505       12.0110 ; qtot   -0.836
        17           c16bf         1   UNL       c16        17    -0.08505       12.0110 ; qtot   -0.921
        18           c17bf         1   UNL       c17        18    -0.15049       12.0110 ; qtot   -1.072
        19           c18bf         1   UNL       c18        19    -0.10598       12.0110 ; qtot   -1.178
        20           c19bf         1   UNL       c19        20    -0.13677       12.0110 ; qtot   -1.315
        21           n20bf         1   UNL       n20        21    -0.69921       14.0070 ; qtot   -2.014
        22           c21bf         1   UNL       c21        22     0.39652       12.0110 ; qtot   -1.617
        23           c22bf         1   UNL       c22        23    -0.24092       12.0110 ; qtot   -1.858
        24           c23bf         1   UNL       c23        24    -0.10097       12.0110 ; qtot   -1.959
        25           c24bf         1   UNL       c24        25    -0.10855       12.0110 ; qtot   -2.068
        26           c25bf         1   UNL       c25        26    -0.15340       12.0110 ; qtot   -2.221
        27           c26bf         1   UNL       c26        27     0.12944       12.0110 ; qtot   -2.092
        28           f27bf         1   UNL       f27        28    -0.13815       18.9980 ; qtot   -2.230
        29           c28bf         1   UNL       c28        29    -0.17866       12.0110 ; qtot   -2.409
        30           h29bf         1   UNL       h29        30     0.33387        1.0080 ; qtot   -2.075
        31           h30bf         1   UNL       h30        31     0.34303        1.0080 ; qtot   -1.732
        32           h31bf         1   UNL       h31        32     0.14933        1.0080 ; qtot   -1.582
        33           h32bf         1   UNL       h32        33     0.03596        1.0080 ; qtot   -1.546
        34           h33bf         1   UNL       h33        34     0.03596        1.0080 ; qtot   -1.510
        35           h34bf         1   UNL       h34        35     0.03596        1.0080 ; qtot   -1.474
        36           h35bf         1   UNL       h35        36     0.03596        1.0080 ; qtot   -1.438
        37           h36bf         1   UNL       h36        37     0.03596        1.0080 ; qtot   -1.403
        38           h37bf         1   UNL       h37        38     0.03596        1.0080 ; qtot   -1.367
        39           h38bf         1   UNL       h38        39     0.03596        1.0080 ; qtot   -1.331
        40           h39bf         1   UNL       h39        40     0.03596        1.0080 ; qtot   -1.295
        41           h40bf         1   UNL       h40        41     0.03596        1.0080 ; qtot   -1.259
        42           h41bf         1   UNL       h41        42     0.13372        1.0080 ; qtot   -1.125
        43           h42bf         1   UNL       h42        43     0.13475        1.0080 ; qtot   -0.990
        44           h43bf         1   UNL       h43        44     0.15133        1.0080 ; qtot   -0.839
        45           h44bf         1   UNL       h44        45     0.02625        1.0080 ; qtot   -0.813
        46           h45bf         1   UNL       h45        46     0.14569        1.0080 ; qtot   -0.667
        47           h46bf         1   UNL       h46        47     0.17117        1.0080 ; qtot   -0.496
        48           h47bf         1   UNL       h47        48     0.16909        1.0080 ; qtot   -0.327
        49           h48bf         1   UNL       h48        49     0.15700        1.0080 ; qtot   -0.170
        50           h49bf         1   UNL       h49        50     0.16970        1.0080 ; qtot    0.000

[ bonds ]
;       ai        aj funct               r               k
         1         2     1        0.135857   334360.973779    ;  uncertainty r = 0.000090, k = 8.876630
         2         3     1        0.139859   349911.260254    ;  uncertainty r = 0.000046, k = 8.933353
         2        29     1        0.138599   357518.994971    ;  uncertainty r = 0.000038, k = 2.940033
         3         4     1        0.140639   329349.443750    ;  uncertainty r = 0.000086, k = 8.036030
         3        25     1        0.140083   346869.177637    ;  uncertainty r = 0.000051, k = 3.021711
         4         5     1        0.140076   385416.141846    ;  uncertainty r = 0.000128, k = 16.618009
         4        30     1        0.101809   421827.616357    ;  uncertainty r = 0.000091, k = 3.454377
         5         6     1        0.124129   777655.543945    ;  uncertainty r = 0.000120, k = 11.115175
         5         7     1        0.139803   380073.242285    ;  uncertainty r = 0.000194, k = 13.935161
         7         8     1        0.140096   339046.216162    ;  uncertainty r = 0.000118, k = 8.055134
         7        31     1        0.101870   417728.195264    ;  uncertainty r = 0.000093, k = 3.473106
         8         9     1        0.140110   355790.847705    ;  uncertainty r = 0.000180, k = 18.434716
         8        24     1        0.139587   350172.658105    ;  uncertainty r = 0.000051, k = 12.669227
         9        10     1        0.137456   295567.576465    ;  uncertainty r = 0.000121, k = 7.043869
         9        21     1        0.131673   342519.850391    ;  uncertainty r = 0.000195, k = 23.816176
        10        11     1        0.139065   313292.807471    ;  uncertainty r = 0.000086, k = 11.143109
        11        12     1        0.139297   350411.634375    ;  uncertainty r = 0.000044, k = 3.483410
        11        20     1        0.139143   357814.203955    ;  uncertainty r = 0.000048, k = 3.465270
        12        13     1        0.139659   344159.664795    ;  uncertainty r = 0.000058, k = 3.355921
        12        32     1        0.108803   336172.933838    ;  uncertainty r = 0.000023, k = 1.480499
        13        14     1        0.151846   210983.371265    ;  uncertainty r = 0.000089, k = 3.609640
        13        18     1        0.139955   343871.836035    ;  uncertainty r = 0.000067, k = 5.210806
        14        15     1        0.153650   198550.693408    ;  uncertainty r = 0.000044, k = 2.818159
        14        16     1        0.153650   198550.693408    ;  uncertainty r = 0.000044, k = 2.818159
        14        17     1        0.153650   198550.693408    ;  uncertainty r = 0.000044, k = 2.818159
        15        33     1        0.109659   308688.670947    ;  uncertainty r = 0.000022, k = 1.388433
        15        34     1        0.109659   308688.670947    ;  uncertainty r = 0.000022, k = 1.388433
        15        35     1        0.109659   308688.670947    ;  uncertainty r = 0.000022, k = 1.388433
        16        36     1        0.109659   308688.670947    ;  uncertainty r = 0.000022, k = 1.388433
        16        37     1        0.109659   308688.670947    ;  uncertainty r = 0.000022, k = 1.388433
        16        38     1        0.109659   308688.670947    ;  uncertainty r = 0.000022, k = 1.388433
        17        39     1        0.109659   308688.670947    ;  uncertainty r = 0.000022, k = 1.388433
        17        40     1        0.109659   308688.645410    ;  uncertainty r = 0.000022, k = 1.388433
        17        41     1        0.109659   308688.645410    ;  uncertainty r = 0.000022, k = 1.388433
        18        19     1        0.139712   367425.401514    ;  uncertainty r = 0.000011, k = 3.169780
        18        42     1        0.108773   335266.008936    ;  uncertainty r = 0.000021, k = 0.628921
        19        20     1        0.139282   372996.296387    ;  uncertainty r = 0.000027, k = 2.566977
        19        43     1        0.108789   332612.933105    ;  uncertainty r = 0.000018, k = 1.360467
        20        44     1        0.108795   335979.132715    ;  uncertainty r = 0.000019, k = 0.979490
        21        22     1        0.134174   386160.574121    ;  uncertainty r = 0.000069, k = 8.080806
        22        23     1        0.139039   373281.443750    ;  uncertainty r = 0.000047, k = 3.782626
        22        45     1        0.108937   336014.271777    ;  uncertainty r = 0.000016, k = 1.810751
        23        24     1        0.139560   376722.211719    ;  uncertainty r = 0.000043, k = 3.130764
        23        46     1        0.108806   337266.713770    ;  uncertainty r = 0.000012, k = 1.595174
        24        47     1        0.108477   334523.798389    ;  uncertainty r = 0.000051, k = 3.409764
        25        26     1        0.139338   371403.623486    ;  uncertainty r = 0.000031, k = 3.843556
        25        48     1        0.108476   335060.920410    ;  uncertainty r = 0.000026, k = 2.768318
        26        27     1        0.138862   363011.516455    ;  uncertainty r = 0.000029, k = 2.336414
        26        49     1        0.108740   336001.503223    ;  uncertainty r = 0.000018, k = 0.523196
        27        28     1        0.135460   342172.954297    ;  uncertainty r = 0.000027, k = 2.855746
        27        29     1        0.139027   367718.158936    ;  uncertainty r = 0.000039, k = 3.694807
        29        50     1        0.108776   338895.087549    ;  uncertainty r = 0.000015, k = 1.055108

[ angles ]
;       ai        aj        ak funct           theta             cth
         1         2         3     1      116.736191      467.720234    ;  uncertainty theta = 0.002974, k = 0.264124
         1         2        29     1      118.820847      531.086996    ;  uncertainty theta = 0.003627, k = 0.147570
         2         3         4     1      118.279419      529.118691    ;  uncertainty theta = 0.005041, k = 0.171309
         2         3        25     1      118.396774      360.750901    ;  uncertainty theta = 0.003932, k = 0.276952
         2        29        27     1      117.741173      453.839028    ;  uncertainty theta = 0.003901, k = 0.186862
         2        29        50     1      120.903954      271.854691    ;  uncertainty theta = 0.002836, k = 0.102662
         3         2        29     1      125.011475      355.194824    ;  uncertainty theta = 0.004666, k = 0.262239
         3         4         5     1      118.193810      381.929496    ;  uncertainty theta = 0.004842, k = 0.193416
         3         4        30     1      115.198143      310.153492    ;  uncertainty theta = 0.004351, k = 0.269571
         3        25        26     1      121.337143      511.202047    ;  uncertainty theta = 0.001573, k = 0.067381
         3        25        48     1      117.573708      261.445398    ;  uncertainty theta = 0.003375, k = 0.111123
         4         3        25     1      121.619789      495.938772    ;  uncertainty theta = 0.004320, k = 0.152847
         4         5         6     1      125.502602      724.225591    ;  uncertainty theta = 0.004432, k = 0.123613
         4         5         7     1      111.558266      574.708177    ;  uncertainty theta = 0.009111, k = 0.253121
         5         4        30     1      117.312866      317.781140    ;  uncertainty theta = 0.005441, k = 0.191736
         5         7         8     1      118.047020      383.931893    ;  uncertainty theta = 0.006145, k = 0.348845
         5         7        31     1      117.989967      329.422646    ;  uncertainty theta = 0.006582, k = 0.171883
         6         5         7     1      125.348587      731.379046    ;  uncertainty theta = 0.005732, k = 0.126464
         7         8         9     1      117.092575      491.278569    ;  uncertainty theta = 0.007126, k = 0.229131
         7         8        24     1      122.491959      468.987673    ;  uncertainty theta = 0.005717, k = 0.226574
         8         7        31     1      114.704041      335.957688    ;  uncertainty theta = 0.005639, k = 0.195191
         8         9        10     1      116.530540      390.693960    ;  uncertainty theta = 0.012172, k = 0.316589
         8         9        21     1      125.653397      515.566722    ;  uncertainty theta = 0.002376, k = 0.153093
         8        24        23     1      118.664589      535.632314    ;  uncertainty theta = 0.002867, k = 0.172990
         8        24        47     1      117.850075      264.486868    ;  uncertainty theta = 0.003879, k = 0.116474
         9         8        24     1      117.575417      353.893836    ;  uncertainty theta = 0.008911, k = 0.132789
         9        10        11     1      113.226913      473.719508    ;  uncertainty theta = 0.007773, k = 0.204177
         9        21        22     1      118.982071      388.605918    ;  uncertainty theta = 0.003083, k = 0.211257
        10         9        21     1      116.747131      568.431731    ;  uncertainty theta = 0.007457, k = 0.117546
        10        11        12     1      119.561684      406.940765    ;  uncertainty theta = 0.001455, k = 0.062036
        10        11        20     1      120.214981      420.021670    ;  uncertainty theta = 0.000871, k = 0.108588
        11        12        13     1      120.579544      504.311848    ;  uncertainty theta = 0.003581, k = 0.061815
        11        12        32     1      119.609207      284.426802    ;  uncertainty theta = 0.002542, k = 0.052640
        11        20        19     1      116.859482      509.184871    ;  uncertainty theta = 0.001212, k = 0.092658
        11        20        44     1      120.559387      277.763244    ;  uncertainty theta = 0.001308, k = 0.060472
        12        11        20     1      122.347862      363.957468    ;  uncertainty theta = 0.003127, k = 0.100723
        12        13        14     1      119.056358      385.421952    ;  uncertainty theta = 0.005917, k = 0.084194
        12        13        18     1      120.554733      447.030228    ;  uncertainty theta = 0.002341, k = 0.178355
        13        12        32     1      119.493912      262.064322    ;  uncertainty theta = 0.002049, k = 0.078386
        13        14        15     1      108.132423      550.587612    ;  uncertainty theta = 0.002397, k = 0.095917
        13        14        16     1      108.132423      550.587612    ;  uncertainty theta = 0.002397, k = 0.095917
        13        14        17     1      108.132423      550.587612    ;  uncertainty theta = 0.002397, k = 0.095917
        13        18        19     1      120.823044      518.752157    ;  uncertainty theta = 0.001233, k = 0.099161
        13        18        42     1      118.277420      265.707462    ;  uncertainty theta = 0.003002, k = 0.105242
        14        13        18     1      120.091270      384.461533    ;  uncertainty theta = 0.005084, k = 0.171944
        14        15        33     1      107.705872      383.910697    ;  uncertainty theta = 0.000896, k = 0.041003
        14        15        34     1      107.705872      383.910697    ;  uncertainty theta = 0.000896, k = 0.041003
        14        15        35     1      107.705872      383.910697    ;  uncertainty theta = 0.000896, k = 0.041003
        14        16        36     1      107.705872      383.910697    ;  uncertainty theta = 0.000896, k = 0.041003
        14        16        37     1      107.705872      383.910697    ;  uncertainty theta = 0.000896, k = 0.041003
        14        16        38     1      107.705872      383.910697    ;  uncertainty theta = 0.000896, k = 0.041003
        14        17        39     1      107.705872      383.910697    ;  uncertainty theta = 0.000896, k = 0.041003
        14        17        40     1      107.705872      383.910697    ;  uncertainty theta = 0.000896, k = 0.041003
        14        17        41     1      107.705872      383.910697    ;  uncertainty theta = 0.000896, k = 0.041003
        15        14        16     1      108.457153      576.929076    ;  uncertainty theta = 0.002783, k = 0.058766
        15        14        17     1      108.457153      576.929076    ;  uncertainty theta = 0.002783, k = 0.058766
        16        14        17     1      108.457153      576.929076    ;  uncertainty theta = 0.002783, k = 0.058766
        18        19        20     1      120.771912      501.266994    ;  uncertainty theta = 0.002136, k = 0.080594
        18        19        43     1      120.344498      281.898053    ;  uncertainty theta = 0.000859, k = 0.030671
        19        18        42     1      119.737587      295.908765    ;  uncertainty theta = 0.002635, k = 0.032396
        19        20        44     1      121.715652      290.644130    ;  uncertainty theta = 0.001782, k = 0.024447
        20        19        43     1      119.874832      283.926370    ;  uncertainty theta = 0.001473, k = 0.033169
        21        22        23     1      122.018661      680.497696    ;  uncertainty theta = 0.002657, k = 0.057695
        21        22        45     1      116.528885      326.284582    ;  uncertainty theta = 0.003532, k = 0.089660
        22        23        24     1      116.662033      486.639338    ;  uncertainty theta = 0.002659, k = 0.164042
        22        23        46     1      121.531288      284.776501    ;  uncertainty theta = 0.000829, k = 0.071895
        23        22        45     1      121.479820      279.479466    ;  uncertainty theta = 0.001106, k = 0.075570
        23        24        47     1      121.491959      306.835200    ;  uncertainty theta = 0.004314, k = 0.137900
        24        23        46     1      121.692772      278.904338    ;  uncertainty theta = 0.003629, k = 0.116071
        25        26        27     1      118.285049      484.279294    ;  uncertainty theta = 0.001768, k = 0.055731
        25        26        49     1      121.279213      274.103266    ;  uncertainty theta = 0.002275, k = 0.088220
        26        25        48     1      120.346207      308.716998    ;  uncertainty theta = 0.001985, k = 0.114318
        26        27        28     1      119.429977      517.007047    ;  uncertainty theta = 0.002152, k = 0.043400
        26        27        29     1      122.215172      369.437189    ;  uncertainty theta = 0.005625, k = 0.103915
        27        26        49     1      120.915672      281.926368    ;  uncertainty theta = 0.000927, k = 0.036510
        27        29        50     1      122.160446      275.853803    ;  uncertainty theta = 0.001471, k = 0.051745
        28        27        29     1      118.530540      506.283472    ;  uncertainty theta = 0.002389, k = 0.013247
        33        15        34     1      105.345726      318.190659    ;  uncertainty theta = 0.000933, k = 0.011600
        33        15        35     1      105.345726      318.190659    ;  uncertainty theta = 0.000933, k = 0.011600
        34        15        35     1      105.345726      318.190659    ;  uncertainty theta = 0.000933, k = 0.011600
        36        16        37     1      105.345726      318.190659    ;  uncertainty theta = 0.000933, k = 0.011600
        36        16        38     1      105.345726      318.190659    ;  uncertainty theta = 0.000933, k = 0.011600
        37        16        38     1      105.345726      318.190659    ;  uncertainty theta = 0.000933, k = 0.011600
        39        17        40     1      105.345726      318.190659    ;  uncertainty theta = 0.000933, k = 0.011600
        39        17        41     1      105.345726      318.190691    ;  uncertainty theta = 0.000933, k = 0.011600
        40        17        41     1      105.345726      318.190691    ;  uncertainty theta = 0.000933, k = 0.011600

[ dihedrals ] ; propers for gromacs 4.5 or higher, use funct 9
;       ai        aj        ak        al funct           phase               k        pn
         1         2         3         4     9        0.000000        0.160525         1    ;  uncertainty k = 0.421604
         1         2         3         4     9      180.000000       11.170226         2    ;  uncertainty k = 0.644859
         1         2         3         4     9        0.000000        0.977781         3    ;  uncertainty k = 0.194168
         1         2         3         4     9      180.000000        1.392614         4    ;  uncertainty k = 0.457789
         1         2         3        25     9        0.000000        0.245084         1    ;  uncertainty k = 0.313902
         1         2         3        25     9      180.000000        8.890451         2    ;  uncertainty k = 0.608395
         1         2         3        25     9        0.000000        1.363087         3    ;  uncertainty k = 0.075346
         1         2         3        25     9      180.000000        1.626558         4    ;  uncertainty k = 0.309394
         1         2        29        27     9        0.000000        0.036916         1    ;  uncertainty k = 0.173048
         1         2        29        27     9      180.000000       13.192885         2    ;  uncertainty k = 0.607875
         1         2        29        27     9        0.000000        1.501886         3    ;  uncertainty k = 0.427028
         1         2        29        27     9      180.000000        1.531976         4    ;  uncertainty k = 0.229303
         1         2        29        50     9        0.000000       -0.114872         1    ;  uncertainty k = 0.231346
         1         2        29        50     9      180.000000        9.192253         2    ;  uncertainty k = 0.368991
         1         2        29        50     9        0.000000        0.849509         3    ;  uncertainty k = 0.238093
         1         2        29        50     9      180.000000        1.103138         4    ;  uncertainty k = 0.246438
         2         3         4         5     9        0.000000        1.102741         1    ;  uncertainty k = 1.073574
         2         3         4         5     9      180.000000        4.355583         2    ;  uncertainty k = 0.328195
         2         3         4         5     9        0.000000        0.826132         3    ;  uncertainty k = 0.184404
         2         3         4         5     9      180.000000        0.060796         4    ;  uncertainty k = 0.031085
         2         3         4        30     9        0.000000        1.446214         1    ;  uncertainty k = 0.837536
         2         3         4        30     9      180.000000        2.234040         2    ;  uncertainty k = 0.278401
         2         3         4        30     9        0.000000        0.118907         3    ;  uncertainty k = 0.139066
         2         3         4        30     9      180.000000       -0.177320         4    ;  uncertainty k = 0.119437
         2         3        25        26     9        0.000000       -0.012319         1    ;  uncertainty k = 0.330053
         2         3        25        26     9      180.000000        9.307742         2    ;  uncertainty k = 0.530981
         2         3        25        26     9        0.000000        0.226771         3    ;  uncertainty k = 0.181245
         2         3        25        26     9      180.000000        1.440929         4    ;  uncertainty k = 0.312195
         2         3        25        48     9        0.000000        0.065008         1    ;  uncertainty k = 0.484935
         2         3        25        48     9      180.000000        6.971211         2    ;  uncertainty k = 0.391590
         2         3        25        48     9        0.000000        1.282901         3    ;  uncertainty k = 0.269566
         2         3        25        48     9      180.000000        1.525247         4    ;  uncertainty k = 0.117715
         2        29        27        26     9        0.000000       -0.127837         1    ;  uncertainty k = 0.214511
         2        29        27        26     9      180.000000        8.898656         2    ;  uncertainty k = 0.463052
         2        29        27        26     9        0.000000       -0.075985         3    ;  uncertainty k = 0.355343
         2        29        27        26     9      180.000000        1.297639         4    ;  uncertainty k = 0.222628
         2        29        27        28     9        0.000000        0.055241         1    ;  uncertainty k = 0.241497
         2        29        27        28     9      180.000000       12.277296         2    ;  uncertainty k = 0.427893
         2        29        27        28     9        0.000000        1.538730         3    ;  uncertainty k = 0.392990
         2        29        27        28     9      180.000000        1.507856         4    ;  uncertainty k = 0.216063
         3         2        29        27     9        0.000000       -0.165242         1    ;  uncertainty k = 0.364037
         3         2        29        27     9      180.000000        8.631338         2    ;  uncertainty k = 0.403042
         3         2        29        27     9        0.000000        0.231800         3    ;  uncertainty k = 0.408310
         3         2        29        27     9      180.000000        1.184367         4    ;  uncertainty k = 0.308451
         3         2        29        50     9        0.000000        0.059377         1    ;  uncertainty k = 0.533931
         3         2        29        50     9      180.000000        5.844884         2    ;  uncertainty k = 0.878895
         3         2        29        50     9        0.000000        1.269323         3    ;  uncertainty k = 0.215213
         3         2        29        50     9      180.000000        1.480511         4    ;  uncertainty k = 0.179710
         3         4         5         6     9        0.000000        6.466957         1    ;  uncertainty k = 0.945489
         3         4         5         6     9      180.000000        9.641419         2    ;  uncertainty k = 0.397965
         3         4         5         6     9        0.000000        1.224658         3    ;  uncertainty k = 0.302776
         3         4         5         6     9      180.000000       -0.489459         4    ;  uncertainty k = 0.205453
         3         4         5         7     9        0.000000        7.603737         1    ;  uncertainty k = 0.763171
         3         4         5         7     9      180.000000        6.226503         2    ;  uncertainty k = 0.785715
         3         4         5         7     9        0.000000        0.607679         3    ;  uncertainty k = 0.278533
         3         4         5         7     9      180.000000       -0.139698         4    ;  uncertainty k = 0.327452
         3        25        26        27     9        0.000000       -0.204716         1    ;  uncertainty k = 0.162298
         3        25        26        27     9      180.000000       13.608292         2    ;  uncertainty k = 0.242241
         3        25        26        27     9        0.000000       -0.739660         3    ;  uncertainty k = 0.541523
         3        25        26        27     9      180.000000        0.908220         4    ;  uncertainty k = 0.219569
         3        25        26        49     9        0.000000        0.222127         1    ;  uncertainty k = 0.208961
         3        25        26        49     9      180.000000        7.706029         2    ;  uncertainty k = 0.493084
         3        25        26        49     9        0.000000        1.443504         3    ;  uncertainty k = 0.268422
         3        25        26        49     9      180.000000        1.722112         4    ;  uncertainty k = 0.143262
         4         3         2        29     9        0.000000       -0.005876         1    ;  uncertainty k = 0.229536
         4         3         2        29     9      180.000000        7.356193         2    ;  uncertainty k = 0.365759
         4         3         2        29     9        0.000000        1.055881         3    ;  uncertainty k = 0.365643
         4         3         2        29     9      180.000000        1.733630         4    ;  uncertainty k = 0.186463
         4         3        25        26     9        0.000000        0.039338         1    ;  uncertainty k = 0.295351
         4         3        25        26     9      180.000000       10.679404         2    ;  uncertainty k = 0.704467
         4         3        25        26     9        0.000000        1.147083         3    ;  uncertainty k = 0.505892
         4         3        25        26     9      180.000000        1.714044         4    ;  uncertainty k = 0.291279
         4         3        25        48     9        0.000000       -0.337142         1    ;  uncertainty k = 0.369467
         4         3        25        48     9      180.000000        8.330856         2    ;  uncertainty k = 0.638480
         4         3        25        48     9        0.000000        0.817316         3    ;  uncertainty k = 0.200037
         4         3        25        48     9      180.000000        1.246976         4    ;  uncertainty k = 0.250933
         4         5         7         8     9        0.000000        8.195241         1    ;  uncertainty k = 0.774431
         4         5         7         8     9      180.000000        6.135432         2    ;  uncertainty k = 1.014380
         4         5         7         8     9        0.000000        0.633534         3    ;  uncertainty k = 0.253995
         4         5         7         8     9      180.000000       -0.183396         4    ;  uncertainty k = 0.464403
         4         5         7        31     9        0.000000        2.929482         1    ;  uncertainty k = 1.008368
         4         5         7        31     9      180.000000        4.487899         2    ;  uncertainty k = 1.223011
         4         5         7        31     9        0.000000        0.811150         3    ;  uncertainty k = 0.207044
         4         5         7        31     9      180.000000       -0.390351         4    ;  uncertainty k = 0.250538
         5         4         3        25     9        0.000000        1.587781         1    ;  uncertainty k = 1.012217
         5         4         3        25     9      180.000000        3.674664         2    ;  uncertainty k = 0.238097
         5         4         3        25     9        0.000000        0.747420         3    ;  uncertainty k = 0.203031
         5         4         3        25     9      180.000000        0.388772         4    ;  uncertainty k = 0.124494
         5         7         8         9     9        0.000000        1.938696         1    ;  uncertainty k = 1.267920
         5         7         8         9     9      180.000000        3.893179         2    ;  uncertainty k = 0.541718
         5         7         8         9     9        0.000000        0.288188         3    ;  uncertainty k = 0.202412
         5         7         8         9     9      180.000000        0.005216         4    ;  uncertainty k = 0.061147
         5         7         8        24     9        0.000000        1.567098         1    ;  uncertainty k = 1.278446
         5         7         8        24     9      180.000000        3.967891         2    ;  uncertainty k = 0.530672
         5         7         8        24     9        0.000000        0.661733         3    ;  uncertainty k = 0.282619
         5         7         8        24     9      180.000000        0.352399         4    ;  uncertainty k = 0.138282
         6         5         4        30     9        0.000000        0.954698         1    ;  uncertainty k = 0.377356
         6         5         4        30     9      180.000000        8.819626         2    ;  uncertainty k = 0.292027
         6         5         4        30     9        0.000000        1.864982         3    ;  uncertainty k = 0.267325
         6         5         4        30     9      180.000000       -0.377917         4    ;  uncertainty k = 0.210060
         6         5         7         8     9        0.000000        6.938510         1    ;  uncertainty k = 0.914337
         6         5         7         8     9      180.000000        9.497244         2    ;  uncertainty k = 0.342218
         6         5         7         8     9        0.000000        1.312535         3    ;  uncertainty k = 0.340454
         6         5         7         8     9      180.000000       -0.549591         4    ;  uncertainty k = 0.268140
         6         5         7        31     9        0.000000        0.713542         1    ;  uncertainty k = 0.342833
         6         5         7        31     9      180.000000        8.667988         2    ;  uncertainty k = 0.453147
         6         5         7        31     9        0.000000        1.867007         3    ;  uncertainty k = 0.222362
         6         5         7        31     9      180.000000       -0.443812         4    ;  uncertainty k = 0.252469
         7         5         4        30     9        0.000000        2.840847         1    ;  uncertainty k = 0.918053
         7         5         4        30     9      180.000000        4.417858         2    ;  uncertainty k = 1.192850
         7         5         4        30     9        0.000000        0.896698         3    ;  uncertainty k = 0.320711
         7         5         4        30     9      180.000000       -0.379142         4    ;  uncertainty k = 0.206920
         7         8         9        10     9        0.000000        0.265513         1    ;  uncertainty k = 0.638101
         7         8         9        10     9      180.000000        8.312027         2    ;  uncertainty k = 0.483820
         7         8         9        10     9        0.000000        0.783388         3    ;  uncertainty k = 0.198631
         7         8         9        10     9      180.000000        1.337313         4    ;  uncertainty k = 0.293172
         7         8         9        21     9        0.000000        0.353474         1    ;  uncertainty k = 0.449760
         7         8         9        21     9      180.000000        6.335181         2    ;  uncertainty k = 0.770062
         7         8         9        21     9        0.000000        0.762700         3    ;  uncertainty k = 0.328523
         7         8         9        21     9      180.000000        1.504660         4    ;  uncertainty k = 0.296384
         7         8        24        23     9        0.000000       -0.104134         1    ;  uncertainty k = 0.141360
         7         8        24        23     9      180.000000       11.628689         2    ;  uncertainty k = 0.794318
         7         8        24        23     9        0.000000        1.107582         3    ;  uncertainty k = 0.487862
         7         8        24        23     9      180.000000        1.611587         4    ;  uncertainty k = 0.361445
         7         8        24        47     9        0.000000       -0.339226         1    ;  uncertainty k = 0.473729
         7         8        24        47     9      180.000000        8.956188         2    ;  uncertainty k = 0.817388
         7         8        24        47     9        0.000000        0.715306         3    ;  uncertainty k = 0.150871
         7         8        24        47     9      180.000000        1.268139         4    ;  uncertainty k = 0.406221
         8         9        10        11     9        0.000000        6.016569         1    ;  uncertainty k = 0.939017
         8         9        10        11     9      180.000000        3.997183         2    ;  uncertainty k = 0.536173
         8         9        10        11     9        0.000000        0.582730         3    ;  uncertainty k = 0.323747
         8         9        10        11     9      180.000000        0.077990         4    ;  uncertainty k = 0.143522
         8         9        21        22     9        0.000000        0.676654         1    ;  uncertainty k = 0.481269
         8         9        21        22     9      180.000000       12.337756         2    ;  uncertainty k = 0.384550
         8         9        21        22     9        0.000000        1.799559         3    ;  uncertainty k = 0.431189
         8         9        21        22     9      180.000000        1.358998         4    ;  uncertainty k = 0.224517
         8        24        23        22     9        0.000000       -0.219717         1    ;  uncertainty k = 0.258711
         8        24        23        22     9      180.000000       13.489343         2    ;  uncertainty k = 0.300398
         8        24        23        22     9        0.000000       -1.177534         3    ;  uncertainty k = 0.825067
         8        24        23        22     9      180.000000        0.747942         4    ;  uncertainty k = 0.391509
         8        24        23        46     9        0.000000        0.313279         1    ;  uncertainty k = 0.255485
         8        24        23        46     9      180.000000        7.639764         2    ;  uncertainty k = 0.597194
         8        24        23        46     9        0.000000        1.394864         3    ;  uncertainty k = 0.301687
         8        24        23        46     9      180.000000        1.632044         4    ;  uncertainty k = 0.213681
         9         8         7        31     9        0.000000        1.809919         1    ;  uncertainty k = 1.049578
         9         8         7        31     9      180.000000        2.184103         2    ;  uncertainty k = 0.856980
         9         8         7        31     9        0.000000       -0.055926         3    ;  uncertainty k = 0.368395
         9         8         7        31     9      180.000000       -0.094869         4    ;  uncertainty k = 0.135654
         9         8        24        23     9        0.000000       -0.045324         1    ;  uncertainty k = 0.346307
         9         8        24        23     9      180.000000        9.675692         2    ;  uncertainty k = 0.563612
         9         8        24        23     9        0.000000        0.089574         3    ;  uncertainty k = 0.421919
         9         8        24        23     9      180.000000        1.428809         4    ;  uncertainty k = 0.224622
         9         8        24        47     9        0.000000       -0.056218         1    ;  uncertainty k = 0.336146
         9         8        24        47     9      180.000000        7.154486         2    ;  uncertainty k = 0.386951
         9         8        24        47     9        0.000000        1.228551         3    ;  uncertainty k = 0.135670
         9         8        24        47     9      180.000000        1.474946         4    ;  uncertainty k = 0.079159
         9        10        11        12     9        0.000000        3.933258         1    ;  uncertainty k = 0.494131
         9        10        11        12     9      180.000000        5.208480         2    ;  uncertainty k = 0.215813
         9        10        11        12     9        0.000000        0.376180         3    ;  uncertainty k = 0.357560
         9        10        11        12     9      180.000000        0.294255         4    ;  uncertainty k = 0.088917
         9        10        11        20     9        0.000000        4.095175         1    ;  uncertainty k = 0.306334
         9        10        11        20     9      180.000000        5.180120         2    ;  uncertainty k = 0.147234
         9        10        11        20     9        0.000000        0.474377         3    ;  uncertainty k = 0.389735
         9        10        11        20     9      180.000000        0.297255         4    ;  uncertainty k = 0.110856
         9        21        22        23     9        0.000000       -0.133462         1    ;  uncertainty k = 0.695196
         9        21        22        23     9      180.000000       15.215297         2    ;  uncertainty k = 0.215444
         9        21        22        23     9        0.000000        0.737113         3    ;  uncertainty k = 0.573056
         9        21        22        23     9      180.000000        1.291837         4    ;  uncertainty k = 0.321443
         9        21        22        45     9        0.000000        0.068263         1    ;  uncertainty k = 0.501141
         9        21        22        45     9      180.000000       15.223381         2    ;  uncertainty k = 0.588647
         9        21        22        45     9        0.000000        2.120235         3    ;  uncertainty k = 0.703419
         9        21        22        45     9      180.000000        1.291633         4    ;  uncertainty k = 0.573906
        10         9         8        24     9        0.000000        0.758628         1    ;  uncertainty k = 0.302974
        10         9         8        24     9      180.000000        5.954667         2    ;  uncertainty k = 0.582835
        10         9         8        24     9        0.000000        0.897889         3    ;  uncertainty k = 0.157549
        10         9         8        24     9      180.000000        1.407331         4    ;  uncertainty k = 0.461766
        10         9        21        22     9        0.000000        0.645014         1    ;  uncertainty k = 1.001765
        10         9        21        22     9      180.000000       16.604500         2    ;  uncertainty k = 0.284032
        10         9        21        22     9        0.000000        2.791706         3    ;  uncertainty k = 0.527017
        10         9        21        22     9      180.000000        1.944515         4    ;  uncertainty k = 0.152085
        10        11        12        13     9        0.000000        0.098052         1    ;  uncertainty k = 0.311960
        10        11        12        13     9      180.000000       10.354157         2    ;  uncertainty k = 0.277399
        10        11        12        13     9        0.000000        1.355698         3    ;  uncertainty k = 0.197661
        10        11        12        13     9      180.000000        1.608708         4    ;  uncertainty k = 0.106364
        10        11        12        32     9        0.000000        0.095217         1    ;  uncertainty k = 0.083890
        10        11        12        32     9      180.000000        8.687168         2    ;  uncertainty k = 0.213803
        10        11        12        32     9        0.000000        0.878327         3    ;  uncertainty k = 0.186149
        10        11        12        32     9      180.000000        1.111158         4    ;  uncertainty k = 0.175260
        10        11        20        19     9        0.000000        0.015486         1    ;  uncertainty k = 0.404402
        10        11        20        19     9      180.000000       10.977813         2    ;  uncertainty k = 0.497542
        10        11        20        19     9        0.000000        1.297505         3    ;  uncertainty k = 0.211637
        10        11        20        19     9      180.000000        1.640191         4    ;  uncertainty k = 0.126296
        10        11        20        44     9        0.000000        0.092964         1    ;  uncertainty k = 0.133720
        10        11        20        44     9      180.000000        8.368297         2    ;  uncertainty k = 0.219818
        10        11        20        44     9        0.000000        0.876703         3    ;  uncertainty k = 0.272648
        10        11        20        44     9      180.000000        1.077436         4    ;  uncertainty k = 0.167382
        11        10         9        21     9        0.000000        1.860499         1    ;  uncertainty k = 0.942734
        11        10         9        21     9      180.000000        6.670533         2    ;  uncertainty k = 0.112208
        11        10         9        21     9        0.000000        0.137749         3    ;  uncertainty k = 0.502130
        11        10         9        21     9      180.000000        0.114519         4    ;  uncertainty k = 0.129497
        11        12        13        14     9        0.000000        0.117876         1    ;  uncertainty k = 0.357934
        11        12        13        14     9      180.000000        8.930870         2    ;  uncertainty k = 0.266955
        11        12        13        14     9        0.000000        1.288482         3    ;  uncertainty k = 0.317024
        11        12        13        14     9      180.000000        1.656213         4    ;  uncertainty k = 0.104402
        11        12        13        18     9        0.000000       -0.224085         1    ;  uncertainty k = 0.339542
        11        12        13        18     9      180.000000       11.143221         2    ;  uncertainty k = 0.224442
        11        12        13        18     9        0.000000       -0.107752         3    ;  uncertainty k = 0.314946
        11        12        13        18     9      180.000000        0.988967         4    ;  uncertainty k = 0.331215
        11        20        19        18     9        0.000000       -0.199343         1    ;  uncertainty k = 0.179085
        11        20        19        18     9      180.000000       14.216288         2    ;  uncertainty k = 0.224266
        11        20        19        18     9        0.000000       -1.073947         3    ;  uncertainty k = 0.579339
        11        20        19        18     9      180.000000        0.737703         4    ;  uncertainty k = 0.300964
        11        20        19        43     9        0.000000       -0.034586         1    ;  uncertainty k = 0.066651
        11        20        19        43     9      180.000000        7.744628         2    ;  uncertainty k = 0.285138
        11        20        19        43     9        0.000000        1.267323         3    ;  uncertainty k = 0.197407
        11        20        19        43     9      180.000000        1.715888         4    ;  uncertainty k = 0.180900
        12        11        20        19     9        0.000000       -0.077468         1    ;  uncertainty k = 0.130000
        12        11        20        19     9      180.000000       10.512354         2    ;  uncertainty k = 0.491675
        12        11        20        19     9        0.000000       -0.360005         3    ;  uncertainty k = 0.342977
        12        11        20        19     9      180.000000        1.045299         4    ;  uncertainty k = 0.344214
        12        11        20        44     9        0.000000        0.206930         1    ;  uncertainty k = 0.176044
        12        11        20        44     9      180.000000        6.358637         2    ;  uncertainty k = 0.781308
        12        11        20        44     9        0.000000        1.402002         3    ;  uncertainty k = 0.398494
        12        11        20        44     9      180.000000        1.590191         4    ;  uncertainty k = 0.208295
        12        13        14        15     9        0.000000       -0.192078         1    ;  uncertainty k = 0.588124
        12        13        14        15     9      180.000000        2.568518         2    ;  uncertainty k = 0.107665
        12        13        14        15     9        0.000000        0.256352         3    ;  uncertainty k = 0.134816
        12        13        14        15     9      180.000000        0.383896         4    ;  uncertainty k = 0.037630
        12        13        14        16     9        0.000000       -0.192078         1    ;  uncertainty k = 0.588124
        12        13        14        16     9      180.000000        2.568518         2    ;  uncertainty k = 0.107665
        12        13        14        16     9        0.000000        0.256352         3    ;  uncertainty k = 0.134816
        12        13        14        16     9      180.000000        0.383896         4    ;  uncertainty k = 0.037630
        12        13        14        17     9        0.000000       -0.192078         1    ;  uncertainty k = 0.588124
        12        13        14        17     9      180.000000        2.568518         2    ;  uncertainty k = 0.107665
        12        13        14        17     9        0.000000        0.256352         3    ;  uncertainty k = 0.134816
        12        13        14        17     9      180.000000        0.383896         4    ;  uncertainty k = 0.037630
        12        13        18        19     9        0.000000       -0.320087         1    ;  uncertainty k = 0.137480
        12        13        18        19     9      180.000000       11.526272         2    ;  uncertainty k = 0.383308
        12        13        18        19     9        0.000000       -0.287132         3    ;  uncertainty k = 0.193431
        12        13        18        19     9      180.000000        0.868623         4    ;  uncertainty k = 0.331315
        12        13        18        42     9        0.000000        0.088040         1    ;  uncertainty k = 0.279197
        12        13        18        42     9      180.000000        7.577021         2    ;  uncertainty k = 0.553166
        12        13        18        42     9        0.000000        1.470350         3    ;  uncertainty k = 0.376460
        12        13        18        42     9      180.000000        1.652067         4    ;  uncertainty k = 0.183638
        13        12        11        20     9        0.000000       -0.022229         1    ;  uncertainty k = 0.226647
        13        12        11        20     9      180.000000        8.953348         2    ;  uncertainty k = 0.503089
        13        12        11        20     9        0.000000       -0.005684         3    ;  uncertainty k = 0.427471
        13        12        11        20     9      180.000000        1.235231         4    ;  uncertainty k = 0.309895
        13        14        15        33     9        0.000000        0.893317         1    ;  uncertainty k = 0.403448
        13        14        15        33     9      180.000000       -0.576093         2    ;  uncertainty k = 0.104953
        13        14        15        33     9        0.000000        0.724842         3    ;  uncertainty k = 0.058710
        13        14        15        33     9      180.000000        0.045235         4    ;  uncertainty k = 0.058757
        13        14        15        34     9        0.000000        0.893317         1    ;  uncertainty k = 0.403448
        13        14        15        34     9      180.000000       -0.576093         2    ;  uncertainty k = 0.104953
        13        14        15        34     9        0.000000        0.724842         3    ;  uncertainty k = 0.058710
        13        14        15        34     9      180.000000        0.045235         4    ;  uncertainty k = 0.058757
        13        14        15        35     9        0.000000        0.893317         1    ;  uncertainty k = 0.403448
        13        14        15        35     9      180.000000       -0.576093         2    ;  uncertainty k = 0.104953
        13        14        15        35     9        0.000000        0.724842         3    ;  uncertainty k = 0.058710
        13        14        15        35     9      180.000000        0.045235         4    ;  uncertainty k = 0.058757
        13        14        16        36     9        0.000000        0.893317         1    ;  uncertainty k = 0.403448
        13        14        16        36     9      180.000000       -0.576093         2    ;  uncertainty k = 0.104953
        13        14        16        36     9        0.000000        0.724842         3    ;  uncertainty k = 0.058710
        13        14        16        36     9      180.000000        0.045235         4    ;  uncertainty k = 0.058757
        13        14        16        37     9        0.000000        0.893317         1    ;  uncertainty k = 0.403448
        13        14        16        37     9      180.000000       -0.576093         2    ;  uncertainty k = 0.104953
        13        14        16        37     9        0.000000        0.724842         3    ;  uncertainty k = 0.058710
        13        14        16        37     9      180.000000        0.045235         4    ;  uncertainty k = 0.058757
        13        14        16        38     9        0.000000        0.893317         1    ;  uncertainty k = 0.403448
        13        14        16        38     9      180.000000       -0.576093         2    ;  uncertainty k = 0.104953
        13        14        16        38     9        0.000000        0.724842         3    ;  uncertainty k = 0.058710
        13        14        16        38     9      180.000000        0.045235         4    ;  uncertainty k = 0.058757
        13        14        17        39     9        0.000000        0.893317         1    ;  uncertainty k = 0.403448
        13        14        17        39     9      180.000000       -0.576093         2    ;  uncertainty k = 0.104953
        13        14        17        39     9        0.000000        0.724842         3    ;  uncertainty k = 0.058710
        13        14        17        39     9      180.000000        0.045235         4    ;  uncertainty k = 0.058757
        13        14        17        40     9        0.000000        0.893317         1    ;  uncertainty k = 0.403448
        13        14        17        40     9      180.000000       -0.576093         2    ;  uncertainty k = 0.104953
        13        14        17        40     9        0.000000        0.724842         3    ;  uncertainty k = 0.058710
        13        14        17        40     9      180.000000        0.045235         4    ;  uncertainty k = 0.058757
        13        14        17        41     9        0.000000        0.893317         1    ;  uncertainty k = 0.403448
        13        14        17        41     9      180.000000       -0.576093         2    ;  uncertainty k = 0.104953
        13        14        17        41     9        0.000000        0.724842         3    ;  uncertainty k = 0.058710
        13        14        17        41     9      180.000000        0.045235         4    ;  uncertainty k = 0.058757
        13        18        19        20     9        0.000000       -0.205067         1    ;  uncertainty k = 0.149813
        13        18        19        20     9      180.000000       13.339328         2    ;  uncertainty k = 0.305145
        13        18        19        20     9        0.000000       -0.876742         3    ;  uncertainty k = 0.458314
        13        18        19        20     9      180.000000        0.758097         4    ;  uncertainty k = 0.260535
        13        18        19        43     9        0.000000        0.025902         1    ;  uncertainty k = 0.279114
        13        18        19        43     9      180.000000        7.218338         2    ;  uncertainty k = 0.303601
        13        18        19        43     9        0.000000        1.392907         3    ;  uncertainty k = 0.171001
        13        18        19        43     9      180.000000        1.787290         4    ;  uncertainty k = 0.244504
        14        13        12        32     9        0.000000       -0.213280         1    ;  uncertainty k = 0.433616
        14        13        12        32     9      180.000000        7.626296         2    ;  uncertainty k = 0.391913
        14        13        12        32     9        0.000000        0.585711         3    ;  uncertainty k = 0.240959
        14        13        12        32     9      180.000000        1.014482         4    ;  uncertainty k = 0.154760
        14        13        18        19     9        0.000000        0.330963         1    ;  uncertainty k = 0.315758
        14        13        18        19     9      180.000000        8.528836         2    ;  uncertainty k = 0.481859
        14        13        18        19     9        0.000000        1.436782         3    ;  uncertainty k = 0.209420
        14        13        18        19     9      180.000000        1.806227         4    ;  uncertainty k = 0.176314
        14        13        18        42     9        0.000000       -0.265723         1    ;  uncertainty k = 0.509347
        14        13        18        42     9      180.000000        7.599893         2    ;  uncertainty k = 0.427583
        14        13        18        42     9        0.000000        0.588313         3    ;  uncertainty k = 0.272554
        14        13        18        42     9      180.000000        0.976588         4    ;  uncertainty k = 0.166031
        15        14        13        18     9        0.000000       -0.265247         1    ;  uncertainty k = 0.359546
        15        14        13        18     9      180.000000        2.613677         2    ;  uncertainty k = 0.111841
        15        14        13        18     9        0.000000        0.342760         3    ;  uncertainty k = 0.092224
        15        14        13        18     9      180.000000        0.388261         4    ;  uncertainty k = 0.043212
        15        14        16        36     9        0.000000       -1.186699         1    ;  uncertainty k = 0.274707
        15        14        16        36     9      180.000000       -0.226493         2    ;  uncertainty k = 0.090521
        15        14        16        36     9        0.000000        0.807395         3    ;  uncertainty k = 0.033257
        15        14        16        36     9      180.000000       -0.064785         4    ;  uncertainty k = 0.045577
        15        14        16        37     9        0.000000       -1.186699         1    ;  uncertainty k = 0.274707
        15        14        16        37     9      180.000000       -0.226493         2    ;  uncertainty k = 0.090521
        15        14        16        37     9        0.000000        0.807395         3    ;  uncertainty k = 0.033257
        15        14        16        37     9      180.000000       -0.064785         4    ;  uncertainty k = 0.045577
        15        14        16        38     9        0.000000       -1.186699         1    ;  uncertainty k = 0.274707
        15        14        16        38     9      180.000000       -0.226493         2    ;  uncertainty k = 0.090521
        15        14        16        38     9        0.000000        0.807395         3    ;  uncertainty k = 0.033257
        15        14        16        38     9      180.000000       -0.064785         4    ;  uncertainty k = 0.045577
        15        14        17        39     9        0.000000       -1.186699         1    ;  uncertainty k = 0.274707
        15        14        17        39     9      180.000000       -0.226493         2    ;  uncertainty k = 0.090521
        15        14        17        39     9        0.000000        0.807395         3    ;  uncertainty k = 0.033257
        15        14        17        39     9      180.000000       -0.064785         4    ;  uncertainty k = 0.045577
        15        14        17        40     9        0.000000       -1.186699         1    ;  uncertainty k = 0.274707
        15        14        17        40     9      180.000000       -0.226493         2    ;  uncertainty k = 0.090521
        15        14        17        40     9        0.000000        0.807395         3    ;  uncertainty k = 0.033257
        15        14        17        40     9      180.000000       -0.064785         4    ;  uncertainty k = 0.045577
        15        14        17        41     9        0.000000       -1.186699         1    ;  uncertainty k = 0.274707
        15        14        17        41     9      180.000000       -0.226493         2    ;  uncertainty k = 0.090521
        15        14        17        41     9        0.000000        0.807395         3    ;  uncertainty k = 0.033257
        15        14        17        41     9      180.000000       -0.064785         4    ;  uncertainty k = 0.045577
        16        14        13        18     9        0.000000       -0.265247         1    ;  uncertainty k = 0.359546
        16        14        13        18     9      180.000000        2.613677         2    ;  uncertainty k = 0.111841
        16        14        13        18     9        0.000000        0.342760         3    ;  uncertainty k = 0.092224
        16        14        13        18     9      180.000000        0.388261         4    ;  uncertainty k = 0.043212
        16        14        15        33     9        0.000000       -1.186699         1    ;  uncertainty k = 0.274707
        16        14        15        33     9      180.000000       -0.226493         2    ;  uncertainty k = 0.090521
        16        14        15        33     9        0.000000        0.807395         3    ;  uncertainty k = 0.033257
        16        14        15        33     9      180.000000       -0.064785         4    ;  uncertainty k = 0.045577
        16        14        15        34     9        0.000000       -1.186699         1    ;  uncertainty k = 0.274707
        16        14        15        34     9      180.000000       -0.226493         2    ;  uncertainty k = 0.090521
        16        14        15        34     9        0.000000        0.807395         3    ;  uncertainty k = 0.033257
        16        14        15        34     9      180.000000       -0.064785         4    ;  uncertainty k = 0.045577
        16        14        15        35     9        0.000000       -1.186699         1    ;  uncertainty k = 0.274707
        16        14        15        35     9      180.000000       -0.226493         2    ;  uncertainty k = 0.090521
        16        14        15        35     9        0.000000        0.807395         3    ;  uncertainty k = 0.033257
        16        14        15        35     9      180.000000       -0.064785         4    ;  uncertainty k = 0.045577
        16        14        17        39     9        0.000000       -1.186699         1    ;  uncertainty k = 0.274707
        16        14        17        39     9      180.000000       -0.226493         2    ;  uncertainty k = 0.090521
        16        14        17        39     9        0.000000        0.807395         3    ;  uncertainty k = 0.033257
        16        14        17        39     9      180.000000       -0.064785         4    ;  uncertainty k = 0.045577
        16        14        17        40     9        0.000000       -1.186699         1    ;  uncertainty k = 0.274707
        16        14        17        40     9      180.000000       -0.226493         2    ;  uncertainty k = 0.090521
        16        14        17        40     9        0.000000        0.807395         3    ;  uncertainty k = 0.033257
        16        14        17        40     9      180.000000       -0.064785         4    ;  uncertainty k = 0.045577
        16        14        17        41     9        0.000000       -1.186699         1    ;  uncertainty k = 0.274707
        16        14        17        41     9      180.000000       -0.226493         2    ;  uncertainty k = 0.090521
        16        14        17        41     9        0.000000        0.807395         3    ;  uncertainty k = 0.033257
        16        14        17        41     9      180.000000       -0.064785         4    ;  uncertainty k = 0.045577
        17        14        13        18     9        0.000000       -0.265247         1    ;  uncertainty k = 0.359546
        17        14        13        18     9      180.000000        2.613677         2    ;  uncertainty k = 0.111841
        17        14        13        18     9        0.000000        0.342760         3    ;  uncertainty k = 0.092224
        17        14        13        18     9      180.000000        0.388261         4    ;  uncertainty k = 0.043212
        17        14        15        33     9        0.000000       -1.186699         1    ;  uncertainty k = 0.274707
        17        14        15        33     9      180.000000       -0.226493         2    ;  uncertainty k = 0.090521
        17        14        15        33     9        0.000000        0.807395         3    ;  uncertainty k = 0.033257
        17        14        15        33     9      180.000000       -0.064785         4    ;  uncertainty k = 0.045577
        17        14        15        34     9        0.000000       -1.186699         1    ;  uncertainty k = 0.274707
        17        14        15        34     9      180.000000       -0.226493         2    ;  uncertainty k = 0.090521
        17        14        15        34     9        0.000000        0.807395         3    ;  uncertainty k = 0.033257
        17        14        15        34     9      180.000000       -0.064785         4    ;  uncertainty k = 0.045577
        17        14        15        35     9        0.000000       -1.186699         1    ;  uncertainty k = 0.274707
        17        14        15        35     9      180.000000       -0.226493         2    ;  uncertainty k = 0.090521
        17        14        15        35     9        0.000000        0.807395         3    ;  uncertainty k = 0.033257
        17        14        15        35     9      180.000000       -0.064785         4    ;  uncertainty k = 0.045577
        17        14        16        36     9        0.000000       -1.186699         1    ;  uncertainty k = 0.274707
        17        14        16        36     9      180.000000       -0.226493         2    ;  uncertainty k = 0.090521
        17        14        16        36     9        0.000000        0.807395         3    ;  uncertainty k = 0.033257
        17        14        16        36     9      180.000000       -0.064785         4    ;  uncertainty k = 0.045577
        17        14        16        37     9        0.000000       -1.186699         1    ;  uncertainty k = 0.274707
        17        14        16        37     9      180.000000       -0.226493         2    ;  uncertainty k = 0.090521
        17        14        16        37     9        0.000000        0.807395         3    ;  uncertainty k = 0.033257
        17        14        16        37     9      180.000000       -0.064785         4    ;  uncertainty k = 0.045577
        17        14        16        38     9        0.000000       -1.186699         1    ;  uncertainty k = 0.274707
        17        14        16        38     9      180.000000       -0.226493         2    ;  uncertainty k = 0.090521
        17        14        16        38     9        0.000000        0.807395         3    ;  uncertainty k = 0.033257
        17        14        16        38     9      180.000000       -0.064785         4    ;  uncertainty k = 0.045577
        18        13        12        32     9        0.000000        0.190376         1    ;  uncertainty k = 0.200013
        18        13        12        32     9      180.000000        7.686916         2    ;  uncertainty k = 0.517792
        18        13        12        32     9        0.000000        1.501674         3    ;  uncertainty k = 0.302186
        18        13        12        32     9      180.000000        1.716952         4    ;  uncertainty k = 0.228483
        18        19        20        44     9        0.000000        0.179579         1    ;  uncertainty k = 0.062131
        18        19        20        44     9      180.000000        7.619577         2    ;  uncertainty k = 0.392743
        18        19        20        44     9        0.000000        1.459132         3    ;  uncertainty k = 0.284683
        18        19        20        44     9      180.000000        1.824552         4    ;  uncertainty k = 0.161973
        20        11        12        32     9        0.000000        0.282773         1    ;  uncertainty k = 0.282312
        20        11        12        32     9      180.000000        6.625540         2    ;  uncertainty k = 0.733079
        20        11        12        32     9        0.000000        1.417950         3    ;  uncertainty k = 0.347766
        20        11        12        32     9      180.000000        1.636405         4    ;  uncertainty k = 0.193581
        20        19        18        42     9        0.000000        0.072212         1    ;  uncertainty k = 0.158727
        20        19        18        42     9      180.000000        7.826173         2    ;  uncertainty k = 0.272831
        20        19        18        42     9        0.000000        1.469704         3    ;  uncertainty k = 0.281030
        20        19        18        42     9      180.000000        1.860708         4    ;  uncertainty k = 0.147619
        21         9         8        24     9        0.000000       -0.006292         1    ;  uncertainty k = 0.585644
        21         9         8        24     9      180.000000        5.409164         2    ;  uncertainty k = 1.404242
        21         9         8        24     9        0.000000       -0.113620         3    ;  uncertainty k = 0.195163
        21         9         8        24     9      180.000000        1.221279         4    ;  uncertainty k = 0.563245
        21        22        23        24     9        0.000000        0.122912         1    ;  uncertainty k = 0.377650
        21        22        23        24     9      180.000000       16.205381         2    ;  uncertainty k = 0.253453
        21        22        23        24     9        0.000000       -1.374142         3    ;  uncertainty k = 0.567401
        21        22        23        24     9      180.000000        0.764888         4    ;  uncertainty k = 0.233191
        21        22        23        46     9        0.000000        0.109573         1    ;  uncertainty k = 0.140059
        21        22        23        46     9      180.000000       10.004729         2    ;  uncertainty k = 0.564195
        21        22        23        46     9        0.000000        0.906338         3    ;  uncertainty k = 0.280019
        21        22        23        46     9      180.000000        1.603453         4    ;  uncertainty k = 0.128880
        22        23        24        47     9        0.000000       -0.096931         1    ;  uncertainty k = 0.224660
        22        23        24        47     9      180.000000        7.599745         2    ;  uncertainty k = 0.300022
        22        23        24        47     9        0.000000        1.345913         3    ;  uncertainty k = 0.259017
        22        23        24        47     9      180.000000        1.606126         4    ;  uncertainty k = 0.220857
        24         8         7        31     9        0.000000        0.848167         1    ;  uncertainty k = 0.508402
        24         8         7        31     9      180.000000        2.941024         2    ;  uncertainty k = 0.300123
        24         8         7        31     9        0.000000        0.417155         3    ;  uncertainty k = 0.206640
        24         8         7        31     9      180.000000        0.143213         4    ;  uncertainty k = 0.162479
        24        23        22        45     9        0.000000       -0.129492         1    ;  uncertainty k = 0.287891
        24        23        22        45     9      180.000000        6.663214         2    ;  uncertainty k = 0.558015
        24        23        22        45     9        0.000000        1.279160         3    ;  uncertainty k = 0.228439
        24        23        22        45     9      180.000000        1.542370         4    ;  uncertainty k = 0.207679
        25         3         2        29     9        0.000000       -0.347845         1    ;  uncertainty k = 0.707680
        25         3         2        29     9      180.000000        5.498150         2    ;  uncertainty k = 1.280336
        25         3         2        29     9        0.000000        0.274930         3    ;  uncertainty k = 0.386587
        25         3         2        29     9      180.000000        1.396833         4    ;  uncertainty k = 0.329412
        25         3         4        30     9        0.000000        0.307701         1    ;  uncertainty k = 0.470384
        25         3         4        30     9      180.000000        2.973551         2    ;  uncertainty k = 0.198977
        25         3         4        30     9        0.000000        0.311996         3    ;  uncertainty k = 0.135945
        25         3         4        30     9      180.000000       -0.004472         4    ;  uncertainty k = 0.147942
        25        26        27        28     9        0.000000       -0.029064         1    ;  uncertainty k = 0.270458
        25        26        27        28     9      180.000000       11.951018         2    ;  uncertainty k = 0.496814
        25        26        27        28     9        0.000000        1.487439         3    ;  uncertainty k = 0.321592
        25        26        27        28     9      180.000000        1.558963         4    ;  uncertainty k = 0.244594
        25        26        27        29     9        0.000000       -0.145017         1    ;  uncertainty k = 0.198923
        25        26        27        29     9      180.000000        9.651561         2    ;  uncertainty k = 0.544606
        25        26        27        29     9        0.000000       -0.239045         3    ;  uncertainty k = 0.338082
        25        26        27        29     9      180.000000        1.154011         4    ;  uncertainty k = 0.240192
        26        27        29        50     9        0.000000        0.151418         1    ;  uncertainty k = 0.137716
        26        27        29        50     9      180.000000        5.401459         2    ;  uncertainty k = 0.651708
        26        27        29        50     9        0.000000        1.287174         3    ;  uncertainty k = 0.273676
        26        27        29        50     9      180.000000        1.452362         4    ;  uncertainty k = 0.206284
        27        26        25        48     9        0.000000       -0.020915         1    ;  uncertainty k = 0.214501
        27        26        25        48     9      180.000000        8.038451         2    ;  uncertainty k = 0.394853
        27        26        25        48     9        0.000000        1.372910         3    ;  uncertainty k = 0.244469
        27        26        25        48     9      180.000000        1.777415         4    ;  uncertainty k = 0.166593
        28        27        26        49     9        0.000000       -0.400130         1    ;  uncertainty k = 0.228452
        28        27        26        49     9      180.000000        8.688984         2    ;  uncertainty k = 0.258477
        28        27        26        49     9        0.000000        0.812385         3    ;  uncertainty k = 0.243970
        28        27        26        49     9      180.000000        0.931610         4    ;  uncertainty k = 0.182856
        28        27        29        50     9        0.000000       -0.291299         1    ;  uncertainty k = 0.270825
        28        27        29        50     9      180.000000        8.289552         2    ;  uncertainty k = 0.324950
        28        27        29        50     9        0.000000        0.815180         3    ;  uncertainty k = 0.327930
        28        27        29        50     9      180.000000        0.995860         4    ;  uncertainty k = 0.217001
        29        27        26        49     9        0.000000        0.053887         1    ;  uncertainty k = 0.209744
        29        27        26        49     9      180.000000        5.663166         2    ;  uncertainty k = 0.622745
        29        27        26        49     9        0.000000        1.285342         3    ;  uncertainty k = 0.316149
        29        27        26        49     9      180.000000        1.505279         4    ;  uncertainty k = 0.194728
        42        18        19        43     9        0.000000       -0.031482         1    ;  uncertainty k = 0.123875
        42        18        19        43     9      180.000000        7.495130         2    ;  uncertainty k = 0.321995
        42        18        19        43     9        0.000000       -0.399461         3    ;  uncertainty k = 0.255204
        42        18        19        43     9      180.000000        0.155870         4    ;  uncertainty k = 0.122638
        43        19        20        44     9        0.000000       -0.126251         1    ;  uncertainty k = 0.219182
        43        19        20        44     9      180.000000        7.300012         2    ;  uncertainty k = 0.355518
        43        19        20        44     9        0.000000       -0.411218         3    ;  uncertainty k = 0.281357
        43        19        20        44     9      180.000000        0.137593         4    ;  uncertainty k = 0.096693
        45        22        23        46     9        0.000000       -0.176777         1    ;  uncertainty k = 0.222997
        45        22        23        46     9      180.000000        6.567606         2    ;  uncertainty k = 0.260169
        45        22        23        46     9        0.000000       -0.010461         3    ;  uncertainty k = 0.138989
        45        22        23        46     9      180.000000        0.217241         4    ;  uncertainty k = 0.090307
        46        23        24        47     9        0.000000        0.077279         1    ;  uncertainty k = 0.355604
        46        23        24        47     9      180.000000        7.819656         2    ;  uncertainty k = 0.531205
        46        23        24        47     9        0.000000       -0.430593         3    ;  uncertainty k = 0.317162
        46        23        24        47     9      180.000000        0.145196         4    ;  uncertainty k = 0.160605
        48        25        26        49     9        0.000000       -0.019828         1    ;  uncertainty k = 0.436152
        48        25        26        49     9      180.000000        7.844472         2    ;  uncertainty k = 0.402231
        48        25        26        49     9        0.000000       -0.352064         3    ;  uncertainty k = 0.208759
        48        25        26        49     9      180.000000        0.147197         4    ;  uncertainty k = 0.147423

[ dihedrals ] ; impropers
;       ai        aj        ak        al funct           phase               k        pn
         2         1         3        29     4      180.000000       13.044018         2    ;  uncertainty k = 0.157284
         2         3        29         1     4      180.000000       13.044018         2    ;  uncertainty k = 0.157284
         2        29         1         3     4      180.000000       13.044018         2    ;  uncertainty k = 0.157284
         3         2         4        25     4      180.000000       13.263530         2    ;  uncertainty k = 0.082270
         3         4        25         2     4      180.000000       13.263530         2    ;  uncertainty k = 0.082270
         3        25         2         4     4      180.000000       13.263530         2    ;  uncertainty k = 0.082270
         4         3         5        30     4      180.000000        0.405462         2    ;  uncertainty k = 0.506047
         4         5        30         3     4      180.000000        0.405462         2    ;  uncertainty k = 0.506047
         4        30         3         5     4      180.000000        0.405462         2    ;  uncertainty k = 0.506047
         5         4         6         7     4      180.000000       63.041121         2    ;  uncertainty k = 0.062029
         5         6         7         4     4      180.000000       63.041121         2    ;  uncertainty k = 0.062029
         5         7         4         6     4      180.000000       63.041121         2    ;  uncertainty k = 0.062029
         7         5         8        31     4      180.000000        0.392998         2    ;  uncertainty k = 0.571996
         7         8        31         5     4      180.000000        0.392998         2    ;  uncertainty k = 0.571996
         7        31         5         8     4      180.000000        0.392998         2    ;  uncertainty k = 0.571996
         8         7         9        24     4      180.000000       13.075348         2    ;  uncertainty k = 0.235826
         8         9        24         7     4      180.000000       13.075348         2    ;  uncertainty k = 0.235826
         8        24         7         9     4      180.000000       13.075348         2    ;  uncertainty k = 0.235826
         9         8        10        21     4      180.000000       23.632419         2    ;  uncertainty k = 0.090188
         9        10        21         8     4      180.000000       23.632419         2    ;  uncertainty k = 0.090188
         9        21         8        10     4      180.000000       23.632419         2    ;  uncertainty k = 0.090188
        11        10        12        20     4      180.000000       16.186774         2    ;  uncertainty k = 0.090322
        11        12        20        10     4      180.000000       16.186774         2    ;  uncertainty k = 0.090322
        11        20        10        12     4      180.000000       16.186774         2    ;  uncertainty k = 0.090322
        12        11        13        32     4      180.000000        3.247024         2    ;  uncertainty k = 0.225662
        12        13        32        11     4      180.000000        3.247024         2    ;  uncertainty k = 0.225662
        12        32        11        13     4      180.000000        3.247024         2    ;  uncertainty k = 0.225662
        13        12        14        18     4      180.000000       14.996356         2    ;  uncertainty k = 0.099899
        13        14        18        12     4      180.000000       14.996356         2    ;  uncertainty k = 0.099899
        13        18        12        14     4      180.000000       14.996356         2    ;  uncertainty k = 0.099899
        18        13        19        42     4      180.000000        3.403115         2    ;  uncertainty k = 0.118911
        18        19        42        13     4      180.000000        3.403115         2    ;  uncertainty k = 0.118911
        18        42        13        19     4      180.000000        3.403115         2    ;  uncertainty k = 0.118911
        19        18        20        43     4      180.000000        4.338910         2    ;  uncertainty k = 0.137564
        19        20        43        18     4      180.000000        4.338910         2    ;  uncertainty k = 0.137564
        19        43        18        20     4      180.000000        4.338910         2    ;  uncertainty k = 0.137564
        20        11        19        44     4      180.000000        2.545802         2    ;  uncertainty k = 0.155201
        20        19        44        11     4      180.000000        2.545802         2    ;  uncertainty k = 0.155201
        20        44        11        19     4      180.000000        2.545802         2    ;  uncertainty k = 0.155201
        22        21        23        45     4      180.000000       11.532154         2    ;  uncertainty k = 0.089528
        22        23        45        21     4      180.000000       11.532154         2    ;  uncertainty k = 0.089528
        22        45        21        23     4      180.000000       11.532154         2    ;  uncertainty k = 0.089528
        23        22        24        46     4      180.000000        2.219263         2    ;  uncertainty k = 0.396250
        23        24        46        22     4      180.000000        2.219263         2    ;  uncertainty k = 0.396250
        23        46        22        24     4      180.000000        2.219263         2    ;  uncertainty k = 0.396250
        24         8        23        47     4      180.000000        4.523754         2    ;  uncertainty k = 0.211544
        24        23        47         8     4      180.000000        4.523754         2    ;  uncertainty k = 0.211544
        24        47         8        23     4      180.000000        4.523754         2    ;  uncertainty k = 0.211544
        25         3        26        48     4      180.000000        3.554816         2    ;  uncertainty k = 0.313001
        25        26        48         3     4      180.000000        3.554816         2    ;  uncertainty k = 0.313001
        25        48         3        26     4      180.000000        3.554816         2    ;  uncertainty k = 0.313001
        26        25        27        49     4      180.000000        1.684234         2    ;  uncertainty k = 0.242394
        26        27        49        25     4      180.000000        1.684234         2    ;  uncertainty k = 0.242394
        26        49        25        27     4      180.000000        1.684234         2    ;  uncertainty k = 0.242394
        27        26        28        29     4      180.000000       16.377079         2    ;  uncertainty k = 0.056612
        27        28        29        26     4      180.000000       16.377079         2    ;  uncertainty k = 0.056612
        27        29        26        28     4      180.000000       16.377079         2    ;  uncertainty k = 0.056612
        29         2        27        50     4      180.000000        0.995241         2    ;  uncertainty k = 0.395213
        29        27        50         2     4      180.000000        0.995241         2    ;  uncertainty k = 0.395213
        29        50         2        27     4      180.000000        0.995241         2    ;  uncertainty k = 0.395213

[ pairs ]
;       ai        aj funct
         1         4     1
         1        25     1
         1        27     1
         1        50     1
         2         5     1
         2        26     1
         2        28     1
         2        30     1
         2        48     1
         3         6     1
         3         7     1
         3        27     1
         3        49     1
         3        50     1
         4         8     1
         4        26     1
         4        29     1
         4        31     1
         4        48     1
         5         9     1
         5        24     1
         5        25     1
         6         8     1
         6        30     1
         6        31     1
         7        10     1
         7        21     1
         7        23     1
         7        30     1
         7        47     1
         8        11     1
         8        22     1
         8        46     1
         9        12     1
         9        20     1
         9        23     1
         9        31     1
         9        45     1
         9        47     1
        10        13     1
        10        19     1
        10        22     1
        10        24     1
        10        32     1
        10        44     1
        11        14     1
        11        18     1
        11        21     1
        11        43     1
        12        15     1
        12        16     1
        12        17     1
        12        19     1
        12        42     1
        12        44     1
        13        20     1
        13        33     1
        13        34     1
        13        35     1
        13        36     1
        13        37     1
        13        38     1
        13        39     1
        13        40     1
        13        41     1
        13        43     1
        14        19     1
        14        32     1
        14        42     1
        15        18     1
        15        36     1
        15        37     1
        15        38     1
        15        39     1
        15        40     1
        15        41     1
        16        18     1
        16        33     1
        16        34     1
        16        35     1
        16        39     1
        16        40     1
        16        41     1
        17        18     1
        17        33     1
        17        34     1
        17        35     1
        17        36     1
        17        37     1
        17        38     1
        18        32     1
        18        44     1
        20        32     1
        20        42     1
        21        24     1
        21        46     1
        22        47     1
        24        31     1
        24        45     1
        25        28     1
        25        29     1
        25        30     1
        26        50     1
        27        48     1
        28        49     1
        28        50     1
        29        49     1
        42        43     1
        43        44     1
        45        46     1
        46        47     1
        48        49     1
