; ITP file created by ByteFF-joint-25, 2025-07-14 11:28:57.070203

[ atomtypes ]
;name           bonded.type        at.num        mass        charge   ptype           sigma         epsilon
 f0bf                                   9      0.0000       0.00000       A     3.03450e-01     3.47875e-01    ;  uncertainty sigma = 0.000008, epsilon = 0.001301
 c1bf                                   6      0.0000       0.00000       A     3.39807e-01     4.50244e-01    ;  uncertainty sigma = 0.000018, epsilon = 0.000749
 f2bf                                   9      0.0000       0.00000       A     3.03450e-01     3.47875e-01    ;  uncertainty sigma = 0.000008, epsilon = 0.001301
 f3bf                                   9      0.0000       0.00000       A     3.03450e-01     3.47875e-01    ;  uncertainty sigma = 0.000008, epsilon = 0.001301
 c4bf                                   6      0.0000       0.00000       A     3.31516e-01     4.13637e-01    ;  uncertainty sigma = 0.000009, epsilon = 0.001109
 c5bf                                   6      0.0000       0.00000       A     3.31514e-01     4.13261e-01    ;  uncertainty sigma = 0.000005, epsilon = 0.000910
 c6bf                                   6      0.0000       0.00000       A     3.31524e-01     4.13769e-01    ;  uncertainty sigma = 0.000014, epsilon = 0.000755
 o7bf                                   8      0.0000       0.00000       A     3.15742e-01     3.04478e-01    ;  uncertainty sigma = 0.000034, epsilon = 0.001935
 c8bf                                   6      0.0000       0.00000       A     3.31577e-01     4.13277e-01    ;  uncertainty sigma = 0.000020, epsilon = 0.000425
 c9bf                                   6      0.0000       0.00000       A     3.31550e-01     4.12934e-01    ;  uncertainty sigma = 0.000036, epsilon = 0.001226
 n10bf                                  7      0.0000       0.00000       A     3.26911e-01     4.90562e-01    ;  uncertainty sigma = 0.000022, epsilon = 0.003078
 c11bf                                  6      0.0000       0.00000       A     3.31430e-01     4.12461e-01    ;  uncertainty sigma = 0.000089, epsilon = 0.001757
 o12bf                                  8      0.0000       0.00000       A     3.04768e-01     6.12506e-01    ;  uncertainty sigma = 0.000026, epsilon = 0.002291
 n13bf                                  7      0.0000       0.00000       A     3.27007e-01     4.89774e-01    ;  uncertainty sigma = 0.000036, epsilon = 0.001836
 c14bf                                  6      0.0000       0.00000       A     3.31534e-01     4.12998e-01    ;  uncertainty sigma = 0.000014, epsilon = 0.000843
 c15bf                                  6      0.0000       0.00000       A     3.31527e-01     4.13332e-01    ;  uncertainty sigma = 0.000010, epsilon = 0.000697
 c16bf                                  6      0.0000       0.00000       A     3.31521e-01     4.13253e-01    ;  uncertainty sigma = 0.000005, epsilon = 0.000627
 f17bf                                  9      0.0000       0.00000       A     3.03421e-01     3.47877e-01    ;  uncertainty sigma = 0.000011, epsilon = 0.000887
 c18bf                                  6      0.0000       0.00000       A     3.31521e-01     4.13388e-01    ;  uncertainty sigma = 0.000004, epsilon = 0.000620
 c19bf                                  6      0.0000       0.00000       A     3.31527e-01     4.13602e-01    ;  uncertainty sigma = 0.000004, epsilon = 0.000698
 c20bf                                  6      0.0000       0.00000       A     3.31525e-01     4.13601e-01    ;  uncertainty sigma = 0.000007, epsilon = 0.000733
 c21bf                                  6      0.0000       0.00000       A     3.31539e-01     4.13381e-01    ;  uncertainty sigma = 0.000004, epsilon = 0.001208
 c22bf                                  6      0.0000       0.00000       A     3.31519e-01     4.13136e-01    ;  uncertainty sigma = 0.000006, epsilon = 0.000735
 c23bf                                  6      0.0000       0.00000       A     3.31528e-01     4.13303e-01    ;  uncertainty sigma = 0.000012, epsilon = 0.000565
 n24bf                                  7      0.0000       0.00000       A     3.38387e-01     3.93418e-01    ;  uncertainty sigma = 0.000011, epsilon = 0.000773
 c25bf                                  6      0.0000       0.00000       A     3.31516e-01     4.13581e-01    ;  uncertainty sigma = 0.000006, epsilon = 0.000572
 c26bf                                  6      0.0000       0.00000       A     3.31518e-01     4.13409e-01    ;  uncertainty sigma = 0.000004, epsilon = 0.000593
 c27bf                                  6      0.0000       0.00000       A     3.31514e-01     4.13103e-01    ;  uncertainty sigma = 0.000005, epsilon = 0.000624
 h28bf                                  1      0.0000       0.00000       A     2.62538e-01     6.71611e-02    ;  uncertainty sigma = 0.000012, epsilon = 0.000800
 h29bf                                  1      0.0000       0.00000       A     1.10682e-01     4.19025e-02    ;  uncertainty sigma = 0.000080, epsilon = 0.001074
 h30bf                                  1      0.0000       0.00000       A     1.10658e-01     4.17921e-02    ;  uncertainty sigma = 0.000100, epsilon = 0.000972
 h31bf                                  1      0.0000       0.00000       A     2.62553e-01     6.70208e-02    ;  uncertainty sigma = 0.000011, epsilon = 0.000468
 h32bf                                  1      0.0000       0.00000       A     2.62565e-01     6.71042e-02    ;  uncertainty sigma = 0.000012, epsilon = 0.000451
 h33bf                                  1      0.0000       0.00000       A     2.62565e-01     6.69601e-02    ;  uncertainty sigma = 0.000011, epsilon = 0.000514
 h34bf                                  1      0.0000       0.00000       A     2.62558e-01     6.70547e-02    ;  uncertainty sigma = 0.000013, epsilon = 0.000516
 h35bf                                  1      0.0000       0.00000       A     2.62550e-01     6.71051e-02    ;  uncertainty sigma = 0.000018, epsilon = 0.000451
 h36bf                                  1      0.0000       0.00000       A     2.62567e-01     6.71100e-02    ;  uncertainty sigma = 0.000011, epsilon = 0.000575
 h37bf                                  1      0.0000       0.00000       A     2.53636e-01     6.70246e-02    ;  uncertainty sigma = 0.000013, epsilon = 0.000470
 h38bf                                  1      0.0000       0.00000       A     2.62561e-01     6.71298e-02    ;  uncertainty sigma = 0.000006, epsilon = 0.000455
 h39bf                                  1      0.0000       0.00000       A     2.62568e-01     6.69722e-02    ;  uncertainty sigma = 0.000010, epsilon = 0.000464
 h40bf                                  1      0.0000       0.00000       A     2.62557e-01     6.69726e-02    ;  uncertainty sigma = 0.000012, epsilon = 0.000521

[ moleculetype ]
;name             nrexcl
 MOL                   3

[ atoms ]
;       nr            type      resi   res      atom      cgnr      charge          mass ; qtot
         1            f0bf         1   UNL        f0         1    -0.22905       18.9980 ; qtot   -0.229
         2            c1bf         1   UNL        c1         2     0.70937       12.0110 ; qtot    0.480
         3            f2bf         1   UNL        f2         3    -0.22905       18.9980 ; qtot    0.251
         4            f3bf         1   UNL        f3         4    -0.22905       18.9980 ; qtot    0.022
         5            c4bf         1   UNL        c4         5    -0.16749       12.0110 ; qtot   -0.145
         6            c5bf         1   UNL        c5         6    -0.08749       12.0110 ; qtot   -0.233
         7            c6bf         1   UNL        c6         7     0.11385       12.0110 ; qtot   -0.119
         8            o7bf         1   UNL        o7         8    -0.38813       15.9990 ; qtot   -0.507
         9            c8bf         1   UNL        c8         9     0.59681       12.0110 ; qtot    0.090
        10            c9bf         1   UNL        c9        10    -0.04576       12.0110 ; qtot    0.044
        11           n10bf         1   UNL       n10        11    -0.47413       14.0070 ; qtot   -0.430
        12           c11bf         1   UNL       c11        12     0.80041       12.0110 ; qtot    0.370
        13           o12bf         1   UNL       o12        13    -0.59887       15.9990 ; qtot   -0.229
        14           n13bf         1   UNL       n13        14    -0.48915       14.0070 ; qtot   -0.718
        15           c14bf         1   UNL       c14        15     0.10935       12.0110 ; qtot   -0.608
        16           c15bf         1   UNL       c15        16    -0.21524       12.0110 ; qtot   -0.824
        17           c16bf         1   UNL       c16        17     0.15438       12.0110 ; qtot   -0.669
        18           f17bf         1   UNL       f17        18    -0.14449       18.9980 ; qtot   -0.814
        19           c18bf         1   UNL       c18        19    -0.19305       12.0110 ; qtot   -1.007
        20           c19bf         1   UNL       c19        20    -0.07406       12.0110 ; qtot   -1.081
        21           c20bf         1   UNL       c20        21    -0.18706       12.0110 ; qtot   -1.268
        22           c21bf         1   UNL       c21        22    -0.10097       12.0110 ; qtot   -1.369
        23           c22bf         1   UNL       c22        23    -0.24092       12.0110 ; qtot   -1.610
        24           c23bf         1   UNL       c23        24     0.39652       12.0110 ; qtot   -1.213
        25           n24bf         1   UNL       n24        25    -0.69921       14.0070 ; qtot   -1.912
        26           c25bf         1   UNL       c25        26    -0.11807       12.0110 ; qtot   -2.031
        27           c26bf         1   UNL       c26        27    -0.11259       12.0110 ; qtot   -2.143
        28           c27bf         1   UNL       c27        28    -0.09679       12.0110 ; qtot   -2.240
        29           h28bf         1   UNL       h28        29     0.16649        1.0080 ; qtot   -2.073
        30           h29bf         1   UNL       h29        30     0.34303        1.0080 ; qtot   -1.730
        31           h30bf         1   UNL       h30        31     0.32512        1.0080 ; qtot   -1.405
        32           h31bf         1   UNL       h31        32     0.16845        1.0080 ; qtot   -1.237
        33           h32bf         1   UNL       h32        33     0.15393        1.0080 ; qtot   -1.083
        34           h33bf         1   UNL       h33        34     0.13849        1.0080 ; qtot   -0.944
        35           h34bf         1   UNL       h34        35     0.15505        1.0080 ; qtot   -0.789
        36           h35bf         1   UNL       h35        36     0.17117        1.0080 ; qtot   -0.618
        37           h36bf         1   UNL       h36        37     0.14569        1.0080 ; qtot   -0.473
        38           h37bf         1   UNL       h37        38     0.02625        1.0080 ; qtot   -0.446
        39           h38bf         1   UNL       h38        39     0.15133        1.0080 ; qtot   -0.295
        40           h39bf         1   UNL       h39        40     0.14308        1.0080 ; qtot   -0.152
        41           h40bf         1   UNL       h40        41     0.15185        1.0080 ; qtot    0.000

[ bonds ]
;       ai        aj funct               r               k
         1         2     1        0.135326   286985.907471    ;  uncertainty r = 0.000042, k = 3.079750
         2         3     1        0.135326   286985.907471    ;  uncertainty r = 0.000042, k = 3.079750
         2         4     1        0.135326   286985.907471    ;  uncertainty r = 0.000042, k = 3.079750
         2         5     1        0.149137   215527.840332    ;  uncertainty r = 0.000061, k = 1.127531
         5         6     1        0.138556   347781.567480    ;  uncertainty r = 0.000101, k = 2.673940
         5        28     1        0.138974   350509.007373    ;  uncertainty r = 0.000051, k = 2.268716
         6         7     1        0.139094   353843.464355    ;  uncertainty r = 0.000040, k = 3.656120
         6        29     1        0.108679   332885.490674    ;  uncertainty r = 0.000010, k = 0.906583
         7         8     1        0.138532   314308.648145    ;  uncertainty r = 0.000052, k = 8.971859
         7        26     1        0.139222   354352.674316    ;  uncertainty r = 0.000036, k = 2.697097
         8         9     1        0.137456   295567.576465    ;  uncertainty r = 0.000121, k = 7.043869
         9        10     1        0.140110   355790.847705    ;  uncertainty r = 0.000180, k = 18.434716
         9        25     1        0.131673   342519.850391    ;  uncertainty r = 0.000195, k = 23.816176
        10        11     1        0.140096   339046.216162    ;  uncertainty r = 0.000118, k = 8.055134
        10        22     1        0.139587   350172.658105    ;  uncertainty r = 0.000051, k = 12.669227
        11        12     1        0.139930   382450.287500    ;  uncertainty r = 0.000140, k = 14.422842
        11        30     1        0.101870   417728.195264    ;  uncertainty r = 0.000093, k = 3.473106
        12        13     1        0.124145   784756.188281    ;  uncertainty r = 0.000126, k = 12.841145
        12        14     1        0.139923   394748.601855    ;  uncertainty r = 0.000128, k = 16.231983
        14        15     1        0.140956   330534.365625    ;  uncertainty r = 0.000092, k = 8.454855
        14        31     1        0.101907   422561.603955    ;  uncertainty r = 0.000032, k = 2.613752
        15        16     1        0.140368   361565.784082    ;  uncertainty r = 0.000020, k = 7.445257
        15        21     1        0.140354   352851.015674    ;  uncertainty r = 0.000036, k = 2.775974
        16        17     1        0.138841   358562.058203    ;  uncertainty r = 0.000031, k = 4.556429
        16        32     1        0.108734   338802.821973    ;  uncertainty r = 0.000032, k = 2.801142
        17        18     1        0.135676   339113.148926    ;  uncertainty r = 0.000030, k = 1.733915
        17        19     1        0.139011   359540.895605    ;  uncertainty r = 0.000025, k = 3.347531
        19        20     1        0.139655   373227.969043    ;  uncertainty r = 0.000014, k = 1.879661
        19        33     1        0.108754   336847.777490    ;  uncertainty r = 0.000010, k = 0.785304
        20        21     1        0.139440   367190.051514    ;  uncertainty r = 0.000040, k = 2.540898
        20        34     1        0.108716   333022.344043    ;  uncertainty r = 0.000010, k = 1.273521
        21        35     1        0.108678   336240.351807    ;  uncertainty r = 0.000010, k = 2.275761
        22        23     1        0.139560   376722.211719    ;  uncertainty r = 0.000043, k = 3.130764
        22        36     1        0.108477   334523.798389    ;  uncertainty r = 0.000051, k = 3.409764
        23        24     1        0.139039   373281.443750    ;  uncertainty r = 0.000047, k = 3.782626
        23        37     1        0.108806   337266.713770    ;  uncertainty r = 0.000012, k = 1.595174
        24        25     1        0.134174   386160.574121    ;  uncertainty r = 0.000069, k = 8.080806
        24        38     1        0.108937   336014.271777    ;  uncertainty r = 0.000016, k = 1.810751
        26        27     1        0.139275   372627.234082    ;  uncertainty r = 0.000029, k = 1.736828
        26        39     1        0.108795   335979.132715    ;  uncertainty r = 0.000019, k = 0.979490
        27        28     1        0.139480   367362.069482    ;  uncertainty r = 0.000037, k = 2.422113
        27        40     1        0.108743   333039.504980    ;  uncertainty r = 0.000015, k = 1.385187
        28        41     1        0.108641   332705.811572    ;  uncertainty r = 0.000020, k = 0.826441

[ angles ]
;       ai        aj        ak funct           theta             cth
         1         2         3     1      107.682266      790.161449    ;  uncertainty theta = 0.001820, k = 0.019275
         1         2         4     1      107.682266      790.161449    ;  uncertainty theta = 0.001820, k = 0.019275
         1         2         5     1      112.945602      661.607322    ;  uncertainty theta = 0.002125, k = 0.029098
         2         5         6     1      115.496521      350.324802    ;  uncertainty theta = 0.005914, k = 0.124688
         2         5        28     1      116.478043      341.375162    ;  uncertainty theta = 0.005609, k = 0.113786
         3         2         4     1      107.682266      790.161449    ;  uncertainty theta = 0.001820, k = 0.019275
         3         2         5     1      112.945602      661.607322    ;  uncertainty theta = 0.002125, k = 0.029098
         4         2         5     1      112.945602      661.607322    ;  uncertainty theta = 0.002125, k = 0.029098
         5         6         7     1      118.864952      508.527418    ;  uncertainty theta = 0.002845, k = 0.197951
         5         6        29     1      119.226295      277.135255    ;  uncertainty theta = 0.002912, k = 0.100269
         5        28        27     1      119.255554      512.146537    ;  uncertainty theta = 0.001818, k = 0.042517
         5        28        41     1      118.405869      274.175408    ;  uncertainty theta = 0.002940, k = 0.043008
         6         5        28     1      122.656799      467.566086    ;  uncertainty theta = 0.003025, k = 0.100387
         6         7         8     1      119.209549      406.140145    ;  uncertainty theta = 0.002397, k = 0.063411
         6         7        26     1      121.950890      373.168480    ;  uncertainty theta = 0.004064, k = 0.157753
         7         6        29     1      120.623009      281.233099    ;  uncertainty theta = 0.003246, k = 0.049393
         7         8         9     1      113.059975      473.447729    ;  uncertainty theta = 0.007514, k = 0.198938
         7        26        27     1      117.594139      518.928459    ;  uncertainty theta = 0.002508, k = 0.052964
         7        26        39     1      120.314964      277.616693    ;  uncertainty theta = 0.001021, k = 0.060899
         8         7        26     1      120.049278      419.740666    ;  uncertainty theta = 0.001725, k = 0.093993
         8         9        10     1      116.530540      390.693960    ;  uncertainty theta = 0.012172, k = 0.316589
         8         9        25     1      116.747131      568.431731    ;  uncertainty theta = 0.007457, k = 0.117546
         9        10        11     1      117.092575      491.278569    ;  uncertainty theta = 0.007126, k = 0.229131
         9        10        22     1      117.575417      353.893836    ;  uncertainty theta = 0.008911, k = 0.132789
         9        25        24     1      118.982071      388.605918    ;  uncertainty theta = 0.003083, k = 0.211257
        10         9        25     1      125.653397      515.566722    ;  uncertainty theta = 0.002376, k = 0.153093
        10        11        12     1      118.191467      382.545100    ;  uncertainty theta = 0.006597, k = 0.353697
        10        11        30     1      114.704041      335.957688    ;  uncertainty theta = 0.005639, k = 0.195191
        10        22        23     1      118.664589      535.632314    ;  uncertainty theta = 0.002867, k = 0.172990
        10        22        36     1      117.850075      264.486868    ;  uncertainty theta = 0.003879, k = 0.116474
        11        10        22     1      122.491959      468.987673    ;  uncertainty theta = 0.005717, k = 0.226574
        11        12        13     1      125.188744      728.667579    ;  uncertainty theta = 0.005334, k = 0.101797
        11        12        14     1      111.561890      571.909246    ;  uncertainty theta = 0.005894, k = 0.242661
        12        11        30     1      118.027504      326.505382    ;  uncertainty theta = 0.007877, k = 0.178567
        12        14        15     1      118.492371      403.107996    ;  uncertainty theta = 0.007518, k = 0.047609
        12        14        31     1      117.005264      319.866149    ;  uncertainty theta = 0.007134, k = 0.165418
        13        12        14     1      125.123268      717.451872    ;  uncertainty theta = 0.004731, k = 0.061264
        14        15        16     1      119.616798      541.344263    ;  uncertainty theta = 0.003817, k = 0.137637
        14        15        21     1      120.137535      543.978927    ;  uncertainty theta = 0.004468, k = 0.101459
        15        14        31     1      114.349586      301.298755    ;  uncertainty theta = 0.006972, k = 0.454938
        15        16        17     1      117.673996      496.605099    ;  uncertainty theta = 0.003788, k = 0.116732
        15        16        32     1      120.157509      263.579774    ;  uncertainty theta = 0.001683, k = 0.044585
        15        21        20     1      118.852211      510.794602    ;  uncertainty theta = 0.001845, k = 0.097341
        15        21        35     1      118.809998      266.909446    ;  uncertainty theta = 0.001089, k = 0.049333
        16        15        21     1      120.175049      387.194227    ;  uncertainty theta = 0.006902, k = 0.149478
        16        17        18     1      118.462082      511.116913    ;  uncertainty theta = 0.001793, k = 0.100002
        16        17        19     1      123.005615      357.248519    ;  uncertainty theta = 0.005703, k = 0.161724
        17        16        32     1      121.479149      297.543395    ;  uncertainty theta = 0.001019, k = 0.106731
        17        19        20     1      116.330429      493.344010    ;  uncertainty theta = 0.002742, k = 0.099349
        17        19        33     1      121.145874      282.685267    ;  uncertainty theta = 0.001364, k = 0.054354
        18        17        19     1      119.352127      515.119567    ;  uncertainty theta = 0.002180, k = 0.054427
        19        20        21     1      121.411705      513.745352    ;  uncertainty theta = 0.003000, k = 0.032666
        19        20        34     1      119.789902      282.696056    ;  uncertainty theta = 0.000729, k = 0.011548
        20        19        33     1      122.154236      282.302785    ;  uncertainty theta = 0.001221, k = 0.015500
        20        21        35     1      121.054367      320.126532    ;  uncertainty theta = 0.001235, k = 0.138247
        21        20        34     1      119.637314      276.516140    ;  uncertainty theta = 0.001837, k = 0.070340
        22        23        24     1      116.662033      486.639338    ;  uncertainty theta = 0.002659, k = 0.164042
        22        23        37     1      121.692772      278.904338    ;  uncertainty theta = 0.003629, k = 0.116071
        23        22        36     1      121.491959      306.835200    ;  uncertainty theta = 0.004314, k = 0.137900
        23        24        25     1      122.018661      680.497696    ;  uncertainty theta = 0.002657, k = 0.057695
        23        24        38     1      121.479836      279.479466    ;  uncertainty theta = 0.001106, k = 0.075570
        24        23        37     1      121.531288      284.776501    ;  uncertainty theta = 0.000829, k = 0.071895
        25        24        38     1      116.528885      326.284582    ;  uncertainty theta = 0.003532, k = 0.089660
        26        27        28     1      120.533386      511.752021    ;  uncertainty theta = 0.002153, k = 0.049486
        26        27        40     1      119.824585      284.259310    ;  uncertainty theta = 0.001720, k = 0.029816
        27        26        39     1      121.377441      292.172686    ;  uncertainty theta = 0.001338, k = 0.032523
        27        28        41     1      120.654930      286.912903    ;  uncertainty theta = 0.002806, k = 0.061171
        28        27        40     1      119.962425      281.972813    ;  uncertainty theta = 0.000658, k = 0.030298

[ dihedrals ] ; propers for gromacs 4.5 or higher, use funct 9
;       ai        aj        ak        al funct           phase               k        pn
         1         2         5         6     9        0.000000       -0.828907         1    ;  uncertainty k = 0.452622
         1         2         5         6     9      180.000000        2.803201         2    ;  uncertainty k = 0.128773
         1         2         5         6     9        0.000000        0.701501         3    ;  uncertainty k = 0.032688
         1         2         5         6     9      180.000000        0.136337         4    ;  uncertainty k = 0.047426
         1         2         5        28     9        0.000000       -0.823211         1    ;  uncertainty k = 0.470326
         1         2         5        28     9      180.000000        2.802694         2    ;  uncertainty k = 0.082906
         1         2         5        28     9        0.000000        0.688763         3    ;  uncertainty k = 0.058349
         1         2         5        28     9      180.000000        0.135610         4    ;  uncertainty k = 0.041085
         2         5         6         7     9        0.000000        0.137531         1    ;  uncertainty k = 0.382297
         2         5         6         7     9      180.000000       10.226747         2    ;  uncertainty k = 0.659410
         2         5         6         7     9        0.000000        1.461318         3    ;  uncertainty k = 0.335069
         2         5         6         7     9      180.000000        1.764611         4    ;  uncertainty k = 0.220745
         2         5         6        29     9        0.000000        0.263434         1    ;  uncertainty k = 0.414605
         2         5         6        29     9      180.000000        8.781867         2    ;  uncertainty k = 0.304602
         2         5         6        29     9        0.000000        0.696019         3    ;  uncertainty k = 0.144996
         2         5         6        29     9      180.000000        1.087930         4    ;  uncertainty k = 0.155232
         2         5        28        27     9        0.000000        0.078886         1    ;  uncertainty k = 0.186674
         2         5        28        27     9      180.000000       10.351755         2    ;  uncertainty k = 0.778180
         2         5        28        27     9        0.000000        1.523036         3    ;  uncertainty k = 0.299974
         2         5        28        27     9      180.000000        1.886244         4    ;  uncertainty k = 0.383053
         2         5        28        41     9        0.000000        0.018303         1    ;  uncertainty k = 0.362063
         2         5        28        41     9      180.000000        8.851524         2    ;  uncertainty k = 0.560933
         2         5        28        41     9        0.000000        0.689709         3    ;  uncertainty k = 0.261465
         2         5        28        41     9      180.000000        1.019568         4    ;  uncertainty k = 0.221458
         3         2         5         6     9        0.000000       -0.828907         1    ;  uncertainty k = 0.452622
         3         2         5         6     9      180.000000        2.803201         2    ;  uncertainty k = 0.128773
         3         2         5         6     9        0.000000        0.701501         3    ;  uncertainty k = 0.032688
         3         2         5         6     9      180.000000        0.136337         4    ;  uncertainty k = 0.047426
         3         2         5        28     9        0.000000       -0.823211         1    ;  uncertainty k = 0.470326
         3         2         5        28     9      180.000000        2.802694         2    ;  uncertainty k = 0.082906
         3         2         5        28     9        0.000000        0.688763         3    ;  uncertainty k = 0.058349
         3         2         5        28     9      180.000000        0.135610         4    ;  uncertainty k = 0.041085
         4         2         5         6     9        0.000000       -0.828907         1    ;  uncertainty k = 0.452622
         4         2         5         6     9      180.000000        2.803201         2    ;  uncertainty k = 0.128773
         4         2         5         6     9        0.000000        0.701501         3    ;  uncertainty k = 0.032688
         4         2         5         6     9      180.000000        0.136337         4    ;  uncertainty k = 0.047426
         4         2         5        28     9        0.000000       -0.823211         1    ;  uncertainty k = 0.470326
         4         2         5        28     9      180.000000        2.802694         2    ;  uncertainty k = 0.082906
         4         2         5        28     9        0.000000        0.688763         3    ;  uncertainty k = 0.058349
         4         2         5        28     9      180.000000        0.135610         4    ;  uncertainty k = 0.041085
         5         6         7         8     9        0.000000       -0.054168         1    ;  uncertainty k = 0.319743
         5         6         7         8     9      180.000000       11.162461         2    ;  uncertainty k = 0.228187
         5         6         7         8     9        0.000000        1.352214         3    ;  uncertainty k = 0.202966
         5         6         7         8     9      180.000000        1.594604         4    ;  uncertainty k = 0.163376
         5         6         7        26     9        0.000000       -0.062398         1    ;  uncertainty k = 0.292333
         5         6         7        26     9      180.000000        9.245555         2    ;  uncertainty k = 0.592081
         5         6         7        26     9        0.000000       -0.008936         3    ;  uncertainty k = 0.582500
         5         6         7        26     9      180.000000        1.177935         4    ;  uncertainty k = 0.484619
         5        28        27        26     9        0.000000       -0.243848         1    ;  uncertainty k = 0.189764
         5        28        27        26     9      180.000000       13.673831         2    ;  uncertainty k = 0.341798
         5        28        27        26     9        0.000000       -0.849479         3    ;  uncertainty k = 0.421712
         5        28        27        26     9      180.000000        0.713106         4    ;  uncertainty k = 0.296868
         5        28        27        40     9        0.000000        0.068788         1    ;  uncertainty k = 0.266779
         5        28        27        40     9      180.000000        7.561180         2    ;  uncertainty k = 0.317046
         5        28        27        40     9        0.000000        1.473541         3    ;  uncertainty k = 0.220229
         5        28        27        40     9      180.000000        1.732188         4    ;  uncertainty k = 0.159061
         6         5        28        27     9        0.000000       -0.238113         1    ;  uncertainty k = 0.209093
         6         5        28        27     9      180.000000       12.299165         2    ;  uncertainty k = 0.499371
         6         5        28        27     9        0.000000       -0.649051         3    ;  uncertainty k = 0.413941
         6         5        28        27     9      180.000000        0.809773         4    ;  uncertainty k = 0.356024
         6         5        28        41     9        0.000000        0.220952         1    ;  uncertainty k = 0.223729
         6         5        28        41     9      180.000000        7.534682         2    ;  uncertainty k = 0.440507
         6         5        28        41     9        0.000000        1.373084         3    ;  uncertainty k = 0.455761
         6         5        28        41     9      180.000000        1.631125         4    ;  uncertainty k = 0.232509
         6         7         8         9     9        0.000000        4.111151         1    ;  uncertainty k = 0.463346
         6         7         8         9     9      180.000000        5.444233         2    ;  uncertainty k = 0.180211
         6         7         8         9     9        0.000000        0.337321         3    ;  uncertainty k = 0.385525
         6         7         8         9     9      180.000000        0.284107         4    ;  uncertainty k = 0.144689
         6         7        26        27     9        0.000000       -0.003466         1    ;  uncertainty k = 0.080228
         6         7        26        27     9      180.000000       10.021365         2    ;  uncertainty k = 0.550002
         6         7        26        27     9        0.000000       -0.157711         3    ;  uncertainty k = 0.411351
         6         7        26        27     9      180.000000        1.116828         4    ;  uncertainty k = 0.409266
         6         7        26        39     9        0.000000        0.278178         1    ;  uncertainty k = 0.157174
         6         7        26        39     9      180.000000        6.395045         2    ;  uncertainty k = 0.731884
         6         7        26        39     9        0.000000        1.387907         3    ;  uncertainty k = 0.416133
         6         7        26        39     9      180.000000        1.593558         4    ;  uncertainty k = 0.202098
         7         6         5        28     9        0.000000       -0.251338         1    ;  uncertainty k = 0.225811
         7         6         5        28     9      180.000000       11.882309         2    ;  uncertainty k = 0.212882
         7         6         5        28     9        0.000000       -0.431962         3    ;  uncertainty k = 0.492564
         7         6         5        28     9      180.000000        0.966872         4    ;  uncertainty k = 0.329892
         7         8         9        10     9        0.000000        5.742984         1    ;  uncertainty k = 0.996506
         7         8         9        10     9      180.000000        3.878653         2    ;  uncertainty k = 0.444863
         7         8         9        10     9        0.000000        0.580854         3    ;  uncertainty k = 0.248381
         7         8         9        10     9      180.000000        0.086291         4    ;  uncertainty k = 0.156290
         7         8         9        25     9        0.000000        2.095892         1    ;  uncertainty k = 1.084879
         7         8         9        25     9      180.000000        6.456939         2    ;  uncertainty k = 0.121606
         7         8         9        25     9        0.000000        0.082868         3    ;  uncertainty k = 0.422006
         7         8         9        25     9      180.000000        0.151585         4    ;  uncertainty k = 0.120974
         7        26        27        28     9        0.000000       -0.274443         1    ;  uncertainty k = 0.209994
         7        26        27        28     9      180.000000       14.193549         2    ;  uncertainty k = 0.243702
         7        26        27        28     9        0.000000       -0.825857         3    ;  uncertainty k = 0.472075
         7        26        27        28     9      180.000000        0.811988         4    ;  uncertainty k = 0.227337
         7        26        27        40     9        0.000000        0.030124         1    ;  uncertainty k = 0.066195
         7        26        27        40     9      180.000000        7.830210         2    ;  uncertainty k = 0.232718
         7        26        27        40     9        0.000000        1.358974         3    ;  uncertainty k = 0.159621
         7        26        27        40     9      180.000000        1.757685         4    ;  uncertainty k = 0.144431
         8         7         6        29     9        0.000000        0.246879         1    ;  uncertainty k = 0.126181
         8         7         6        29     9      180.000000        8.724117         2    ;  uncertainty k = 0.255702
         8         7         6        29     9        0.000000        0.898640         3    ;  uncertainty k = 0.304406
         8         7         6        29     9      180.000000        1.116873         4    ;  uncertainty k = 0.210214
         8         7        26        27     9        0.000000       -0.042015         1    ;  uncertainty k = 0.399401
         8         7        26        27     9      180.000000       11.193092         2    ;  uncertainty k = 0.404423
         8         7        26        27     9        0.000000        1.305480         3    ;  uncertainty k = 0.216138
         8         7        26        27     9      180.000000        1.621828         4    ;  uncertainty k = 0.141001
         8         7        26        39     9        0.000000        0.072912         1    ;  uncertainty k = 0.103916
         8         7        26        39     9      180.000000        8.608525         2    ;  uncertainty k = 0.251062
         8         7        26        39     9        0.000000        0.860920         3    ;  uncertainty k = 0.274176
         8         7        26        39     9      180.000000        1.057134         4    ;  uncertainty k = 0.175952
         8         9        10        11     9        0.000000        0.265513         1    ;  uncertainty k = 0.638101
         8         9        10        11     9      180.000000        8.312027         2    ;  uncertainty k = 0.483820
         8         9        10        11     9        0.000000        0.783388         3    ;  uncertainty k = 0.198631
         8         9        10        11     9      180.000000        1.337313         4    ;  uncertainty k = 0.293172
         8         9        10        22     9        0.000000        0.758628         1    ;  uncertainty k = 0.302974
         8         9        10        22     9      180.000000        5.954667         2    ;  uncertainty k = 0.582835
         8         9        10        22     9        0.000000        0.897889         3    ;  uncertainty k = 0.157549
         8         9        10        22     9      180.000000        1.407331         4    ;  uncertainty k = 0.461766
         8         9        25        24     9        0.000000        0.645014         1    ;  uncertainty k = 1.001765
         8         9        25        24     9      180.000000       16.604500         2    ;  uncertainty k = 0.284032
         8         9        25        24     9        0.000000        2.791706         3    ;  uncertainty k = 0.527017
         8         9        25        24     9      180.000000        1.944515         4    ;  uncertainty k = 0.152085
         9         8         7        26     9        0.000000        4.031477         1    ;  uncertainty k = 0.324366
         9         8         7        26     9      180.000000        5.326864         2    ;  uncertainty k = 0.098303
         9         8         7        26     9        0.000000        0.404902         3    ;  uncertainty k = 0.412078
         9         8         7        26     9      180.000000        0.296999         4    ;  uncertainty k = 0.116646
         9        10        11        12     9        0.000000        1.826178         1    ;  uncertainty k = 1.230612
         9        10        11        12     9      180.000000        3.914688         2    ;  uncertainty k = 0.505911
         9        10        11        12     9        0.000000        0.267513         3    ;  uncertainty k = 0.197086
         9        10        11        12     9      180.000000       -0.000673         4    ;  uncertainty k = 0.064722
         9        10        11        30     9        0.000000        1.809919         1    ;  uncertainty k = 1.049578
         9        10        11        30     9      180.000000        2.184103         2    ;  uncertainty k = 0.856980
         9        10        11        30     9        0.000000       -0.055926         3    ;  uncertainty k = 0.368395
         9        10        11        30     9      180.000000       -0.094869         4    ;  uncertainty k = 0.135654
         9        10        22        23     9        0.000000       -0.045324         1    ;  uncertainty k = 0.346307
         9        10        22        23     9      180.000000        9.675692         2    ;  uncertainty k = 0.563612
         9        10        22        23     9        0.000000        0.089574         3    ;  uncertainty k = 0.421919
         9        10        22        23     9      180.000000        1.428809         4    ;  uncertainty k = 0.224622
         9        10        22        36     9        0.000000       -0.056218         1    ;  uncertainty k = 0.336146
         9        10        22        36     9      180.000000        7.154486         2    ;  uncertainty k = 0.386951
         9        10        22        36     9        0.000000        1.228551         3    ;  uncertainty k = 0.135670
         9        10        22        36     9      180.000000        1.474946         4    ;  uncertainty k = 0.079159
         9        25        24        23     9        0.000000       -0.133462         1    ;  uncertainty k = 0.695196
         9        25        24        23     9      180.000000       15.215297         2    ;  uncertainty k = 0.215444
         9        25        24        23     9        0.000000        0.737113         3    ;  uncertainty k = 0.573056
         9        25        24        23     9      180.000000        1.291837         4    ;  uncertainty k = 0.321443
         9        25        24        38     9        0.000000        0.068263         1    ;  uncertainty k = 0.501141
         9        25        24        38     9      180.000000       15.223381         2    ;  uncertainty k = 0.588647
         9        25        24        38     9        0.000000        2.120235         3    ;  uncertainty k = 0.703419
         9        25        24        38     9      180.000000        1.291633         4    ;  uncertainty k = 0.573906
        10         9        25        24     9        0.000000        0.676654         1    ;  uncertainty k = 0.481269
        10         9        25        24     9      180.000000       12.337756         2    ;  uncertainty k = 0.384550
        10         9        25        24     9        0.000000        1.799559         3    ;  uncertainty k = 0.431189
        10         9        25        24     9      180.000000        1.358998         4    ;  uncertainty k = 0.224517
        10        11        12        13     9        0.000000        6.946396         1    ;  uncertainty k = 0.908900
        10        11        12        13     9      180.000000        9.319618         2    ;  uncertainty k = 0.343353
        10        11        12        13     9        0.000000        1.327877         3    ;  uncertainty k = 0.355434
        10        11        12        13     9      180.000000       -0.511188         4    ;  uncertainty k = 0.273827
        10        11        12        14     9        0.000000        8.105468         1    ;  uncertainty k = 0.960701
        10        11        12        14     9      180.000000        6.178828         2    ;  uncertainty k = 0.998553
        10        11        12        14     9        0.000000        0.643769         3    ;  uncertainty k = 0.164460
        10        11        12        14     9      180.000000       -0.172728         4    ;  uncertainty k = 0.439495
        10        22        23        24     9        0.000000       -0.219717         1    ;  uncertainty k = 0.258711
        10        22        23        24     9      180.000000       13.489343         2    ;  uncertainty k = 0.300398
        10        22        23        24     9        0.000000       -1.177534         3    ;  uncertainty k = 0.825067
        10        22        23        24     9      180.000000        0.747942         4    ;  uncertainty k = 0.391509
        10        22        23        37     9        0.000000        0.313279         1    ;  uncertainty k = 0.255485
        10        22        23        37     9      180.000000        7.639764         2    ;  uncertainty k = 0.597194
        10        22        23        37     9        0.000000        1.394864         3    ;  uncertainty k = 0.301687
        10        22        23        37     9      180.000000        1.632044         4    ;  uncertainty k = 0.213681
        11        10         9        25     9        0.000000        0.353474         1    ;  uncertainty k = 0.449760
        11        10         9        25     9      180.000000        6.335181         2    ;  uncertainty k = 0.770062
        11        10         9        25     9        0.000000        0.762700         3    ;  uncertainty k = 0.328523
        11        10         9        25     9      180.000000        1.504660         4    ;  uncertainty k = 0.296384
        11        10        22        23     9        0.000000       -0.104134         1    ;  uncertainty k = 0.141360
        11        10        22        23     9      180.000000       11.628689         2    ;  uncertainty k = 0.794318
        11        10        22        23     9        0.000000        1.107582         3    ;  uncertainty k = 0.487862
        11        10        22        23     9      180.000000        1.611587         4    ;  uncertainty k = 0.361445
        11        10        22        36     9        0.000000       -0.339226         1    ;  uncertainty k = 0.473729
        11        10        22        36     9      180.000000        8.956188         2    ;  uncertainty k = 0.817388
        11        10        22        36     9        0.000000        0.715306         3    ;  uncertainty k = 0.150871
        11        10        22        36     9      180.000000        1.268139         4    ;  uncertainty k = 0.406221
        11        12        14        15     9        0.000000        6.694479         1    ;  uncertainty k = 0.768634
        11        12        14        15     9      180.000000        5.967482         2    ;  uncertainty k = 0.833024
        11        12        14        15     9        0.000000        0.530075         3    ;  uncertainty k = 0.308267
        11        12        14        15     9      180.000000       -0.126353         4    ;  uncertainty k = 0.242436
        11        12        14        31     9        0.000000        2.775757         1    ;  uncertainty k = 0.989184
        11        12        14        31     9      180.000000        4.651014         2    ;  uncertainty k = 1.159303
        11        12        14        31     9        0.000000        0.915014         3    ;  uncertainty k = 0.239440
        11        12        14        31     9      180.000000       -0.379761         4    ;  uncertainty k = 0.245921
        12        11        10        22     9        0.000000        1.590483         1    ;  uncertainty k = 1.223145
        12        11        10        22     9      180.000000        3.933825         2    ;  uncertainty k = 0.529571
        12        11        10        22     9        0.000000        0.641747         3    ;  uncertainty k = 0.289819
        12        11        10        22     9      180.000000        0.355266         4    ;  uncertainty k = 0.131763
        12        14        15        16     9        0.000000        0.775374         1    ;  uncertainty k = 0.822932
        12        14        15        16     9      180.000000        4.900466         2    ;  uncertainty k = 0.216708
        12        14        15        16     9        0.000000        0.972337         3    ;  uncertainty k = 0.260605
        12        14        15        16     9      180.000000        0.309355         4    ;  uncertainty k = 0.087419
        12        14        15        21     9        0.000000        1.183877         1    ;  uncertainty k = 0.795649
        12        14        15        21     9      180.000000        4.914034         2    ;  uncertainty k = 0.238479
        12        14        15        21     9        0.000000        1.012429         3    ;  uncertainty k = 0.236104
        12        14        15        21     9      180.000000        0.272020         4    ;  uncertainty k = 0.086197
        13        12        11        30     9        0.000000        0.648440         1    ;  uncertainty k = 0.303764
        13        12        11        30     9      180.000000        8.524099         2    ;  uncertainty k = 0.415172
        13        12        11        30     9        0.000000        1.856516         3    ;  uncertainty k = 0.251833
        13        12        11        30     9      180.000000       -0.422623         4    ;  uncertainty k = 0.241464
        13        12        14        15     9        0.000000        6.170684         1    ;  uncertainty k = 0.910403
        13        12        14        15     9      180.000000        9.581500         2    ;  uncertainty k = 0.333031
        13        12        14        15     9        0.000000        1.219848         3    ;  uncertainty k = 0.134571
        13        12        14        15     9      180.000000       -0.503301         4    ;  uncertainty k = 0.151063
        13        12        14        31     9        0.000000        0.879097         1    ;  uncertainty k = 0.457934
        13        12        14        31     9      180.000000        9.405797         2    ;  uncertainty k = 0.196354
        13        12        14        31     9        0.000000        2.105146         3    ;  uncertainty k = 0.184134
        13        12        14        31     9      180.000000       -0.259675         4    ;  uncertainty k = 0.197241
        14        12        11        30     9        0.000000        3.029810         1    ;  uncertainty k = 0.969956
        14        12        11        30     9      180.000000        4.695931         2    ;  uncertainty k = 1.109671
        14        12        11        30     9        0.000000        0.831625         3    ;  uncertainty k = 0.228809
        14        12        11        30     9      180.000000       -0.386484         4    ;  uncertainty k = 0.278716
        14        15        16        17     9        0.000000       -0.080958         1    ;  uncertainty k = 0.154173
        14        15        16        17     9      180.000000       10.514356         2    ;  uncertainty k = 0.507192
        14        15        16        17     9        0.000000        1.117770         3    ;  uncertainty k = 0.271397
        14        15        16        17     9      180.000000        1.583252         4    ;  uncertainty k = 0.308421
        14        15        16        32     9        0.000000       -0.101324         1    ;  uncertainty k = 0.108672
        14        15        16        32     9      180.000000        7.965490         2    ;  uncertainty k = 0.454172
        14        15        16        32     9        0.000000        0.753297         3    ;  uncertainty k = 0.190927
        14        15        16        32     9      180.000000        1.173284         4    ;  uncertainty k = 0.196993
        14        15        21        20     9        0.000000       -0.035384         1    ;  uncertainty k = 0.279703
        14        15        21        20     9      180.000000       10.545499         2    ;  uncertainty k = 0.538148
        14        15        21        20     9        0.000000        1.149357         3    ;  uncertainty k = 0.394655
        14        15        21        20     9      180.000000        1.651328         4    ;  uncertainty k = 0.290419
        14        15        21        35     9        0.000000       -0.092194         1    ;  uncertainty k = 0.258840
        14        15        21        35     9      180.000000        8.078488         2    ;  uncertainty k = 0.466422
        14        15        21        35     9        0.000000        0.796120         3    ;  uncertainty k = 0.241919
        14        15        21        35     9      180.000000        1.205961         4    ;  uncertainty k = 0.218687
        15        16        17        18     9        0.000000       -0.020973         1    ;  uncertainty k = 0.103284
        15        16        17        18     9      180.000000       12.311130         2    ;  uncertainty k = 0.601804
        15        16        17        18     9        0.000000        1.775057         3    ;  uncertainty k = 0.402112
        15        16        17        18     9      180.000000        1.431655         4    ;  uncertainty k = 0.187406
        15        16        17        19     9        0.000000       -0.157349         1    ;  uncertainty k = 0.143037
        15        16        17        19     9      180.000000        9.541593         2    ;  uncertainty k = 0.598736
        15        16        17        19     9        0.000000       -0.097674         3    ;  uncertainty k = 0.363044
        15        16        17        19     9      180.000000        1.219789         4    ;  uncertainty k = 0.423979
        15        21        20        19     9        0.000000       -0.302771         1    ;  uncertainty k = 0.213541
        15        21        20        19     9      180.000000       14.446210         2    ;  uncertainty k = 0.235288
        15        21        20        19     9        0.000000       -0.861096         3    ;  uncertainty k = 0.305490
        15        21        20        19     9      180.000000        0.769473         4    ;  uncertainty k = 0.254024
        15        21        20        34     9        0.000000       -0.056313         1    ;  uncertainty k = 0.136174
        15        21        20        34     9      180.000000        8.108607         2    ;  uncertainty k = 0.454052
        15        21        20        34     9        0.000000        1.343739         3    ;  uncertainty k = 0.277750
        15        21        20        34     9      180.000000        1.633800         4    ;  uncertainty k = 0.072609
        16        15        14        31     9        0.000000        1.430071         1    ;  uncertainty k = 0.801302
        16        15        14        31     9      180.000000        3.862681         2    ;  uncertainty k = 0.285959
        16        15        14        31     9        0.000000        0.789843         3    ;  uncertainty k = 0.178456
        16        15        14        31     9      180.000000        0.187505         4    ;  uncertainty k = 0.058788
        16        15        21        20     9        0.000000       -0.231834         1    ;  uncertainty k = 0.180689
        16        15        21        20     9      180.000000        9.925505         2    ;  uncertainty k = 0.296820
        16        15        21        20     9        0.000000       -0.022137         3    ;  uncertainty k = 0.185482
        16        15        21        20     9      180.000000        1.219745         4    ;  uncertainty k = 0.223393
        16        15        21        35     9        0.000000        0.184636         1    ;  uncertainty k = 0.447371
        16        15        21        35     9      180.000000        6.974821         2    ;  uncertainty k = 0.490332
        16        15        21        35     9        0.000000        1.353937         3    ;  uncertainty k = 0.345802
        16        15        21        35     9      180.000000        1.557147         4    ;  uncertainty k = 0.152508
        16        17        19        20     9        0.000000       -0.054196         1    ;  uncertainty k = 0.203708
        16        17        19        20     9      180.000000        9.787393         2    ;  uncertainty k = 0.541638
        16        17        19        20     9        0.000000       -0.196247         3    ;  uncertainty k = 0.462379
        16        17        19        20     9      180.000000        1.142396         4    ;  uncertainty k = 0.212479
        16        17        19        33     9        0.000000       -0.082804         1    ;  uncertainty k = 0.233511
        16        17        19        33     9      180.000000        5.741022         2    ;  uncertainty k = 0.623142
        16        17        19        33     9        0.000000        1.264684         3    ;  uncertainty k = 0.301749
        16        17        19        33     9      180.000000        1.508724         4    ;  uncertainty k = 0.120221
        17        16        15        21     9        0.000000       -0.070871         1    ;  uncertainty k = 0.177865
        17        16        15        21     9      180.000000        9.671941         2    ;  uncertainty k = 0.545657
        17        16        15        21     9        0.000000       -0.046900         3    ;  uncertainty k = 0.262690
        17        16        15        21     9      180.000000        1.242228         4    ;  uncertainty k = 0.216518
        17        19        20        21     9        0.000000       -0.160802         1    ;  uncertainty k = 0.235423
        17        19        20        21     9      180.000000       15.239134         2    ;  uncertainty k = 0.320958
        17        19        20        21     9        0.000000       -1.069332         3    ;  uncertainty k = 0.451778
        17        19        20        21     9      180.000000        0.614160         4    ;  uncertainty k = 0.190738
        17        19        20        34     9        0.000000       -0.061903         1    ;  uncertainty k = 0.143735
        17        19        20        34     9      180.000000        7.482353         2    ;  uncertainty k = 0.410215
        17        19        20        34     9        0.000000        1.364364         3    ;  uncertainty k = 0.301294
        17        19        20        34     9      180.000000        1.696068         4    ;  uncertainty k = 0.197606
        18        17        16        32     9        0.000000       -0.313144         1    ;  uncertainty k = 0.202973
        18        17        16        32     9      180.000000        9.147359         2    ;  uncertainty k = 0.352558
        18        17        16        32     9        0.000000        0.867700         3    ;  uncertainty k = 0.245876
        18        17        16        32     9      180.000000        1.009765         4    ;  uncertainty k = 0.191370
        18        17        19        20     9        0.000000       -0.071176         1    ;  uncertainty k = 0.337589
        18        17        19        20     9      180.000000       12.336087         2    ;  uncertainty k = 0.643930
        18        17        19        20     9        0.000000        1.450644         3    ;  uncertainty k = 0.297216
        18        17        19        20     9      180.000000        1.489107         4    ;  uncertainty k = 0.238371
        18        17        19        33     9        0.000000       -0.336609         1    ;  uncertainty k = 0.263636
        18        17        19        33     9      180.000000        8.789615         2    ;  uncertainty k = 0.313986
        18        17        19        33     9        0.000000        0.791324         3    ;  uncertainty k = 0.250023
        18        17        19        33     9      180.000000        0.896039         4    ;  uncertainty k = 0.165863
        19        17        16        32     9        0.000000        0.176371         1    ;  uncertainty k = 0.105087
        19        17        16        32     9      180.000000        5.952559         2    ;  uncertainty k = 0.567072
        19        17        16        32     9        0.000000        1.462591         3    ;  uncertainty k = 0.354483
        19        17        16        32     9      180.000000        1.642197         4    ;  uncertainty k = 0.121759
        19        20        21        35     9        0.000000        0.085486         1    ;  uncertainty k = 0.111444
        19        20        21        35     9      180.000000        8.277665         2    ;  uncertainty k = 0.378859
        19        20        21        35     9        0.000000        1.531136         3    ;  uncertainty k = 0.314249
        19        20        21        35     9      180.000000        1.914686         4    ;  uncertainty k = 0.183848
        21        15        14        31     9        0.000000        0.642183         1    ;  uncertainty k = 1.011818
        21        15        14        31     9      180.000000        3.944074         2    ;  uncertainty k = 0.183823
        21        15        14        31     9        0.000000        0.604040         3    ;  uncertainty k = 0.163709
        21        15        14        31     9      180.000000        0.159263         4    ;  uncertainty k = 0.056512
        21        15        16        32     9        0.000000        0.280934         1    ;  uncertainty k = 0.406219
        21        15        16        32     9      180.000000        6.604838         2    ;  uncertainty k = 0.432111
        21        15        16        32     9        0.000000        1.322455         3    ;  uncertainty k = 0.284808
        21        15        16        32     9      180.000000        1.524831         4    ;  uncertainty k = 0.201609
        21        20        19        33     9        0.000000        0.100570         1    ;  uncertainty k = 0.155636
        21        20        19        33     9      180.000000        7.535711         2    ;  uncertainty k = 0.332999
        21        20        19        33     9        0.000000        1.483421         3    ;  uncertainty k = 0.358331
        21        20        19        33     9      180.000000        1.784930         4    ;  uncertainty k = 0.124924
        22        10         9        25     9        0.000000       -0.006292         1    ;  uncertainty k = 0.585644
        22        10         9        25     9      180.000000        5.409164         2    ;  uncertainty k = 1.404242
        22        10         9        25     9        0.000000       -0.113620         3    ;  uncertainty k = 0.195163
        22        10         9        25     9      180.000000        1.221279         4    ;  uncertainty k = 0.563245
        22        10        11        30     9        0.000000        0.848167         1    ;  uncertainty k = 0.508402
        22        10        11        30     9      180.000000        2.941024         2    ;  uncertainty k = 0.300123
        22        10        11        30     9        0.000000        0.417155         3    ;  uncertainty k = 0.206640
        22        10        11        30     9      180.000000        0.143213         4    ;  uncertainty k = 0.162479
        22        23        24        25     9        0.000000        0.122912         1    ;  uncertainty k = 0.377650
        22        23        24        25     9      180.000000       16.205381         2    ;  uncertainty k = 0.253453
        22        23        24        25     9        0.000000       -1.374142         3    ;  uncertainty k = 0.567401
        22        23        24        25     9      180.000000        0.764888         4    ;  uncertainty k = 0.233191
        22        23        24        38     9        0.000000       -0.129492         1    ;  uncertainty k = 0.287891
        22        23        24        38     9      180.000000        6.663214         2    ;  uncertainty k = 0.558015
        22        23        24        38     9        0.000000        1.279160         3    ;  uncertainty k = 0.228439
        22        23        24        38     9      180.000000        1.542370         4    ;  uncertainty k = 0.207679
        24        23        22        36     9        0.000000       -0.096931         1    ;  uncertainty k = 0.224660
        24        23        22        36     9      180.000000        7.599745         2    ;  uncertainty k = 0.300022
        24        23        22        36     9        0.000000        1.345913         3    ;  uncertainty k = 0.259017
        24        23        22        36     9      180.000000        1.606126         4    ;  uncertainty k = 0.220857
        25        24        23        37     9        0.000000        0.109573         1    ;  uncertainty k = 0.140059
        25        24        23        37     9      180.000000       10.004729         2    ;  uncertainty k = 0.564195
        25        24        23        37     9        0.000000        0.906338         3    ;  uncertainty k = 0.280019
        25        24        23        37     9      180.000000        1.603453         4    ;  uncertainty k = 0.128880
        26         7         6        29     9        0.000000        0.352483         1    ;  uncertainty k = 0.339484
        26         7         6        29     9      180.000000        6.361093         2    ;  uncertainty k = 0.726341
        26         7         6        29     9        0.000000        1.436523         3    ;  uncertainty k = 0.297367
        26         7         6        29     9      180.000000        1.632782         4    ;  uncertainty k = 0.226382
        26        27        28        41     9        0.000000        0.045855         1    ;  uncertainty k = 0.139452
        26        27        28        41     9      180.000000        7.634182         2    ;  uncertainty k = 0.325719
        26        27        28        41     9        0.000000        1.429700         3    ;  uncertainty k = 0.294025
        26        27        28        41     9      180.000000        1.813094         4    ;  uncertainty k = 0.105599
        28         5         6        29     9        0.000000        0.268151         1    ;  uncertainty k = 0.190038
        28         5         6        29     9      180.000000        7.491647         2    ;  uncertainty k = 0.392990
        28         5         6        29     9        0.000000        1.431311         3    ;  uncertainty k = 0.350125
        28         5         6        29     9      180.000000        1.713380         4    ;  uncertainty k = 0.259230
        28        27        26        39     9        0.000000        0.088445         1    ;  uncertainty k = 0.118077
        28        27        26        39     9      180.000000        7.757901         2    ;  uncertainty k = 0.350509
        28        27        26        39     9        0.000000        1.478620         3    ;  uncertainty k = 0.245127
        28        27        26        39     9      180.000000        1.826841         4    ;  uncertainty k = 0.156239
        33        19        20        34     9        0.000000       -0.008811         1    ;  uncertainty k = 0.207339
        33        19        20        34     9      180.000000        7.311467         2    ;  uncertainty k = 0.566618
        33        19        20        34     9        0.000000       -0.345149         3    ;  uncertainty k = 0.251430
        33        19        20        34     9      180.000000        0.043691         4    ;  uncertainty k = 0.166201
        34        20        21        35     9        0.000000       -0.088377         1    ;  uncertainty k = 0.421594
        34        20        21        35     9      180.000000        7.932272         2    ;  uncertainty k = 0.410670
        34        20        21        35     9        0.000000       -0.399122         3    ;  uncertainty k = 0.264490
        34        20        21        35     9      180.000000        0.184417         4    ;  uncertainty k = 0.143774
        36        22        23        37     9        0.000000        0.077279         1    ;  uncertainty k = 0.355604
        36        22        23        37     9      180.000000        7.819656         2    ;  uncertainty k = 0.531205
        36        22        23        37     9        0.000000       -0.430593         3    ;  uncertainty k = 0.317162
        36        22        23        37     9      180.000000        0.145196         4    ;  uncertainty k = 0.160605
        37        23        24        38     9        0.000000       -0.176777         1    ;  uncertainty k = 0.222997
        37        23        24        38     9      180.000000        6.567606         2    ;  uncertainty k = 0.260169
        37        23        24        38     9        0.000000       -0.010461         3    ;  uncertainty k = 0.138989
        37        23        24        38     9      180.000000        0.217241         4    ;  uncertainty k = 0.090307
        39        26        27        40     9        0.000000       -0.111312         1    ;  uncertainty k = 0.116733
        39        26        27        40     9      180.000000        7.570028         2    ;  uncertainty k = 0.334358
        39        26        27        40     9        0.000000       -0.403022         3    ;  uncertainty k = 0.287478
        39        26        27        40     9      180.000000        0.119544         4    ;  uncertainty k = 0.101293
        40        27        28        41     9        0.000000       -0.002553         1    ;  uncertainty k = 0.115730
        40        27        28        41     9      180.000000        7.661892         2    ;  uncertainty k = 0.473726
        40        27        28        41     9        0.000000       -0.390381         3    ;  uncertainty k = 0.286358
        40        27        28        41     9      180.000000        0.068734         4    ;  uncertainty k = 0.168306

[ dihedrals ] ; impropers
;       ai        aj        ak        al funct           phase               k        pn
         5         2         6        28     4      180.000000        8.646184         2    ;  uncertainty k = 0.131479
         5         6        28         2     4      180.000000        8.646184         2    ;  uncertainty k = 0.131479
         5        28         2         6     4      180.000000        8.646184         2    ;  uncertainty k = 0.131479
         6         5         7        29     4      180.000000        3.523441         2    ;  uncertainty k = 0.117653
         6         7        29         5     4      180.000000        3.523441         2    ;  uncertainty k = 0.117653
         6        29         5         7     4      180.000000        3.523441         2    ;  uncertainty k = 0.117653
         7         6         8        26     4      180.000000       16.372354         2    ;  uncertainty k = 0.070186
         7         8        26         6     4      180.000000       16.372354         2    ;  uncertainty k = 0.070186
         7        26         6         8     4      180.000000       16.372354         2    ;  uncertainty k = 0.070186
         9         8        10        25     4      180.000000       23.632419         2    ;  uncertainty k = 0.090188
         9        10        25         8     4      180.000000       23.632419         2    ;  uncertainty k = 0.090188
         9        25         8        10     4      180.000000       23.632419         2    ;  uncertainty k = 0.090188
        10         9        11        22     4      180.000000       13.075348         2    ;  uncertainty k = 0.235826
        10        11        22         9     4      180.000000       13.075348         2    ;  uncertainty k = 0.235826
        10        22         9        11     4      180.000000       13.075348         2    ;  uncertainty k = 0.235826
        11        10        12        30     4      180.000000        0.392747         2    ;  uncertainty k = 0.562768
        11        12        30        10     4      180.000000        0.392747         2    ;  uncertainty k = 0.562768
        11        30        10        12     4      180.000000        0.392747         2    ;  uncertainty k = 0.562768
        12        11        13        14     4      180.000000       63.320284         2    ;  uncertainty k = 0.059727
        12        13        14        11     4      180.000000       63.320284         2    ;  uncertainty k = 0.059727
        12        14        11        13     4      180.000000       63.320284         2    ;  uncertainty k = 0.059727
        14        12        15        31     4      180.000000        0.679023         2    ;  uncertainty k = 0.805469
        14        15        31        12     4      180.000000        0.679023         2    ;  uncertainty k = 0.805469
        14        31        12        15     4      180.000000        0.679023         2    ;  uncertainty k = 0.805469
        15        14        16        21     4      180.000000       18.962489         2    ;  uncertainty k = 0.110020
        15        16        21        14     4      180.000000       18.962489         2    ;  uncertainty k = 0.110020
        15        21        14        16     4      180.000000       18.962489         2    ;  uncertainty k = 0.110020
        16        15        17        32     4      180.000000        1.610559         2    ;  uncertainty k = 0.479833
        16        17        32        15     4      180.000000        1.610559         2    ;  uncertainty k = 0.479833
        16        32        15        17     4      180.000000        1.610559         2    ;  uncertainty k = 0.479833
        17        16        18        19     4      180.000000       17.374936         2    ;  uncertainty k = 0.041426
        17        18        19        16     4      180.000000       17.374936         2    ;  uncertainty k = 0.041426
        17        19        16        18     4      180.000000       17.374936         2    ;  uncertainty k = 0.041426
        19        17        20        33     4      180.000000        1.272934         2    ;  uncertainty k = 0.603534
        19        20        33        17     4      180.000000        1.272934         2    ;  uncertainty k = 0.603534
        19        33        17        20     4      180.000000        1.272934         2    ;  uncertainty k = 0.603534
        20        19        21        34     4      180.000000        4.680024         2    ;  uncertainty k = 0.196687
        20        21        34        19     4      180.000000        4.680024         2    ;  uncertainty k = 0.196687
        20        34        19        21     4      180.000000        4.680024         2    ;  uncertainty k = 0.196687
        21        15        20        35     4      180.000000        2.403228         2    ;  uncertainty k = 0.422534
        21        20        35        15     4      180.000000        2.403228         2    ;  uncertainty k = 0.422534
        21        35        15        20     4      180.000000        2.403228         2    ;  uncertainty k = 0.422534
        22        10        23        36     4      180.000000        4.523754         2    ;  uncertainty k = 0.211544
        22        23        36        10     4      180.000000        4.523754         2    ;  uncertainty k = 0.211544
        22        36        10        23     4      180.000000        4.523754         2    ;  uncertainty k = 0.211544
        23        22        24        37     4      180.000000        2.219263         2    ;  uncertainty k = 0.396250
        23        24        37        22     4      180.000000        2.219263         2    ;  uncertainty k = 0.396250
        23        37        22        24     4      180.000000        2.219263         2    ;  uncertainty k = 0.396250
        24        23        25        38     4      180.000000       11.532154         2    ;  uncertainty k = 0.089528
        24        25        38        23     4      180.000000       11.532154         2    ;  uncertainty k = 0.089528
        24        38        23        25     4      180.000000       11.532154         2    ;  uncertainty k = 0.089528
        26         7        27        39     4      180.000000        3.153034         2    ;  uncertainty k = 0.114221
        26        27        39         7     4      180.000000        3.153034         2    ;  uncertainty k = 0.114221
        26        39         7        27     4      180.000000        3.153034         2    ;  uncertainty k = 0.114221
        27        26        28        40     4      180.000000        4.325331         2    ;  uncertainty k = 0.198960
        27        28        40        26     4      180.000000        4.325331         2    ;  uncertainty k = 0.198960
        27        40        26        28     4      180.000000        4.325331         2    ;  uncertainty k = 0.198960
        28         5        27        41     4      180.000000        4.036364         2    ;  uncertainty k = 0.083904
        28        27        41         5     4      180.000000        4.036364         2    ;  uncertainty k = 0.083904
        28        41         5        27     4      180.000000        4.036364         2    ;  uncertainty k = 0.083904

[ pairs ]
;       ai        aj funct
         1         6     1
         1        28     1
         2         7     1
         2        27     1
         2        29     1
         2        41     1
         3         6     1
         3        28     1
         4         6     1
         4        28     1
         5         8     1
         5        26     1
         5        40     1
         6         9     1
         6        27     1
         6        39     1
         6        41     1
         7        10     1
         7        25     1
         7        28     1
         7        40     1
         8        11     1
         8        22     1
         8        24     1
         8        27     1
         8        29     1
         8        39     1
         9        12     1
         9        23     1
         9        26     1
         9        30     1
         9        36     1
         9        38     1
        10        13     1
        10        14     1
        10        24     1
        10        37     1
        11        15     1
        11        23     1
        11        25     1
        11        31     1
        11        36     1
        12        16     1
        12        21     1
        12        22     1
        13        15     1
        13        30     1
        13        31     1
        14        17     1
        14        20     1
        14        30     1
        14        32     1
        14        35     1
        15        18     1
        15        19     1
        15        34     1
        16        20     1
        16        31     1
        16        33     1
        16        35     1
        17        21     1
        17        34     1
        18        20     1
        18        32     1
        18        33     1
        19        32     1
        19        35     1
        21        31     1
        21        32     1
        21        33     1
        22        25     1
        22        30     1
        22        38     1
        24        36     1
        25        37     1
        26        29     1
        26        41     1
        28        29     1
        28        39     1
        33        34     1
        34        35     1
        36        37     1
        37        38     1
        39        40     1
        40        41     1
