; ITP file created by ByteFF-joint-25, 2025-07-14 11:28:59.347887

[ atomtypes ]
;name           bonded.type        at.num        mass        charge   ptype           sigma         epsilon
 cl0bf                                 17      0.0000       0.00000       A     3.46593e-01     1.10406e+00    ;  uncertainty sigma = 0.000010, epsilon = 0.001764
 c1bf                                   6      0.0000       0.00000       A     3.31521e-01     4.12999e-01    ;  uncertainty sigma = 0.000006, epsilon = 0.000620
 c2bf                                   6      0.0000       0.00000       A     3.31531e-01     4.13250e-01    ;  uncertainty sigma = 0.000005, epsilon = 0.000606
 c3bf                                   6      0.0000       0.00000       A     3.31537e-01     4.13020e-01    ;  uncertainty sigma = 0.000015, epsilon = 0.000925
 n4bf                                   7      0.0000       0.00000       A     3.27011e-01     4.89809e-01    ;  uncertainty sigma = 0.000035, epsilon = 0.001876
 c5bf                                   6      0.0000       0.00000       A     3.31430e-01     4.12461e-01    ;  uncertainty sigma = 0.000089, epsilon = 0.001757
 o6bf                                   8      0.0000       0.00000       A     3.04768e-01     6.12506e-01    ;  uncertainty sigma = 0.000026, epsilon = 0.002291
 n7bf                                   7      0.0000       0.00000       A     3.26911e-01     4.90562e-01    ;  uncertainty sigma = 0.000022, epsilon = 0.003078
 c8bf                                   6      0.0000       0.00000       A     3.31550e-01     4.12934e-01    ;  uncertainty sigma = 0.000036, epsilon = 0.001226
 c9bf                                   6      0.0000       0.00000       A     3.31577e-01     4.13277e-01    ;  uncertainty sigma = 0.000020, epsilon = 0.000425
 o10bf                                  8      0.0000       0.00000       A     3.15742e-01     3.04478e-01    ;  uncertainty sigma = 0.000034, epsilon = 0.001935
 c11bf                                  6      0.0000       0.00000       A     3.31524e-01     4.13769e-01    ;  uncertainty sigma = 0.000014, epsilon = 0.000755
 c12bf                                  6      0.0000       0.00000       A     3.31514e-01     4.13260e-01    ;  uncertainty sigma = 0.000005, epsilon = 0.000910
 c13bf                                  6      0.0000       0.00000       A     3.31516e-01     4.13636e-01    ;  uncertainty sigma = 0.000009, epsilon = 0.001109
 c14bf                                  6      0.0000       0.00000       A     3.39807e-01     4.50244e-01    ;  uncertainty sigma = 0.000018, epsilon = 0.000749
 f15bf                                  9      0.0000       0.00000       A     3.03450e-01     3.47874e-01    ;  uncertainty sigma = 0.000008, epsilon = 0.001301
 f16bf                                  9      0.0000       0.00000       A     3.03450e-01     3.47874e-01    ;  uncertainty sigma = 0.000008, epsilon = 0.001301
 f17bf                                  9      0.0000       0.00000       A     3.03450e-01     3.47874e-01    ;  uncertainty sigma = 0.000008, epsilon = 0.001301
 c18bf                                  6      0.0000       0.00000       A     3.31514e-01     4.13103e-01    ;  uncertainty sigma = 0.000005, epsilon = 0.000624
 c19bf                                  6      0.0000       0.00000       A     3.31518e-01     4.13409e-01    ;  uncertainty sigma = 0.000004, epsilon = 0.000593
 c20bf                                  6      0.0000       0.00000       A     3.31516e-01     4.13581e-01    ;  uncertainty sigma = 0.000006, epsilon = 0.000572
 n21bf                                  7      0.0000       0.00000       A     3.38387e-01     3.93418e-01    ;  uncertainty sigma = 0.000011, epsilon = 0.000773
 c22bf                                  6      0.0000       0.00000       A     3.31528e-01     4.13303e-01    ;  uncertainty sigma = 0.000012, epsilon = 0.000565
 c23bf                                  6      0.0000       0.00000       A     3.31519e-01     4.13136e-01    ;  uncertainty sigma = 0.000006, epsilon = 0.000735
 c24bf                                  6      0.0000       0.00000       A     3.31539e-01     4.13381e-01    ;  uncertainty sigma = 0.000004, epsilon = 0.001208
 c25bf                                  6      0.0000       0.00000       A     3.31528e-01     4.13532e-01    ;  uncertainty sigma = 0.000006, epsilon = 0.000699
 c26bf                                  6      0.0000       0.00000       A     3.31524e-01     4.13511e-01    ;  uncertainty sigma = 0.000003, epsilon = 0.000712
 c27bf                                  6      0.0000       0.00000       A     3.31524e-01     4.13431e-01    ;  uncertainty sigma = 0.000003, epsilon = 0.000558
 h28bf                                  1      0.0000       0.00000       A     2.62567e-01     6.70248e-02    ;  uncertainty sigma = 0.000009, epsilon = 0.000607
 h29bf                                  1      0.0000       0.00000       A     1.10658e-01     4.17921e-02    ;  uncertainty sigma = 0.000100, epsilon = 0.000972
 h30bf                                  1      0.0000       0.00000       A     1.10682e-01     4.19025e-02    ;  uncertainty sigma = 0.000080, epsilon = 0.001074
 h31bf                                  1      0.0000       0.00000       A     2.62538e-01     6.71612e-02    ;  uncertainty sigma = 0.000012, epsilon = 0.000800
 h32bf                                  1      0.0000       0.00000       A     2.62557e-01     6.69727e-02    ;  uncertainty sigma = 0.000012, epsilon = 0.000520
 h33bf                                  1      0.0000       0.00000       A     2.62568e-01     6.69722e-02    ;  uncertainty sigma = 0.000010, epsilon = 0.000464
 h34bf                                  1      0.0000       0.00000       A     2.62561e-01     6.71298e-02    ;  uncertainty sigma = 0.000006, epsilon = 0.000455
 h35bf                                  1      0.0000       0.00000       A     2.53636e-01     6.70246e-02    ;  uncertainty sigma = 0.000013, epsilon = 0.000470
 h36bf                                  1      0.0000       0.00000       A     2.62567e-01     6.71100e-02    ;  uncertainty sigma = 0.000011, epsilon = 0.000575
 h37bf                                  1      0.0000       0.00000       A     2.62550e-01     6.71051e-02    ;  uncertainty sigma = 0.000018, epsilon = 0.000451
 h38bf                                  1      0.0000       0.00000       A     2.62558e-01     6.70547e-02    ;  uncertainty sigma = 0.000013, epsilon = 0.000516
 h39bf                                  1      0.0000       0.00000       A     2.62566e-01     6.69456e-02    ;  uncertainty sigma = 0.000009, epsilon = 0.000497
 h40bf                                  1      0.0000       0.00000       A     2.62560e-01     6.70940e-02    ;  uncertainty sigma = 0.000009, epsilon = 0.000590

[ moleculetype ]
;name             nrexcl
 MOL                   3

[ atoms ]
;       nr            type      resi   res      atom      cgnr      charge          mass ; qtot
         1           cl0bf         1   UNL       cl0         1    -0.11714       35.4530 ; qtot   -0.117
         2            c1bf         1   UNL        c1         2     0.06106       12.0110 ; qtot   -0.056
         3            c2bf         1   UNL        c2         3    -0.16926       12.0110 ; qtot   -0.225
         4            c3bf         1   UNL        c3         4     0.09203       12.0110 ; qtot   -0.133
         5            n4bf         1   UNL        n4         5    -0.48947       14.0070 ; qtot   -0.623
         6            c5bf         1   UNL        c5         6     0.80040       12.0110 ; qtot    0.178
         7            o6bf         1   UNL        o6         7    -0.59887       15.9990 ; qtot   -0.421
         8            n7bf         1   UNL        n7         8    -0.47413       14.0070 ; qtot   -0.895
         9            c8bf         1   UNL        c8         9    -0.04576       12.0110 ; qtot   -0.941
        10            c9bf         1   UNL        c9        10     0.59681       12.0110 ; qtot   -0.344
        11           o10bf         1   UNL       o10        11    -0.38813       15.9990 ; qtot   -0.732
        12           c11bf         1   UNL       c11        12     0.11385       12.0110 ; qtot   -0.619
        13           c12bf         1   UNL       c12        13    -0.08749       12.0110 ; qtot   -0.706
        14           c13bf         1   UNL       c13        14    -0.16749       12.0110 ; qtot   -0.874
        15           c14bf         1   UNL       c14        15     0.70937       12.0110 ; qtot   -0.164
        16           f15bf         1   UNL       f15        16    -0.22905       18.9980 ; qtot   -0.393
        17           f16bf         1   UNL       f16        17    -0.22905       18.9980 ; qtot   -0.622
        18           f17bf         1   UNL       f17        18    -0.22905       18.9980 ; qtot   -0.851
        19           c18bf         1   UNL       c18        19    -0.09679       12.0110 ; qtot   -0.948
        20           c19bf         1   UNL       c19        20    -0.11259       12.0110 ; qtot   -1.061
        21           c20bf         1   UNL       c20        21    -0.11807       12.0110 ; qtot   -1.179
        22           n21bf         1   UNL       n21        22    -0.69921       14.0070 ; qtot   -1.878
        23           c22bf         1   UNL       c22        23     0.39652       12.0110 ; qtot   -1.482
        24           c23bf         1   UNL       c23        24    -0.24092       12.0110 ; qtot   -1.722
        25           c24bf         1   UNL       c24        25    -0.10097       12.0110 ; qtot   -1.823
        26           c25bf         1   UNL       c25        26    -0.17111       12.0110 ; qtot   -1.995
        27           c26bf         1   UNL       c26        27    -0.09302       12.0110 ; qtot   -2.088
        28           c27bf         1   UNL       c27        28    -0.14675       12.0110 ; qtot   -2.234
        29           h28bf         1   UNL       h28        29     0.16571        1.0080 ; qtot   -2.069
        30           h29bf         1   UNL       h29        30     0.32512        1.0080 ; qtot   -1.743
        31           h30bf         1   UNL       h30        31     0.34303        1.0080 ; qtot   -1.400
        32           h31bf         1   UNL       h31        32     0.16649        1.0080 ; qtot   -1.234
        33           h32bf         1   UNL       h32        33     0.15186        1.0080 ; qtot   -1.082
        34           h33bf         1   UNL       h33        34     0.14308        1.0080 ; qtot   -0.939
        35           h34bf         1   UNL       h34        35     0.15133        1.0080 ; qtot   -0.788
        36           h35bf         1   UNL       h35        36     0.02625        1.0080 ; qtot   -0.761
        37           h36bf         1   UNL       h36        37     0.14569        1.0080 ; qtot   -0.616
        38           h37bf         1   UNL       h37        38     0.17117        1.0080 ; qtot   -0.445
        39           h38bf         1   UNL       h38        39     0.15480        1.0080 ; qtot   -0.290
        40           h39bf         1   UNL       h39        40     0.13802        1.0080 ; qtot   -0.152
        41           h40bf         1   UNL       h40        41     0.15173        1.0080 ; qtot   -0.000

[ bonds ]
;       ai        aj funct               r               k
         1         2     1        0.175741   196863.507666    ;  uncertainty r = 0.000035, k = 3.121469
         2         3     1        0.139291   358027.745264    ;  uncertainty r = 0.000023, k = 4.054170
         2        28     1        0.139462   360645.733105    ;  uncertainty r = 0.000025, k = 2.586067
         3         4     1        0.140289   355789.085645    ;  uncertainty r = 0.000019, k = 5.077199
         3        29     1        0.108682   337131.341553    ;  uncertainty r = 0.000036, k = 2.115396
         4         5     1        0.140962   329573.429736    ;  uncertainty r = 0.000107, k = 7.388497
         4        26     1        0.140312   352821.647998    ;  uncertainty r = 0.000028, k = 3.193223
         5         6     1        0.139924   394444.276123    ;  uncertainty r = 0.000126, k = 16.404402
         5        30     1        0.101903   422577.207129    ;  uncertainty r = 0.000035, k = 2.696943
         6         7     1        0.124145   784756.086133    ;  uncertainty r = 0.000126, k = 12.841139
         6         8     1        0.139930   382450.287500    ;  uncertainty r = 0.000140, k = 14.422871
         8         9     1        0.140096   339046.216162    ;  uncertainty r = 0.000118, k = 8.055134
         8        31     1        0.101870   417728.195264    ;  uncertainty r = 0.000093, k = 3.473106
         9        10     1        0.140110   355790.847705    ;  uncertainty r = 0.000180, k = 18.434716
         9        25     1        0.139587   350172.658105    ;  uncertainty r = 0.000051, k = 12.669227
        10        11     1        0.137456   295567.576465    ;  uncertainty r = 0.000121, k = 7.043869
        10        22     1        0.131673   342519.850391    ;  uncertainty r = 0.000195, k = 23.816176
        11        12     1        0.138532   314308.673682    ;  uncertainty r = 0.000052, k = 8.971879
        12        13     1        0.139094   353843.413281    ;  uncertainty r = 0.000040, k = 3.656161
        12        21     1        0.139222   354352.674316    ;  uncertainty r = 0.000036, k = 2.697108
        13        14     1        0.138556   347781.567480    ;  uncertainty r = 0.000101, k = 2.673954
        13        32     1        0.108679   332885.490674    ;  uncertainty r = 0.000010, k = 0.906594
        14        15     1        0.149137   215527.840332    ;  uncertainty r = 0.000061, k = 1.127544
        14        19     1        0.138974   350508.956299    ;  uncertainty r = 0.000051, k = 2.268711
        15        16     1        0.135326   286985.958545    ;  uncertainty r = 0.000042, k = 3.079748
        15        17     1        0.135326   286985.958545    ;  uncertainty r = 0.000042, k = 3.079748
        15        18     1        0.135326   286985.958545    ;  uncertainty r = 0.000042, k = 3.079748
        19        20     1        0.139480   367362.069482    ;  uncertainty r = 0.000037, k = 2.422113
        19        33     1        0.108641   332705.786035    ;  uncertainty r = 0.000020, k = 0.826440
        20        21     1        0.139275   372627.234082    ;  uncertainty r = 0.000029, k = 1.736824
        20        34     1        0.108743   333039.504980    ;  uncertainty r = 0.000015, k = 1.385174
        21        35     1        0.108795   335979.132715    ;  uncertainty r = 0.000019, k = 0.979490
        22        23     1        0.134174   386160.574121    ;  uncertainty r = 0.000069, k = 8.080806
        23        24     1        0.139039   373281.443750    ;  uncertainty r = 0.000047, k = 3.782626
        23        36     1        0.108937   336014.271777    ;  uncertainty r = 0.000016, k = 1.810751
        24        25     1        0.139560   376722.211719    ;  uncertainty r = 0.000043, k = 3.130764
        24        37     1        0.108806   337266.713770    ;  uncertainty r = 0.000012, k = 1.595174
        25        38     1        0.108477   334523.798389    ;  uncertainty r = 0.000051, k = 3.409764
        26        27     1        0.139398   369123.746973    ;  uncertainty r = 0.000035, k = 1.550258
        26        39     1        0.108675   336191.805762    ;  uncertainty r = 0.000011, k = 2.276698
        27        28     1        0.139586   371638.130762    ;  uncertainty r = 0.000019, k = 1.662234
        27        40     1        0.108736   333209.250146    ;  uncertainty r = 0.000008, k = 1.032584
        28        41     1        0.108694   335846.952637    ;  uncertainty r = 0.000005, k = 0.773012

[ angles ]
;       ai        aj        ak funct           theta             cth
         1         2         3     1      119.877548      447.716250    ;  uncertainty theta = 0.001724, k = 0.130867
         1         2        28     1      120.635132      453.348620    ;  uncertainty theta = 0.001119, k = 0.057092
         2         3         4     1      118.269028      510.202493    ;  uncertainty theta = 0.001918, k = 0.108264
         2         3        29     1      121.577919      298.932486    ;  uncertainty theta = 0.001479, k = 0.086517
         2        28        27     1      116.991745      510.167283    ;  uncertainty theta = 0.002139, k = 0.051506
         2        28        41     1      121.190262      285.270420    ;  uncertainty theta = 0.000984, k = 0.045404
         3         2        28     1      121.587265      362.501470    ;  uncertainty theta = 0.002180, k = 0.096425
         3         4         5     1      119.494095      535.394181    ;  uncertainty theta = 0.003737, k = 0.119782
         3         4        26     1      120.136414      383.360245    ;  uncertainty theta = 0.006625, k = 0.173312
         4         3        29     1      119.537109      263.307995    ;  uncertainty theta = 0.001312, k = 0.060022
         4         5         6     1      118.476730      401.218952    ;  uncertainty theta = 0.007581, k = 0.064480
         4         5        30     1      114.411316      301.149108    ;  uncertainty theta = 0.006849, k = 0.422016
         4        26        27     1      118.858994      512.587148    ;  uncertainty theta = 0.001671, k = 0.110335
         4        26        39     1      118.843155      265.929763    ;  uncertainty theta = 0.000674, k = 0.045792
         5         4        26     1      120.159714      540.787107    ;  uncertainty theta = 0.004289, k = 0.099471
         5         6         7     1      125.129616      717.873618    ;  uncertainty theta = 0.004690, k = 0.062166
         5         6         8     1      111.567566      572.111117    ;  uncertainty theta = 0.005894, k = 0.243004
         6         5        30     1      117.007896      319.527399    ;  uncertainty theta = 0.007153, k = 0.162436
         6         8         9     1      118.191467      382.545068    ;  uncertainty theta = 0.006597, k = 0.353697
         6         8        31     1      118.027504      326.505382    ;  uncertainty theta = 0.007877, k = 0.178566
         7         6         8     1      125.188744      728.667516    ;  uncertainty theta = 0.005334, k = 0.101797
         8         9        10     1      117.092575      491.278569    ;  uncertainty theta = 0.007126, k = 0.229131
         8         9        25     1      122.491959      468.987673    ;  uncertainty theta = 0.005717, k = 0.226574
         9         8        31     1      114.704041      335.957688    ;  uncertainty theta = 0.005639, k = 0.195191
         9        10        11     1      116.530540      390.693960    ;  uncertainty theta = 0.012172, k = 0.316589
         9        10        22     1      125.653397      515.566722    ;  uncertainty theta = 0.002376, k = 0.153093
         9        25        24     1      118.664589      535.632314    ;  uncertainty theta = 0.002867, k = 0.172990
         9        25        38     1      117.850075      264.486868    ;  uncertainty theta = 0.003879, k = 0.116474
        10         9        25     1      117.575417      353.893836    ;  uncertainty theta = 0.008911, k = 0.132789
        10        11        12     1      113.059975      473.447729    ;  uncertainty theta = 0.007514, k = 0.198938
        10        22        23     1      118.982071      388.605918    ;  uncertainty theta = 0.003083, k = 0.211257
        11        10        22     1      116.747131      568.431731    ;  uncertainty theta = 0.007457, k = 0.117546
        11        12        13     1      119.209549      406.140145    ;  uncertainty theta = 0.002397, k = 0.063411
        11        12        21     1      120.049278      419.740666    ;  uncertainty theta = 0.001725, k = 0.093993
        12        13        14     1      118.864952      508.527450    ;  uncertainty theta = 0.002845, k = 0.197951
        12        13        32     1      120.623009      281.233099    ;  uncertainty theta = 0.003246, k = 0.049393
        12        21        20     1      117.594139      518.928427    ;  uncertainty theta = 0.002508, k = 0.052964
        12        21        35     1      120.314964      277.616661    ;  uncertainty theta = 0.001021, k = 0.060898
        13        12        21     1      121.950890      373.168512    ;  uncertainty theta = 0.004064, k = 0.157752
        13        14        15     1      115.496521      350.324770    ;  uncertainty theta = 0.005914, k = 0.124689
        13        14        19     1      122.656799      467.566022    ;  uncertainty theta = 0.003025, k = 0.100386
        14        13        32     1      119.226295      277.135287    ;  uncertainty theta = 0.002912, k = 0.100269
        14        15        16     1      112.945602      661.607385    ;  uncertainty theta = 0.002125, k = 0.029099
        14        15        17     1      112.945602      661.607385    ;  uncertainty theta = 0.002125, k = 0.029099
        14        15        18     1      112.945602      661.607385    ;  uncertainty theta = 0.002125, k = 0.029099
        14        19        20     1      119.255554      512.146569    ;  uncertainty theta = 0.001818, k = 0.042517
        14        19        33     1      118.405869      274.175408    ;  uncertainty theta = 0.002940, k = 0.043008
        15        14        19     1      116.478043      341.375130    ;  uncertainty theta = 0.005609, k = 0.113786
        16        15        17     1      107.682266      790.161449    ;  uncertainty theta = 0.001820, k = 0.019275
        16        15        18     1      107.682266      790.161449    ;  uncertainty theta = 0.001820, k = 0.019275
        17        15        18     1      107.682266      790.161449    ;  uncertainty theta = 0.001820, k = 0.019275
        19        20        21     1      120.533386      511.752021    ;  uncertainty theta = 0.002153, k = 0.049486
        19        20        34     1      119.962425      281.972813    ;  uncertainty theta = 0.000658, k = 0.030297
        20        19        33     1      120.654930      286.912935    ;  uncertainty theta = 0.002806, k = 0.061171
        20        21        35     1      121.377441      292.172718    ;  uncertainty theta = 0.001338, k = 0.032523
        21        20        34     1      119.824585      284.259342    ;  uncertainty theta = 0.001720, k = 0.029816
        22        23        24     1      122.018661      680.497696    ;  uncertainty theta = 0.002657, k = 0.057695
        22        23        36     1      116.528885      326.284582    ;  uncertainty theta = 0.003532, k = 0.089660
        23        24        25     1      116.662033      486.639338    ;  uncertainty theta = 0.002659, k = 0.164042
        23        24        37     1      121.531288      284.776501    ;  uncertainty theta = 0.000829, k = 0.071895
        24        23        36     1      121.479836      279.479466    ;  uncertainty theta = 0.001106, k = 0.075570
        24        25        38     1      121.491959      306.835200    ;  uncertainty theta = 0.004314, k = 0.137900
        25        24        37     1      121.692772      278.904338    ;  uncertainty theta = 0.003629, k = 0.116071
        26        27        28     1      121.166306      505.481224    ;  uncertainty theta = 0.002381, k = 0.037963
        26        27        40     1      119.721214      277.140139    ;  uncertainty theta = 0.001992, k = 0.065247
        27        26        39     1      121.054787      319.420399    ;  uncertainty theta = 0.001007, k = 0.125755
        27        28        41     1      121.496811      283.811964    ;  uncertainty theta = 0.000990, k = 0.023545
        28        27        40     1      119.791183      283.449305    ;  uncertainty theta = 0.000526, k = 0.019914

[ dihedrals ] ; propers for gromacs 4.5 or higher, use funct 9
;       ai        aj        ak        al funct           phase               k        pn
         1         2         3         4     9        0.000000        0.123248         1    ;  uncertainty k = 0.211344
         1         2         3         4     9      180.000000        9.260082         2    ;  uncertainty k = 0.612107
         1         2         3         4     9        0.000000        1.589163         3    ;  uncertainty k = 0.336163
         1         2         3         4     9      180.000000        1.601488         4    ;  uncertainty k = 0.153258
         1         2         3        29     9        0.000000       -0.247619         1    ;  uncertainty k = 0.282198
         1         2         3        29     9      180.000000        7.537856         2    ;  uncertainty k = 0.341788
         1         2         3        29     9        0.000000        0.654931         3    ;  uncertainty k = 0.310712
         1         2         3        29     9      180.000000        1.031720         4    ;  uncertainty k = 0.199561
         1         2        28        27     9        0.000000        0.001504         1    ;  uncertainty k = 0.185814
         1         2        28        27     9      180.000000        9.363243         2    ;  uncertainty k = 0.636140
         1         2        28        27     9        0.000000        1.510353         3    ;  uncertainty k = 0.403390
         1         2        28        27     9      180.000000        1.611898         4    ;  uncertainty k = 0.147335
         1         2        28        41     9        0.000000       -0.192334         1    ;  uncertainty k = 0.201638
         1         2        28        41     9      180.000000        7.236705         2    ;  uncertainty k = 0.254071
         1         2        28        41     9        0.000000        0.600276         3    ;  uncertainty k = 0.357738
         1         2        28        41     9      180.000000        0.929042         4    ;  uncertainty k = 0.160841
         2         3         4         5     9        0.000000       -0.069860         1    ;  uncertainty k = 0.179142
         2         3         4         5     9      180.000000       10.491460         2    ;  uncertainty k = 0.500967
         2         3         4         5     9        0.000000        1.162928         3    ;  uncertainty k = 0.275319
         2         3         4         5     9      180.000000        1.632460         4    ;  uncertainty k = 0.267685
         2         3         4        26     9        0.000000       -0.116648         1    ;  uncertainty k = 0.116160
         2         3         4        26     9      180.000000        9.651588         2    ;  uncertainty k = 0.460159
         2         3         4        26     9        0.000000       -0.036925         3    ;  uncertainty k = 0.243669
         2         3         4        26     9      180.000000        1.213601         4    ;  uncertainty k = 0.228558
         2        28        27        26     9        0.000000       -0.071310         1    ;  uncertainty k = 0.273169
         2        28        27        26     9      180.000000       15.321035         2    ;  uncertainty k = 0.311972
         2        28        27        26     9        0.000000       -1.081882         3    ;  uncertainty k = 0.505330
         2        28        27        26     9      180.000000        0.593923         4    ;  uncertainty k = 0.199261
         2        28        27        40     9        0.000000       -0.005404         1    ;  uncertainty k = 0.165962
         2        28        27        40     9      180.000000        7.497034         2    ;  uncertainty k = 0.348358
         2        28        27        40     9        0.000000        1.437108         3    ;  uncertainty k = 0.288624
         2        28        27        40     9      180.000000        1.786911         4    ;  uncertainty k = 0.191185
         3         2        28        27     9        0.000000       -0.131920         1    ;  uncertainty k = 0.230700
         3         2        28        27     9      180.000000       10.843290         2    ;  uncertainty k = 0.448199
         3         2        28        27     9        0.000000       -0.358333         3    ;  uncertainty k = 0.468295
         3         2        28        27     9      180.000000        0.979397         4    ;  uncertainty k = 0.227083
         3         2        28        41     9        0.000000       -0.082737         1    ;  uncertainty k = 0.267072
         3         2        28        41     9      180.000000        6.298665         2    ;  uncertainty k = 0.620267
         3         2        28        41     9        0.000000        1.394104         3    ;  uncertainty k = 0.345559
         3         2        28        41     9      180.000000        1.511666         4    ;  uncertainty k = 0.143776
         3         4         5         6     9        0.000000        0.893897         1    ;  uncertainty k = 0.674342
         3         4         5         6     9      180.000000        4.615701         2    ;  uncertainty k = 0.187959
         3         4         5         6     9        0.000000        0.977475         3    ;  uncertainty k = 0.233173
         3         4         5         6     9      180.000000        0.346313         4    ;  uncertainty k = 0.065313
         3         4         5        30     9        0.000000        1.063523         1    ;  uncertainty k = 0.690742
         3         4         5        30     9      180.000000        3.665567         2    ;  uncertainty k = 0.230123
         3         4         5        30     9        0.000000        0.681599         3    ;  uncertainty k = 0.151784
         3         4         5        30     9      180.000000        0.181615         4    ;  uncertainty k = 0.056392
         3         4        26        27     9        0.000000       -0.204039         1    ;  uncertainty k = 0.196414
         3         4        26        27     9      180.000000        9.759532         2    ;  uncertainty k = 0.319457
         3         4        26        27     9        0.000000       -0.025256         3    ;  uncertainty k = 0.143591
         3         4        26        27     9      180.000000        1.218059         4    ;  uncertainty k = 0.221103
         3         4        26        39     9        0.000000        0.156157         1    ;  uncertainty k = 0.427321
         3         4        26        39     9      180.000000        6.860101         2    ;  uncertainty k = 0.490409
         3         4        26        39     9        0.000000        1.351453         3    ;  uncertainty k = 0.338586
         3         4        26        39     9      180.000000        1.552011         4    ;  uncertainty k = 0.164257
         4         3         2        28     9        0.000000       -0.195780         1    ;  uncertainty k = 0.176372
         4         3         2        28     9      180.000000       10.244020         2    ;  uncertainty k = 0.486935
         4         3         2        28     9        0.000000       -0.116116         3    ;  uncertainty k = 0.358133
         4         3         2        28     9      180.000000        1.149733         4    ;  uncertainty k = 0.419932
         4         5         6         7     9        0.000000        6.246917         1    ;  uncertainty k = 0.936904
         4         5         6         7     9      180.000000        9.598151         2    ;  uncertainty k = 0.344146
         4         5         6         7     9        0.000000        1.212791         3    ;  uncertainty k = 0.141289
         4         5         6         7     9      180.000000       -0.507407         4    ;  uncertainty k = 0.143154
         4         5         6         8     9        0.000000        6.655500         1    ;  uncertainty k = 0.829188
         4         5         6         8     9      180.000000        5.950558         2    ;  uncertainty k = 0.834226
         4         5         6         8     9        0.000000        0.532749         3    ;  uncertainty k = 0.312338
         4         5         6         8     9      180.000000       -0.126518         4    ;  uncertainty k = 0.262643
         4        26        27        28     9        0.000000       -0.298033         1    ;  uncertainty k = 0.241230
         4        26        27        28     9      180.000000       14.334361         2    ;  uncertainty k = 0.256398
         4        26        27        28     9        0.000000       -0.828693         3    ;  uncertainty k = 0.292682
         4        26        27        28     9      180.000000        0.765294         4    ;  uncertainty k = 0.243240
         4        26        27        40     9        0.000000       -0.022659         1    ;  uncertainty k = 0.154817
         4        26        27        40     9      180.000000        8.121608         2    ;  uncertainty k = 0.488184
         4        26        27        40     9        0.000000        1.345981         3    ;  uncertainty k = 0.263185
         4        26        27        40     9      180.000000        1.653662         4    ;  uncertainty k = 0.083224
         5         4         3        29     9        0.000000       -0.092272         1    ;  uncertainty k = 0.167637
         5         4         3        29     9      180.000000        8.125897         2    ;  uncertainty k = 0.483658
         5         4         3        29     9        0.000000        0.734434         3    ;  uncertainty k = 0.160563
         5         4         3        29     9      180.000000        1.180615         4    ;  uncertainty k = 0.222931
         5         4        26        27     9        0.000000       -0.029065         1    ;  uncertainty k = 0.265006
         5         4        26        27     9      180.000000       10.519775         2    ;  uncertainty k = 0.537615
         5         4        26        27     9        0.000000        1.164006         3    ;  uncertainty k = 0.419478
         5         4        26        27     9      180.000000        1.654638         4    ;  uncertainty k = 0.279374
         5         4        26        39     9        0.000000       -0.082634         1    ;  uncertainty k = 0.240809
         5         4        26        39     9      180.000000        8.107181         2    ;  uncertainty k = 0.468439
         5         4        26        39     9        0.000000        0.781827         3    ;  uncertainty k = 0.234699
         5         4        26        39     9      180.000000        1.205021         4    ;  uncertainty k = 0.227034
         5         6         8         9     9        0.000000        8.110683         1    ;  uncertainty k = 0.960807
         5         6         8         9     9      180.000000        6.186241         2    ;  uncertainty k = 0.993279
         5         6         8         9     9        0.000000        0.647438         3    ;  uncertainty k = 0.160673
         5         6         8         9     9      180.000000       -0.175801         4    ;  uncertainty k = 0.442917
         5         6         8        31     9        0.000000        3.034432         1    ;  uncertainty k = 0.970011
         5         6         8        31     9      180.000000        4.695458         2    ;  uncertainty k = 1.113815
         5         6         8        31     9        0.000000        0.827128         3    ;  uncertainty k = 0.230931
         5         6         8        31     9      180.000000       -0.386951         4    ;  uncertainty k = 0.276494
         6         5         4        26     9        0.000000        1.154982         1    ;  uncertainty k = 0.744817
         6         5         4        26     9      180.000000        4.785354         2    ;  uncertainty k = 0.204250
         6         5         4        26     9        0.000000        1.007449         3    ;  uncertainty k = 0.234621
         6         5         4        26     9      180.000000        0.299345         4    ;  uncertainty k = 0.076160
         6         8         9        10     9        0.000000        1.826178         1    ;  uncertainty k = 1.230613
         6         8         9        10     9      180.000000        3.914690         2    ;  uncertainty k = 0.505910
         6         8         9        10     9        0.000000        0.267512         3    ;  uncertainty k = 0.197085
         6         8         9        10     9      180.000000       -0.000673         4    ;  uncertainty k = 0.064722
         6         8         9        25     9        0.000000        1.590482         1    ;  uncertainty k = 1.223146
         6         8         9        25     9      180.000000        3.933824         2    ;  uncertainty k = 0.529571
         6         8         9        25     9        0.000000        0.641748         3    ;  uncertainty k = 0.289819
         6         8         9        25     9      180.000000        0.355266         4    ;  uncertainty k = 0.131762
         7         6         5        30     9        0.000000        0.878669         1    ;  uncertainty k = 0.467623
         7         6         5        30     9      180.000000        9.408175         2    ;  uncertainty k = 0.198948
         7         6         5        30     9        0.000000        2.111124         3    ;  uncertainty k = 0.186175
         7         6         5        30     9      180.000000       -0.257251         4    ;  uncertainty k = 0.201403
         7         6         8         9     9        0.000000        6.946396         1    ;  uncertainty k = 0.908899
         7         6         8         9     9      180.000000        9.319620         2    ;  uncertainty k = 0.343354
         7         6         8         9     9        0.000000        1.327876         3    ;  uncertainty k = 0.355434
         7         6         8         9     9      180.000000       -0.511188         4    ;  uncertainty k = 0.273827
         7         6         8        31     9        0.000000        0.648440         1    ;  uncertainty k = 0.303764
         7         6         8        31     9      180.000000        8.524098         2    ;  uncertainty k = 0.415172
         7         6         8        31     9        0.000000        1.856515         3    ;  uncertainty k = 0.251832
         7         6         8        31     9      180.000000       -0.422622         4    ;  uncertainty k = 0.241464
         8         6         5        30     9        0.000000        2.795718         1    ;  uncertainty k = 1.020214
         8         6         5        30     9      180.000000        4.644730         2    ;  uncertainty k = 1.168991
         8         6         5        30     9        0.000000        0.903794         3    ;  uncertainty k = 0.241483
         8         6         5        30     9      180.000000       -0.380600         4    ;  uncertainty k = 0.244240
         8         9        10        11     9        0.000000        0.265513         1    ;  uncertainty k = 0.638101
         8         9        10        11     9      180.000000        8.312027         2    ;  uncertainty k = 0.483820
         8         9        10        11     9        0.000000        0.783388         3    ;  uncertainty k = 0.198631
         8         9        10        11     9      180.000000        1.337313         4    ;  uncertainty k = 0.293172
         8         9        10        22     9        0.000000        0.353474         1    ;  uncertainty k = 0.449760
         8         9        10        22     9      180.000000        6.335181         2    ;  uncertainty k = 0.770062
         8         9        10        22     9        0.000000        0.762700         3    ;  uncertainty k = 0.328523
         8         9        10        22     9      180.000000        1.504660         4    ;  uncertainty k = 0.296384
         8         9        25        24     9        0.000000       -0.104134         1    ;  uncertainty k = 0.141360
         8         9        25        24     9      180.000000       11.628689         2    ;  uncertainty k = 0.794318
         8         9        25        24     9        0.000000        1.107582         3    ;  uncertainty k = 0.487862
         8         9        25        24     9      180.000000        1.611587         4    ;  uncertainty k = 0.361445
         8         9        25        38     9        0.000000       -0.339226         1    ;  uncertainty k = 0.473729
         8         9        25        38     9      180.000000        8.956188         2    ;  uncertainty k = 0.817388
         8         9        25        38     9        0.000000        0.715306         3    ;  uncertainty k = 0.150871
         8         9        25        38     9      180.000000        1.268139         4    ;  uncertainty k = 0.406221
         9        10        11        12     9        0.000000        5.742982         1    ;  uncertainty k = 0.996505
         9        10        11        12     9      180.000000        3.878653         2    ;  uncertainty k = 0.444863
         9        10        11        12     9        0.000000        0.580855         3    ;  uncertainty k = 0.248381
         9        10        11        12     9      180.000000        0.086291         4    ;  uncertainty k = 0.156289
         9        10        22        23     9        0.000000        0.676654         1    ;  uncertainty k = 0.481269
         9        10        22        23     9      180.000000       12.337756         2    ;  uncertainty k = 0.384550
         9        10        22        23     9        0.000000        1.799559         3    ;  uncertainty k = 0.431189
         9        10        22        23     9      180.000000        1.358998         4    ;  uncertainty k = 0.224517
         9        25        24        23     9        0.000000       -0.219717         1    ;  uncertainty k = 0.258711
         9        25        24        23     9      180.000000       13.489343         2    ;  uncertainty k = 0.300398
         9        25        24        23     9        0.000000       -1.177534         3    ;  uncertainty k = 0.825067
         9        25        24        23     9      180.000000        0.747942         4    ;  uncertainty k = 0.391509
         9        25        24        37     9        0.000000        0.313279         1    ;  uncertainty k = 0.255485
         9        25        24        37     9      180.000000        7.639764         2    ;  uncertainty k = 0.597194
         9        25        24        37     9        0.000000        1.394864         3    ;  uncertainty k = 0.301687
         9        25        24        37     9      180.000000        1.632044         4    ;  uncertainty k = 0.213681
        10         9         8        31     9        0.000000        1.809919         1    ;  uncertainty k = 1.049578
        10         9         8        31     9      180.000000        2.184103         2    ;  uncertainty k = 0.856980
        10         9         8        31     9        0.000000       -0.055926         3    ;  uncertainty k = 0.368395
        10         9         8        31     9      180.000000       -0.094869         4    ;  uncertainty k = 0.135654
        10         9        25        24     9        0.000000       -0.045324         1    ;  uncertainty k = 0.346307
        10         9        25        24     9      180.000000        9.675692         2    ;  uncertainty k = 0.563612
        10         9        25        24     9        0.000000        0.089574         3    ;  uncertainty k = 0.421919
        10         9        25        24     9      180.000000        1.428809         4    ;  uncertainty k = 0.224622
        10         9        25        38     9        0.000000       -0.056218         1    ;  uncertainty k = 0.336146
        10         9        25        38     9      180.000000        7.154486         2    ;  uncertainty k = 0.386951
        10         9        25        38     9        0.000000        1.228551         3    ;  uncertainty k = 0.135670
        10         9        25        38     9      180.000000        1.474946         4    ;  uncertainty k = 0.079159
        10        11        12        13     9        0.000000        4.111153         1    ;  uncertainty k = 0.463348
        10        11        12        13     9      180.000000        5.444235         2    ;  uncertainty k = 0.180214
        10        11        12        13     9        0.000000        0.337321         3    ;  uncertainty k = 0.385525
        10        11        12        13     9      180.000000        0.284107         4    ;  uncertainty k = 0.144689
        10        11        12        21     9        0.000000        4.031478         1    ;  uncertainty k = 0.324367
        10        11        12        21     9      180.000000        5.326864         2    ;  uncertainty k = 0.098304
        10        11        12        21     9        0.000000        0.404902         3    ;  uncertainty k = 0.412078
        10        11        12        21     9      180.000000        0.296999         4    ;  uncertainty k = 0.116646
        10        22        23        24     9        0.000000       -0.133462         1    ;  uncertainty k = 0.695196
        10        22        23        24     9      180.000000       15.215297         2    ;  uncertainty k = 0.215444
        10        22        23        24     9        0.000000        0.737113         3    ;  uncertainty k = 0.573056
        10        22        23        24     9      180.000000        1.291837         4    ;  uncertainty k = 0.321443
        10        22        23        36     9        0.000000        0.068263         1    ;  uncertainty k = 0.501141
        10        22        23        36     9      180.000000       15.223381         2    ;  uncertainty k = 0.588647
        10        22        23        36     9        0.000000        2.120235         3    ;  uncertainty k = 0.703419
        10        22        23        36     9      180.000000        1.291633         4    ;  uncertainty k = 0.573906
        11        10         9        25     9        0.000000        0.758628         1    ;  uncertainty k = 0.302974
        11        10         9        25     9      180.000000        5.954667         2    ;  uncertainty k = 0.582835
        11        10         9        25     9        0.000000        0.897889         3    ;  uncertainty k = 0.157549
        11        10         9        25     9      180.000000        1.407331         4    ;  uncertainty k = 0.461766
        11        10        22        23     9        0.000000        0.645014         1    ;  uncertainty k = 1.001765
        11        10        22        23     9      180.000000       16.604500         2    ;  uncertainty k = 0.284032
        11        10        22        23     9        0.000000        2.791706         3    ;  uncertainty k = 0.527017
        11        10        22        23     9      180.000000        1.944515         4    ;  uncertainty k = 0.152085
        11        12        13        14     9        0.000000       -0.054166         1    ;  uncertainty k = 0.319745
        11        12        13        14     9      180.000000       11.162460         2    ;  uncertainty k = 0.228187
        11        12        13        14     9        0.000000        1.352213         3    ;  uncertainty k = 0.202966
        11        12        13        14     9      180.000000        1.594604         4    ;  uncertainty k = 0.163375
        11        12        13        32     9        0.000000        0.246878         1    ;  uncertainty k = 0.126179
        11        12        13        32     9      180.000000        8.724117         2    ;  uncertainty k = 0.255701
        11        12        13        32     9        0.000000        0.898640         3    ;  uncertainty k = 0.304407
        11        12        13        32     9      180.000000        1.116873         4    ;  uncertainty k = 0.210214
        11        12        21        20     9        0.000000       -0.042015         1    ;  uncertainty k = 0.399401
        11        12        21        20     9      180.000000       11.193089         2    ;  uncertainty k = 0.404423
        11        12        21        20     9        0.000000        1.305480         3    ;  uncertainty k = 0.216137
        11        12        21        20     9      180.000000        1.621828         4    ;  uncertainty k = 0.141002
        11        12        21        35     9        0.000000        0.072912         1    ;  uncertainty k = 0.103915
        11        12        21        35     9      180.000000        8.608526         2    ;  uncertainty k = 0.251063
        11        12        21        35     9        0.000000        0.860920         3    ;  uncertainty k = 0.274177
        11        12        21        35     9      180.000000        1.057134         4    ;  uncertainty k = 0.175952
        12        11        10        22     9        0.000000        2.095893         1    ;  uncertainty k = 1.084880
        12        11        10        22     9      180.000000        6.456938         2    ;  uncertainty k = 0.121607
        12        11        10        22     9        0.000000        0.082868         3    ;  uncertainty k = 0.422005
        12        11        10        22     9      180.000000        0.151585         4    ;  uncertainty k = 0.120974
        12        13        14        15     9        0.000000        0.137530         1    ;  uncertainty k = 0.382295
        12        13        14        15     9      180.000000       10.226747         2    ;  uncertainty k = 0.659410
        12        13        14        15     9        0.000000        1.461318         3    ;  uncertainty k = 0.335069
        12        13        14        15     9      180.000000        1.764611         4    ;  uncertainty k = 0.220745
        12        13        14        19     9        0.000000       -0.251339         1    ;  uncertainty k = 0.225812
        12        13        14        19     9      180.000000       11.882309         2    ;  uncertainty k = 0.212881
        12        13        14        19     9        0.000000       -0.431963         3    ;  uncertainty k = 0.492563
        12        13        14        19     9      180.000000        0.966872         4    ;  uncertainty k = 0.329892
        12        21        20        19     9        0.000000       -0.274443         1    ;  uncertainty k = 0.209993
        12        21        20        19     9      180.000000       14.193547         2    ;  uncertainty k = 0.243702
        12        21        20        19     9        0.000000       -0.825857         3    ;  uncertainty k = 0.472075
        12        21        20        19     9      180.000000        0.811988         4    ;  uncertainty k = 0.227337
        12        21        20        34     9        0.000000        0.030124         1    ;  uncertainty k = 0.066196
        12        21        20        34     9      180.000000        7.830210         2    ;  uncertainty k = 0.232717
        12        21        20        34     9        0.000000        1.358974         3    ;  uncertainty k = 0.159620
        12        21        20        34     9      180.000000        1.757686         4    ;  uncertainty k = 0.144431
        13        12        21        20     9        0.000000       -0.003467         1    ;  uncertainty k = 0.080228
        13        12        21        20     9      180.000000       10.021364         2    ;  uncertainty k = 0.550002
        13        12        21        20     9        0.000000       -0.157712         3    ;  uncertainty k = 0.411351
        13        12        21        20     9      180.000000        1.116828         4    ;  uncertainty k = 0.409267
        13        12        21        35     9        0.000000        0.278178         1    ;  uncertainty k = 0.157173
        13        12        21        35     9      180.000000        6.395045         2    ;  uncertainty k = 0.731884
        13        12        21        35     9        0.000000        1.387906         3    ;  uncertainty k = 0.416133
        13        12        21        35     9      180.000000        1.593558         4    ;  uncertainty k = 0.202098
        13        14        15        16     9        0.000000       -0.828907         1    ;  uncertainty k = 0.452622
        13        14        15        16     9      180.000000        2.803200         2    ;  uncertainty k = 0.128772
        13        14        15        16     9        0.000000        0.701501         3    ;  uncertainty k = 0.032688
        13        14        15        16     9      180.000000        0.136337         4    ;  uncertainty k = 0.047427
        13        14        15        17     9        0.000000       -0.828907         1    ;  uncertainty k = 0.452622
        13        14        15        17     9      180.000000        2.803200         2    ;  uncertainty k = 0.128772
        13        14        15        17     9        0.000000        0.701501         3    ;  uncertainty k = 0.032688
        13        14        15        17     9      180.000000        0.136337         4    ;  uncertainty k = 0.047427
        13        14        15        18     9        0.000000       -0.828907         1    ;  uncertainty k = 0.452622
        13        14        15        18     9      180.000000        2.803200         2    ;  uncertainty k = 0.128772
        13        14        15        18     9        0.000000        0.701501         3    ;  uncertainty k = 0.032688
        13        14        15        18     9      180.000000        0.136337         4    ;  uncertainty k = 0.047427
        13        14        19        20     9        0.000000       -0.238116         1    ;  uncertainty k = 0.209093
        13        14        19        20     9      180.000000       12.299164         2    ;  uncertainty k = 0.499372
        13        14        19        20     9        0.000000       -0.649051         3    ;  uncertainty k = 0.413941
        13        14        19        20     9      180.000000        0.809773         4    ;  uncertainty k = 0.356024
        13        14        19        33     9        0.000000        0.220952         1    ;  uncertainty k = 0.223730
        13        14        19        33     9      180.000000        7.534679         2    ;  uncertainty k = 0.440509
        13        14        19        33     9        0.000000        1.373084         3    ;  uncertainty k = 0.455762
        13        14        19        33     9      180.000000        1.631125         4    ;  uncertainty k = 0.232510
        14        13        12        21     9        0.000000       -0.062398         1    ;  uncertainty k = 0.292331
        14        13        12        21     9      180.000000        9.245553         2    ;  uncertainty k = 0.592081
        14        13        12        21     9        0.000000       -0.008936         3    ;  uncertainty k = 0.582499
        14        13        12        21     9      180.000000        1.177935         4    ;  uncertainty k = 0.484619
        14        19        20        21     9        0.000000       -0.243850         1    ;  uncertainty k = 0.189763
        14        19        20        21     9      180.000000       13.673829         2    ;  uncertainty k = 0.341799
        14        19        20        21     9        0.000000       -0.849479         3    ;  uncertainty k = 0.421712
        14        19        20        21     9      180.000000        0.713106         4    ;  uncertainty k = 0.296868
        14        19        20        34     9        0.000000        0.068788         1    ;  uncertainty k = 0.266778
        14        19        20        34     9      180.000000        7.561180         2    ;  uncertainty k = 0.317046
        14        19        20        34     9        0.000000        1.473540         3    ;  uncertainty k = 0.220229
        14        19        20        34     9      180.000000        1.732188         4    ;  uncertainty k = 0.159060
        15        14        13        32     9        0.000000        0.263433         1    ;  uncertainty k = 0.414604
        15        14        13        32     9      180.000000        8.781868         2    ;  uncertainty k = 0.304602
        15        14        13        32     9        0.000000        0.696019         3    ;  uncertainty k = 0.144996
        15        14        13        32     9      180.000000        1.087930         4    ;  uncertainty k = 0.155232
        15        14        19        20     9        0.000000        0.078885         1    ;  uncertainty k = 0.186673
        15        14        19        20     9      180.000000       10.351753         2    ;  uncertainty k = 0.778178
        15        14        19        20     9        0.000000        1.523036         3    ;  uncertainty k = 0.299974
        15        14        19        20     9      180.000000        1.886244         4    ;  uncertainty k = 0.383052
        15        14        19        33     9        0.000000        0.018304         1    ;  uncertainty k = 0.362064
        15        14        19        33     9      180.000000        8.851526         2    ;  uncertainty k = 0.560934
        15        14        19        33     9        0.000000        0.689709         3    ;  uncertainty k = 0.261465
        15        14        19        33     9      180.000000        1.019568         4    ;  uncertainty k = 0.221458
        16        15        14        19     9        0.000000       -0.823211         1    ;  uncertainty k = 0.470326
        16        15        14        19     9      180.000000        2.802694         2    ;  uncertainty k = 0.082905
        16        15        14        19     9        0.000000        0.688763         3    ;  uncertainty k = 0.058349
        16        15        14        19     9      180.000000        0.135610         4    ;  uncertainty k = 0.041085
        17        15        14        19     9        0.000000       -0.823211         1    ;  uncertainty k = 0.470326
        17        15        14        19     9      180.000000        2.802694         2    ;  uncertainty k = 0.082905
        17        15        14        19     9        0.000000        0.688763         3    ;  uncertainty k = 0.058349
        17        15        14        19     9      180.000000        0.135610         4    ;  uncertainty k = 0.041085
        18        15        14        19     9        0.000000       -0.823211         1    ;  uncertainty k = 0.470326
        18        15        14        19     9      180.000000        2.802694         2    ;  uncertainty k = 0.082905
        18        15        14        19     9        0.000000        0.688763         3    ;  uncertainty k = 0.058349
        18        15        14        19     9      180.000000        0.135610         4    ;  uncertainty k = 0.041085
        19        14        13        32     9        0.000000        0.268151         1    ;  uncertainty k = 0.190039
        19        14        13        32     9      180.000000        7.491648         2    ;  uncertainty k = 0.392990
        19        14        13        32     9        0.000000        1.431311         3    ;  uncertainty k = 0.350124
        19        14        13        32     9      180.000000        1.713380         4    ;  uncertainty k = 0.259229
        19        20        21        35     9        0.000000        0.088447         1    ;  uncertainty k = 0.118077
        19        20        21        35     9      180.000000        7.757902         2    ;  uncertainty k = 0.350508
        19        20        21        35     9        0.000000        1.478620         3    ;  uncertainty k = 0.245127
        19        20        21        35     9      180.000000        1.826841         4    ;  uncertainty k = 0.156239
        21        12        13        32     9        0.000000        0.352482         1    ;  uncertainty k = 0.339484
        21        12        13        32     9      180.000000        6.361092         2    ;  uncertainty k = 0.726341
        21        12        13        32     9        0.000000        1.436523         3    ;  uncertainty k = 0.297366
        21        12        13        32     9      180.000000        1.632782         4    ;  uncertainty k = 0.226382
        21        20        19        33     9        0.000000        0.045855         1    ;  uncertainty k = 0.139452
        21        20        19        33     9      180.000000        7.634182         2    ;  uncertainty k = 0.325719
        21        20        19        33     9        0.000000        1.429701         3    ;  uncertainty k = 0.294024
        21        20        19        33     9      180.000000        1.813094         4    ;  uncertainty k = 0.105599
        22        10         9        25     9        0.000000       -0.006292         1    ;  uncertainty k = 0.585644
        22        10         9        25     9      180.000000        5.409164         2    ;  uncertainty k = 1.404242
        22        10         9        25     9        0.000000       -0.113620         3    ;  uncertainty k = 0.195163
        22        10         9        25     9      180.000000        1.221279         4    ;  uncertainty k = 0.563245
        22        23        24        25     9        0.000000        0.122912         1    ;  uncertainty k = 0.377650
        22        23        24        25     9      180.000000       16.205381         2    ;  uncertainty k = 0.253453
        22        23        24        25     9        0.000000       -1.374142         3    ;  uncertainty k = 0.567401
        22        23        24        25     9      180.000000        0.764888         4    ;  uncertainty k = 0.233191
        22        23        24        37     9        0.000000        0.109573         1    ;  uncertainty k = 0.140059
        22        23        24        37     9      180.000000       10.004729         2    ;  uncertainty k = 0.564195
        22        23        24        37     9        0.000000        0.906338         3    ;  uncertainty k = 0.280019
        22        23        24        37     9      180.000000        1.603453         4    ;  uncertainty k = 0.128880
        23        24        25        38     9        0.000000       -0.096931         1    ;  uncertainty k = 0.224660
        23        24        25        38     9      180.000000        7.599745         2    ;  uncertainty k = 0.300022
        23        24        25        38     9        0.000000        1.345913         3    ;  uncertainty k = 0.259017
        23        24        25        38     9      180.000000        1.606126         4    ;  uncertainty k = 0.220857
        25         9         8        31     9        0.000000        0.848167         1    ;  uncertainty k = 0.508402
        25         9         8        31     9      180.000000        2.941024         2    ;  uncertainty k = 0.300123
        25         9         8        31     9        0.000000        0.417155         3    ;  uncertainty k = 0.206640
        25         9         8        31     9      180.000000        0.143213         4    ;  uncertainty k = 0.162479
        25        24        23        36     9        0.000000       -0.129492         1    ;  uncertainty k = 0.287891
        25        24        23        36     9      180.000000        6.663214         2    ;  uncertainty k = 0.558015
        25        24        23        36     9        0.000000        1.279160         3    ;  uncertainty k = 0.228439
        25        24        23        36     9      180.000000        1.542370         4    ;  uncertainty k = 0.207679
        26         4         3        29     9        0.000000        0.245521         1    ;  uncertainty k = 0.367710
        26         4         3        29     9      180.000000        6.663590         2    ;  uncertainty k = 0.408809
        26         4         3        29     9        0.000000        1.344085         3    ;  uncertainty k = 0.282074
        26         4         3        29     9      180.000000        1.544251         4    ;  uncertainty k = 0.189891
        26         4         5        30     9        0.000000        0.753560         1    ;  uncertainty k = 0.977975
        26         4         5        30     9      180.000000        3.835625         2    ;  uncertainty k = 0.145005
        26         4         5        30     9        0.000000        0.601055         3    ;  uncertainty k = 0.138931
        26         4         5        30     9      180.000000        0.171126         4    ;  uncertainty k = 0.057517
        26        27        28        41     9        0.000000        0.077825         1    ;  uncertainty k = 0.203589
        26        27        28        41     9      180.000000        7.688334         2    ;  uncertainty k = 0.293048
        26        27        28        41     9        0.000000        1.457532         3    ;  uncertainty k = 0.318636
        26        27        28        41     9      180.000000        1.786693         4    ;  uncertainty k = 0.122629
        28         2         3        29     9        0.000000        0.129707         1    ;  uncertainty k = 0.175162
        28         2         3        29     9      180.000000        6.517205         2    ;  uncertainty k = 0.487504
        28         2         3        29     9        0.000000        1.539136         3    ;  uncertainty k = 0.348287
        28         2         3        29     9      180.000000        1.637651         4    ;  uncertainty k = 0.121123
        28        27        26        39     9        0.000000        0.060229         1    ;  uncertainty k = 0.109365
        28        27        26        39     9      180.000000        8.183150         2    ;  uncertainty k = 0.390697
        28        27        26        39     9        0.000000        1.543077         3    ;  uncertainty k = 0.276558
        28        27        26        39     9      180.000000        1.879688         4    ;  uncertainty k = 0.173207
        33        19        20        34     9        0.000000       -0.002551         1    ;  uncertainty k = 0.115730
        33        19        20        34     9      180.000000        7.661892         2    ;  uncertainty k = 0.473727
        33        19        20        34     9        0.000000       -0.390381         3    ;  uncertainty k = 0.286359
        33        19        20        34     9      180.000000        0.068734         4    ;  uncertainty k = 0.168306
        34        20        21        35     9        0.000000       -0.111313         1    ;  uncertainty k = 0.116734
        34        20        21        35     9      180.000000        7.570028         2    ;  uncertainty k = 0.334359
        34        20        21        35     9        0.000000       -0.403022         3    ;  uncertainty k = 0.287477
        34        20        21        35     9      180.000000        0.119544         4    ;  uncertainty k = 0.101292
        36        23        24        37     9        0.000000       -0.176777         1    ;  uncertainty k = 0.222997
        36        23        24        37     9      180.000000        6.567606         2    ;  uncertainty k = 0.260169
        36        23        24        37     9        0.000000       -0.010461         3    ;  uncertainty k = 0.138989
        36        23        24        37     9      180.000000        0.217241         4    ;  uncertainty k = 0.090307
        37        24        25        38     9        0.000000        0.077279         1    ;  uncertainty k = 0.355604
        37        24        25        38     9      180.000000        7.819656         2    ;  uncertainty k = 0.531205
        37        24        25        38     9        0.000000       -0.430593         3    ;  uncertainty k = 0.317162
        37        24        25        38     9      180.000000        0.145196         4    ;  uncertainty k = 0.160605
        39        26        27        40     9        0.000000       -0.099803         1    ;  uncertainty k = 0.435393
        39        26        27        40     9      180.000000        8.007285         2    ;  uncertainty k = 0.414825
        39        26        27        40     9        0.000000       -0.425534         3    ;  uncertainty k = 0.275725
        39        26        27        40     9      180.000000        0.178171         4    ;  uncertainty k = 0.150210
        40        27        28        41     9        0.000000       -0.028155         1    ;  uncertainty k = 0.158291
        40        27        28        41     9      180.000000        7.539470         2    ;  uncertainty k = 0.487023
        40        27        28        41     9        0.000000       -0.376164         3    ;  uncertainty k = 0.214331
        40        27        28        41     9      180.000000        0.042011         4    ;  uncertainty k = 0.159608

[ dihedrals ] ; impropers
;       ai        aj        ak        al funct           phase               k        pn
         2         1         3        28     4      180.000000       13.628166         2    ;  uncertainty k = 0.059975
         2         3        28         1     4      180.000000       13.628166         2    ;  uncertainty k = 0.059975
         2        28         1         3     4      180.000000       13.628166         2    ;  uncertainty k = 0.059975
         3         2         4        29     4      180.000000        2.347263         2    ;  uncertainty k = 0.456419
         3         4        29         2     4      180.000000        2.347263         2    ;  uncertainty k = 0.456419
         3        29         2         4     4      180.000000        2.347263         2    ;  uncertainty k = 0.456419
         4         3         5        26     4      180.000000       18.564631         2    ;  uncertainty k = 0.087767
         4         5        26         3     4      180.000000       18.564631         2    ;  uncertainty k = 0.087767
         4        26         3         5     4      180.000000       18.564631         2    ;  uncertainty k = 0.087767
         5         4         6        30     4      180.000000        0.645690         2    ;  uncertainty k = 0.751936
         5         6        30         4     4      180.000000        0.645690         2    ;  uncertainty k = 0.751936
         5        30         4         6     4      180.000000        0.645690         2    ;  uncertainty k = 0.751936
         6         5         7         8     4      180.000000       63.343113         2    ;  uncertainty k = 0.060651
         6         7         8         5     4      180.000000       63.343113         2    ;  uncertainty k = 0.060651
         6         8         5         7     4      180.000000       63.343113         2    ;  uncertainty k = 0.060651
         8         6         9        31     4      180.000000        0.392748         2    ;  uncertainty k = 0.562770
         8         9        31         6     4      180.000000        0.392748         2    ;  uncertainty k = 0.562770
         8        31         6         9     4      180.000000        0.392748         2    ;  uncertainty k = 0.562770
         9         8        10        25     4      180.000000       13.075348         2    ;  uncertainty k = 0.235826
         9        10        25         8     4      180.000000       13.075348         2    ;  uncertainty k = 0.235826
         9        25         8        10     4      180.000000       13.075348         2    ;  uncertainty k = 0.235826
        10         9        11        22     4      180.000000       23.632419         2    ;  uncertainty k = 0.090188
        10        11        22         9     4      180.000000       23.632419         2    ;  uncertainty k = 0.090188
        10        22         9        11     4      180.000000       23.632419         2    ;  uncertainty k = 0.090188
        12        11        13        21     4      180.000000       16.372356         2    ;  uncertainty k = 0.070186
        12        13        21        11     4      180.000000       16.372356         2    ;  uncertainty k = 0.070186
        12        21        11        13     4      180.000000       16.372356         2    ;  uncertainty k = 0.070186
        13        12        14        32     4      180.000000        3.523439         2    ;  uncertainty k = 0.117653
        13        14        32        12     4      180.000000        3.523439         2    ;  uncertainty k = 0.117653
        13        32        12        14     4      180.000000        3.523439         2    ;  uncertainty k = 0.117653
        14        13        15        19     4      180.000000        8.646183         2    ;  uncertainty k = 0.131479
        14        15        19        13     4      180.000000        8.646183         2    ;  uncertainty k = 0.131479
        14        19        13        15     4      180.000000        8.646183         2    ;  uncertainty k = 0.131479
        19        14        20        33     4      180.000000        4.036363         2    ;  uncertainty k = 0.083904
        19        20        33        14     4      180.000000        4.036363         2    ;  uncertainty k = 0.083904
        19        33        14        20     4      180.000000        4.036363         2    ;  uncertainty k = 0.083904
        20        19        21        34     4      180.000000        4.325333         2    ;  uncertainty k = 0.198962
        20        21        34        19     4      180.000000        4.325333         2    ;  uncertainty k = 0.198962
        20        34        19        21     4      180.000000        4.325333         2    ;  uncertainty k = 0.198962
        21        12        20        35     4      180.000000        3.153037         2    ;  uncertainty k = 0.114221
        21        20        35        12     4      180.000000        3.153037         2    ;  uncertainty k = 0.114221
        21        35        12        20     4      180.000000        3.153037         2    ;  uncertainty k = 0.114221
        23        22        24        36     4      180.000000       11.532154         2    ;  uncertainty k = 0.089528
        23        24        36        22     4      180.000000       11.532154         2    ;  uncertainty k = 0.089528
        23        36        22        24     4      180.000000       11.532154         2    ;  uncertainty k = 0.089528
        24        23        25        37     4      180.000000        2.219263         2    ;  uncertainty k = 0.396250
        24        25        37        23     4      180.000000        2.219263         2    ;  uncertainty k = 0.396250
        24        37        23        25     4      180.000000        2.219263         2    ;  uncertainty k = 0.396250
        25         9        24        38     4      180.000000        4.523754         2    ;  uncertainty k = 0.211544
        25        24        38         9     4      180.000000        4.523754         2    ;  uncertainty k = 0.211544
        25        38         9        24     4      180.000000        4.523754         2    ;  uncertainty k = 0.211544
        26         4        27        39     4      180.000000        2.652859         2    ;  uncertainty k = 0.411949
        26        27        39         4     4      180.000000        2.652859         2    ;  uncertainty k = 0.411949
        26        39         4        27     4      180.000000        2.652859         2    ;  uncertainty k = 0.411949
        27        26        28        40     4      180.000000        4.360764         2    ;  uncertainty k = 0.166804
        27        28        40        26     4      180.000000        4.360764         2    ;  uncertainty k = 0.166804
        27        40        26        28     4      180.000000        4.360764         2    ;  uncertainty k = 0.166804
        28         2        27        41     4      180.000000        2.488819         2    ;  uncertainty k = 0.189039
        28        27        41         2     4      180.000000        2.488819         2    ;  uncertainty k = 0.189039
        28        41         2        27     4      180.000000        2.488819         2    ;  uncertainty k = 0.189039

[ pairs ]
;       ai        aj funct
         1         4     1
         1        27     1
         1        29     1
         1        41     1
         2         5     1
         2        26     1
         2        40     1
         3         6     1
         3        27     1
         3        30     1
         3        39     1
         3        41     1
         4         7     1
         4         8     1
         4        28     1
         4        40     1
         5         9     1
         5        27     1
         5        29     1
         5        31     1
         5        39     1
         6        10     1
         6        25     1
         6        26     1
         7         9     1
         7        30     1
         7        31     1
         8        11     1
         8        22     1
         8        24     1
         8        30     1
         8        38     1
         9        12     1
         9        23     1
         9        37     1
        10        13     1
        10        21     1
        10        24     1
        10        31     1
        10        36     1
        10        38     1
        11        14     1
        11        20     1
        11        23     1
        11        25     1
        11        32     1
        11        35     1
        12        15     1
        12        19     1
        12        22     1
        12        34     1
        13        16     1
        13        17     1
        13        18     1
        13        20     1
        13        33     1
        13        35     1
        14        21     1
        14        34     1
        15        20     1
        15        32     1
        15        33     1
        16        19     1
        17        19     1
        18        19     1
        19        32     1
        19        35     1
        21        32     1
        21        33     1
        22        25     1
        22        37     1
        23        38     1
        25        31     1
        25        36     1
        26        29     1
        26        30     1
        26        41     1
        28        29     1
        28        39     1
        33        34     1
        34        35     1
        36        37     1
        37        38     1
        39        40     1
        40        41     1
