; ITP file created by ByteFF-joint-25, 2025-07-14 11:29:02.290459

[ atomtypes ]
;name           bonded.type        at.num        mass        charge   ptype           sigma         epsilon
 cl0bf                                 17      0.0000       0.00000       A     3.46630e-01     1.10437e+00    ;  uncertainty sigma = 0.000011, epsilon = 0.001278
 c1bf                                   6      0.0000       0.00000       A     3.31529e-01     4.13132e-01    ;  uncertainty sigma = 0.000005, epsilon = 0.000549
 c2bf                                   6      0.0000       0.00000       A     3.31524e-01     4.13481e-01    ;  uncertainty sigma = 0.000005, epsilon = 0.000610
 c3bf                                   6      0.0000       0.00000       A     3.31524e-01     4.13459e-01    ;  uncertainty sigma = 0.000006, epsilon = 0.000526
 c4bf                                   6      0.0000       0.00000       A     3.31544e-01     4.13012e-01    ;  uncertainty sigma = 0.000019, epsilon = 0.000923
 n5bf                                   7      0.0000       0.00000       A     3.27001e-01     4.89717e-01    ;  uncertainty sigma = 0.000033, epsilon = 0.001946
 c6bf                                   6      0.0000       0.00000       A     3.31430e-01     4.12461e-01    ;  uncertainty sigma = 0.000089, epsilon = 0.001757
 o7bf                                   8      0.0000       0.00000       A     3.04768e-01     6.12506e-01    ;  uncertainty sigma = 0.000026, epsilon = 0.002291
 n8bf                                   7      0.0000       0.00000       A     3.26911e-01     4.90562e-01    ;  uncertainty sigma = 0.000022, epsilon = 0.003078
 c9bf                                   6      0.0000       0.00000       A     3.31550e-01     4.12934e-01    ;  uncertainty sigma = 0.000036, epsilon = 0.001226
 c10bf                                  6      0.0000       0.00000       A     3.31577e-01     4.13277e-01    ;  uncertainty sigma = 0.000020, epsilon = 0.000425
 o11bf                                  8      0.0000       0.00000       A     3.15742e-01     3.04478e-01    ;  uncertainty sigma = 0.000034, epsilon = 0.001935
 c12bf                                  6      0.0000       0.00000       A     3.31524e-01     4.13769e-01    ;  uncertainty sigma = 0.000014, epsilon = 0.000755
 c13bf                                  6      0.0000       0.00000       A     3.31514e-01     4.13260e-01    ;  uncertainty sigma = 0.000005, epsilon = 0.000910
 c14bf                                  6      0.0000       0.00000       A     3.31516e-01     4.13636e-01    ;  uncertainty sigma = 0.000009, epsilon = 0.001109
 c15bf                                  6      0.0000       0.00000       A     3.39807e-01     4.50244e-01    ;  uncertainty sigma = 0.000018, epsilon = 0.000749
 f16bf                                  9      0.0000       0.00000       A     3.03450e-01     3.47874e-01    ;  uncertainty sigma = 0.000008, epsilon = 0.001301
 f17bf                                  9      0.0000       0.00000       A     3.03450e-01     3.47874e-01    ;  uncertainty sigma = 0.000008, epsilon = 0.001301
 f18bf                                  9      0.0000       0.00000       A     3.03450e-01     3.47874e-01    ;  uncertainty sigma = 0.000008, epsilon = 0.001301
 c19bf                                  6      0.0000       0.00000       A     3.31514e-01     4.13103e-01    ;  uncertainty sigma = 0.000005, epsilon = 0.000624
 c20bf                                  6      0.0000       0.00000       A     3.31518e-01     4.13409e-01    ;  uncertainty sigma = 0.000004, epsilon = 0.000593
 c21bf                                  6      0.0000       0.00000       A     3.31516e-01     4.13581e-01    ;  uncertainty sigma = 0.000006, epsilon = 0.000572
 n22bf                                  7      0.0000       0.00000       A     3.38387e-01     3.93418e-01    ;  uncertainty sigma = 0.000011, epsilon = 0.000773
 c23bf                                  6      0.0000       0.00000       A     3.31528e-01     4.13303e-01    ;  uncertainty sigma = 0.000012, epsilon = 0.000565
 c24bf                                  6      0.0000       0.00000       A     3.31519e-01     4.13136e-01    ;  uncertainty sigma = 0.000006, epsilon = 0.000735
 c25bf                                  6      0.0000       0.00000       A     3.31539e-01     4.13381e-01    ;  uncertainty sigma = 0.000004, epsilon = 0.001208
 c26bf                                  6      0.0000       0.00000       A     3.31524e-01     4.13459e-01    ;  uncertainty sigma = 0.000006, epsilon = 0.000526
 c27bf                                  6      0.0000       0.00000       A     3.31524e-01     4.13481e-01    ;  uncertainty sigma = 0.000005, epsilon = 0.000610
 h28bf                                  1      0.0000       0.00000       A     2.62562e-01     6.70372e-02    ;  uncertainty sigma = 0.000011, epsilon = 0.000601
 h29bf                                  1      0.0000       0.00000       A     2.62559e-01     6.70083e-02    ;  uncertainty sigma = 0.000010, epsilon = 0.000434
 h30bf                                  1      0.0000       0.00000       A     1.10658e-01     4.17921e-02    ;  uncertainty sigma = 0.000100, epsilon = 0.000972
 h31bf                                  1      0.0000       0.00000       A     1.10682e-01     4.19025e-02    ;  uncertainty sigma = 0.000080, epsilon = 0.001074
 h32bf                                  1      0.0000       0.00000       A     2.62538e-01     6.71612e-02    ;  uncertainty sigma = 0.000012, epsilon = 0.000800
 h33bf                                  1      0.0000       0.00000       A     2.62557e-01     6.69727e-02    ;  uncertainty sigma = 0.000012, epsilon = 0.000520
 h34bf                                  1      0.0000       0.00000       A     2.62568e-01     6.69722e-02    ;  uncertainty sigma = 0.000010, epsilon = 0.000464
 h35bf                                  1      0.0000       0.00000       A     2.62561e-01     6.71298e-02    ;  uncertainty sigma = 0.000006, epsilon = 0.000455
 h36bf                                  1      0.0000       0.00000       A     2.53636e-01     6.70246e-02    ;  uncertainty sigma = 0.000013, epsilon = 0.000470
 h37bf                                  1      0.0000       0.00000       A     2.62567e-01     6.71100e-02    ;  uncertainty sigma = 0.000011, epsilon = 0.000575
 h38bf                                  1      0.0000       0.00000       A     2.62550e-01     6.71051e-02    ;  uncertainty sigma = 0.000018, epsilon = 0.000451
 h39bf                                  1      0.0000       0.00000       A     2.62559e-01     6.70083e-02    ;  uncertainty sigma = 0.000010, epsilon = 0.000434
 h40bf                                  1      0.0000       0.00000       A     2.62562e-01     6.70375e-02    ;  uncertainty sigma = 0.000011, epsilon = 0.000601

[ moleculetype ]
;name             nrexcl
 MOL                   3

[ atoms ]
;       nr            type      resi   res      atom      cgnr      charge          mass ; qtot
         1           cl0bf         1   UNL       cl0         1    -0.11729       35.4530 ; qtot   -0.117
         2            c1bf         1   UNL        c1         2     0.00327       12.0110 ; qtot   -0.114
         3            c2bf         1   UNL        c2         3    -0.09090       12.0110 ; qtot   -0.205
         4            c3bf         1   UNL        c3         4    -0.16524       12.0110 ; qtot   -0.370
         5            c4bf         1   UNL        c4         5     0.08423       12.0110 ; qtot   -0.286
         6            n5bf         1   UNL        n5         6    -0.48927       14.0070 ; qtot   -0.775
         7            c6bf         1   UNL        c6         7     0.79866       12.0110 ; qtot    0.023
         8            o7bf         1   UNL        o7         8    -0.59887       15.9990 ; qtot   -0.575
         9            n8bf         1   UNL        n8         9    -0.47413       14.0070 ; qtot   -1.050
        10            c9bf         1   UNL        c9        10    -0.04576       12.0110 ; qtot   -1.095
        11           c10bf         1   UNL       c10        11     0.59681       12.0110 ; qtot   -0.498
        12           o11bf         1   UNL       o11        12    -0.38813       15.9990 ; qtot   -0.887
        13           c12bf         1   UNL       c12        13     0.11385       12.0110 ; qtot   -0.773
        14           c13bf         1   UNL       c13        14    -0.08749       12.0110 ; qtot   -0.860
        15           c14bf         1   UNL       c14        15    -0.16749       12.0110 ; qtot   -1.028
        16           c15bf         1   UNL       c15        16     0.70937       12.0110 ; qtot   -0.318
        17           f16bf         1   UNL       f16        17    -0.22905       18.9980 ; qtot   -0.547
        18           f17bf         1   UNL       f17        18    -0.22905       18.9980 ; qtot   -0.776
        19           f18bf         1   UNL       f18        19    -0.22905       18.9980 ; qtot   -1.006
        20           c19bf         1   UNL       c19        20    -0.09679       12.0110 ; qtot   -1.102
        21           c20bf         1   UNL       c20        21    -0.11259       12.0110 ; qtot   -1.215
        22           c21bf         1   UNL       c21        22    -0.11807       12.0110 ; qtot   -1.333
        23           n22bf         1   UNL       n22        23    -0.69921       14.0070 ; qtot   -2.032
        24           c23bf         1   UNL       c23        24     0.39652       12.0110 ; qtot   -1.636
        25           c24bf         1   UNL       c24        25    -0.24092       12.0110 ; qtot   -1.877
        26           c25bf         1   UNL       c25        26    -0.10097       12.0110 ; qtot   -1.978
        27           c26bf         1   UNL       c26        27    -0.16524       12.0110 ; qtot   -2.143
        28           c27bf         1   UNL       c27        28    -0.09090       12.0110 ; qtot   -2.234
        29           h28bf         1   UNL       h28        29     0.15064        1.0080 ; qtot   -2.083
        30           h29bf         1   UNL       h29        30     0.15538        1.0080 ; qtot   -1.928
        31           h30bf         1   UNL       h30        31     0.32276        1.0080 ; qtot   -1.605
        32           h31bf         1   UNL       h31        32     0.34303        1.0080 ; qtot   -1.262
        33           h32bf         1   UNL       h32        33     0.16649        1.0080 ; qtot   -1.095
        34           h33bf         1   UNL       h33        34     0.15186        1.0080 ; qtot   -0.944
        35           h34bf         1   UNL       h34        35     0.14308        1.0080 ; qtot   -0.800
        36           h35bf         1   UNL       h35        36     0.15133        1.0080 ; qtot   -0.649
        37           h36bf         1   UNL       h36        37     0.02625        1.0080 ; qtot   -0.623
        38           h37bf         1   UNL       h37        38     0.14569        1.0080 ; qtot   -0.477
        39           h38bf         1   UNL       h38        39     0.17117        1.0080 ; qtot   -0.306
        40           h39bf         1   UNL       h39        40     0.15538        1.0080 ; qtot   -0.151
        41           h40bf         1   UNL       h40        41     0.15064        1.0080 ; qtot    0.000

[ bonds ]
;       ai        aj funct               r               k
         1         2     1        0.175843   197514.244287    ;  uncertainty r = 0.000016, k = 4.573872
         2         3     1        0.139479   364644.589062    ;  uncertainty r = 0.000022, k = 1.851401
         2        28     1        0.139479   364644.589062    ;  uncertainty r = 0.000022, k = 1.851401
         3         4     1        0.139234   370265.332373    ;  uncertainty r = 0.000019, k = 2.359477
         3        29     1        0.108698   335115.620898    ;  uncertainty r = 0.000019, k = 0.927556
         4         5     1        0.140287   353727.449268    ;  uncertainty r = 0.000049, k = 3.459463
         4        30     1        0.108676   336095.786230    ;  uncertainty r = 0.000017, k = 2.523345
         5         6     1        0.141026   328165.109229    ;  uncertainty r = 0.000101, k = 6.037214
         5        27     1        0.140287   353727.449268    ;  uncertainty r = 0.000049, k = 3.459463
         6         7     1        0.139710   394377.266748    ;  uncertainty r = 0.000110, k = 16.822332
         6        31     1        0.101889   423258.869189    ;  uncertainty r = 0.000036, k = 1.970075
         7         8     1        0.124145   784756.086133    ;  uncertainty r = 0.000126, k = 12.841139
         7         9     1        0.139930   382450.287500    ;  uncertainty r = 0.000140, k = 14.422871
         9        10     1        0.140096   339046.216162    ;  uncertainty r = 0.000118, k = 8.055134
         9        32     1        0.101870   417728.195264    ;  uncertainty r = 0.000093, k = 3.473106
        10        11     1        0.140110   355790.847705    ;  uncertainty r = 0.000180, k = 18.434716
        10        26     1        0.139587   350172.658105    ;  uncertainty r = 0.000051, k = 12.669227
        11        12     1        0.137456   295567.576465    ;  uncertainty r = 0.000121, k = 7.043869
        11        23     1        0.131673   342519.850391    ;  uncertainty r = 0.000195, k = 23.816176
        12        13     1        0.138532   314308.673682    ;  uncertainty r = 0.000052, k = 8.971879
        13        14     1        0.139094   353843.413281    ;  uncertainty r = 0.000040, k = 3.656161
        13        22     1        0.139222   354352.674316    ;  uncertainty r = 0.000036, k = 2.697108
        14        15     1        0.138556   347781.567480    ;  uncertainty r = 0.000101, k = 2.673954
        14        33     1        0.108679   332885.490674    ;  uncertainty r = 0.000010, k = 0.906594
        15        16     1        0.149137   215527.840332    ;  uncertainty r = 0.000061, k = 1.127544
        15        20     1        0.138974   350508.956299    ;  uncertainty r = 0.000051, k = 2.268711
        16        17     1        0.135326   286985.958545    ;  uncertainty r = 0.000042, k = 3.079748
        16        18     1        0.135326   286985.958545    ;  uncertainty r = 0.000042, k = 3.079748
        16        19     1        0.135326   286985.958545    ;  uncertainty r = 0.000042, k = 3.079748
        20        21     1        0.139480   367362.069482    ;  uncertainty r = 0.000037, k = 2.422113
        20        34     1        0.108641   332705.786035    ;  uncertainty r = 0.000020, k = 0.826440
        21        22     1        0.139275   372627.234082    ;  uncertainty r = 0.000029, k = 1.736824
        21        35     1        0.108743   333039.504980    ;  uncertainty r = 0.000015, k = 1.385174
        22        36     1        0.108795   335979.132715    ;  uncertainty r = 0.000019, k = 0.979490
        23        24     1        0.134174   386160.574121    ;  uncertainty r = 0.000069, k = 8.080806
        24        25     1        0.139039   373281.443750    ;  uncertainty r = 0.000047, k = 3.782626
        24        37     1        0.108937   336014.271777    ;  uncertainty r = 0.000016, k = 1.810751
        25        26     1        0.139560   376722.211719    ;  uncertainty r = 0.000043, k = 3.130764
        25        38     1        0.108806   337266.713770    ;  uncertainty r = 0.000012, k = 1.595174
        26        39     1        0.108477   334523.798389    ;  uncertainty r = 0.000051, k = 3.409764
        27        28     1        0.139234   370265.332373    ;  uncertainty r = 0.000019, k = 2.359478
        27        40     1        0.108676   336095.786230    ;  uncertainty r = 0.000017, k = 2.523348
        28        41     1        0.108698   335115.646436    ;  uncertainty r = 0.000019, k = 0.927556

[ angles ]
;       ai        aj        ak funct           theta             cth
         1         2         3     1      120.455429      446.770132    ;  uncertainty theta = 0.000927, k = 0.022531
         1         2        28     1      120.455429      446.770132    ;  uncertainty theta = 0.000927, k = 0.022531
         2         3         4     1      119.376236      489.107148    ;  uncertainty theta = 0.001304, k = 0.081805
         2         3        29     1      120.927734      285.233264    ;  uncertainty theta = 0.001428, k = 0.015879
         2        28        27     1      119.376236      489.107148    ;  uncertainty theta = 0.001304, k = 0.081805
         2        28        41     1      120.927734      285.233264    ;  uncertainty theta = 0.001428, k = 0.015879
         3         2        28     1      120.364334      374.764677    ;  uncertainty theta = 0.002013, k = 0.063854
         3         4         5     1      120.027832      497.063937    ;  uncertainty theta = 0.001542, k = 0.066188
         3         4        30     1      120.314285      314.384544    ;  uncertainty theta = 0.001486, k = 0.114566
         4         3        29     1      120.336990      273.920101    ;  uncertainty theta = 0.001893, k = 0.063415
         4         5         6     1      120.057053      537.237322    ;  uncertainty theta = 0.003710, k = 0.094436
         4         5        27     1      119.611740      394.177477    ;  uncertainty theta = 0.007108, k = 0.117582
         5         4        30     1      118.948669      264.772453    ;  uncertainty theta = 0.000840, k = 0.044465
         5         6         7     1      118.435768      400.866795    ;  uncertainty theta = 0.007404, k = 0.066796
         5         6        31     1      114.435265      301.144000    ;  uncertainty theta = 0.006715, k = 0.302008
         5        27        28     1      120.027832      497.063937    ;  uncertainty theta = 0.001542, k = 0.066188
         5        27        40     1      118.948669      264.772453    ;  uncertainty theta = 0.000840, k = 0.044465
         6         5        27     1      120.057053      537.237322    ;  uncertainty theta = 0.003710, k = 0.094436
         6         7         8     1      125.128220      719.646532    ;  uncertainty theta = 0.005098, k = 0.058138
         6         7         9     1      111.600075      570.961628    ;  uncertainty theta = 0.006100, k = 0.244008
         7         6        31     1      116.812332      320.715705    ;  uncertainty theta = 0.007303, k = 0.165146
         7         9        10     1      118.191467      382.545068    ;  uncertainty theta = 0.006597, k = 0.353697
         7         9        32     1      118.027504      326.505382    ;  uncertainty theta = 0.007877, k = 0.178566
         8         7         9     1      125.188744      728.667516    ;  uncertainty theta = 0.005334, k = 0.101797
         9        10        11     1      117.092575      491.278569    ;  uncertainty theta = 0.007126, k = 0.229131
         9        10        26     1      122.491959      468.987673    ;  uncertainty theta = 0.005717, k = 0.226574
        10         9        32     1      114.704041      335.957688    ;  uncertainty theta = 0.005639, k = 0.195191
        10        11        12     1      116.530540      390.693960    ;  uncertainty theta = 0.012172, k = 0.316589
        10        11        23     1      125.653397      515.566722    ;  uncertainty theta = 0.002376, k = 0.153093
        10        26        25     1      118.664589      535.632314    ;  uncertainty theta = 0.002867, k = 0.172990
        10        26        39     1      117.850075      264.486868    ;  uncertainty theta = 0.003879, k = 0.116474
        11        10        26     1      117.575417      353.893836    ;  uncertainty theta = 0.008911, k = 0.132789
        11        12        13     1      113.059975      473.447729    ;  uncertainty theta = 0.007514, k = 0.198938
        11        23        24     1      118.982071      388.605918    ;  uncertainty theta = 0.003083, k = 0.211257
        12        11        23     1      116.747131      568.431731    ;  uncertainty theta = 0.007457, k = 0.117546
        12        13        14     1      119.209549      406.140145    ;  uncertainty theta = 0.002397, k = 0.063411
        12        13        22     1      120.049278      419.740666    ;  uncertainty theta = 0.001725, k = 0.093993
        13        14        15     1      118.864952      508.527450    ;  uncertainty theta = 0.002845, k = 0.197951
        13        14        33     1      120.623009      281.233099    ;  uncertainty theta = 0.003246, k = 0.049393
        13        22        21     1      117.594139      518.928427    ;  uncertainty theta = 0.002508, k = 0.052964
        13        22        36     1      120.314964      277.616661    ;  uncertainty theta = 0.001021, k = 0.060898
        14        13        22     1      121.950890      373.168512    ;  uncertainty theta = 0.004064, k = 0.157752
        14        15        16     1      115.496521      350.324770    ;  uncertainty theta = 0.005914, k = 0.124689
        14        15        20     1      122.656799      467.566022    ;  uncertainty theta = 0.003025, k = 0.100386
        15        14        33     1      119.226295      277.135287    ;  uncertainty theta = 0.002912, k = 0.100269
        15        16        17     1      112.945602      661.607385    ;  uncertainty theta = 0.002125, k = 0.029099
        15        16        18     1      112.945602      661.607385    ;  uncertainty theta = 0.002125, k = 0.029099
        15        16        19     1      112.945602      661.607385    ;  uncertainty theta = 0.002125, k = 0.029099
        15        20        21     1      119.255554      512.146569    ;  uncertainty theta = 0.001818, k = 0.042517
        15        20        34     1      118.405869      274.175408    ;  uncertainty theta = 0.002940, k = 0.043008
        16        15        20     1      116.478043      341.375130    ;  uncertainty theta = 0.005609, k = 0.113786
        17        16        18     1      107.682266      790.161449    ;  uncertainty theta = 0.001820, k = 0.019275
        17        16        19     1      107.682266      790.161449    ;  uncertainty theta = 0.001820, k = 0.019275
        18        16        19     1      107.682266      790.161449    ;  uncertainty theta = 0.001820, k = 0.019275
        20        21        22     1      120.533386      511.752021    ;  uncertainty theta = 0.002153, k = 0.049486
        20        21        35     1      119.962425      281.972813    ;  uncertainty theta = 0.000658, k = 0.030297
        21        20        34     1      120.654930      286.912935    ;  uncertainty theta = 0.002806, k = 0.061171
        21        22        36     1      121.377441      292.172718    ;  uncertainty theta = 0.001338, k = 0.032523
        22        21        35     1      119.824585      284.259342    ;  uncertainty theta = 0.001720, k = 0.029816
        23        24        25     1      122.018661      680.497696    ;  uncertainty theta = 0.002657, k = 0.057695
        23        24        37     1      116.528885      326.284582    ;  uncertainty theta = 0.003532, k = 0.089660
        24        25        26     1      116.662033      486.639338    ;  uncertainty theta = 0.002659, k = 0.164042
        24        25        38     1      121.531288      284.776501    ;  uncertainty theta = 0.000829, k = 0.071895
        25        24        37     1      121.479836      279.479466    ;  uncertainty theta = 0.001106, k = 0.075570
        25        26        39     1      121.491959      306.835200    ;  uncertainty theta = 0.004314, k = 0.137900
        26        25        38     1      121.692772      278.904338    ;  uncertainty theta = 0.003629, k = 0.116071
        27        28        41     1      120.336998      273.920133    ;  uncertainty theta = 0.001893, k = 0.063415
        28        27        40     1      120.314285      314.384481    ;  uncertainty theta = 0.001486, k = 0.114566

[ dihedrals ] ; propers for gromacs 4.5 or higher, use funct 9
;       ai        aj        ak        al funct           phase               k        pn
         1         2         3         4     9        0.000000       -0.084751         1    ;  uncertainty k = 0.166284
         1         2         3         4     9      180.000000        9.168798         2    ;  uncertainty k = 0.501926
         1         2         3         4     9        0.000000        1.539664         3    ;  uncertainty k = 0.458016
         1         2         3         4     9      180.000000        1.690509         4    ;  uncertainty k = 0.164088
         1         2         3        29     9        0.000000       -0.188638         1    ;  uncertainty k = 0.172623
         1         2         3        29     9      180.000000        7.090038         2    ;  uncertainty k = 0.239504
         1         2         3        29     9        0.000000        0.633909         3    ;  uncertainty k = 0.383190
         1         2         3        29     9      180.000000        0.959857         4    ;  uncertainty k = 0.193928
         1         2        28        27     9        0.000000       -0.084751         1    ;  uncertainty k = 0.166284
         1         2        28        27     9      180.000000        9.168798         2    ;  uncertainty k = 0.501926
         1         2        28        27     9        0.000000        1.539664         3    ;  uncertainty k = 0.458016
         1         2        28        27     9      180.000000        1.690509         4    ;  uncertainty k = 0.164088
         1         2        28        41     9        0.000000       -0.188638         1    ;  uncertainty k = 0.172623
         1         2        28        41     9      180.000000        7.090038         2    ;  uncertainty k = 0.239504
         1         2        28        41     9        0.000000        0.633909         3    ;  uncertainty k = 0.383190
         1         2        28        41     9      180.000000        0.959857         4    ;  uncertainty k = 0.193928
         2         3         4         5     9        0.000000       -0.173767         1    ;  uncertainty k = 0.168597
         2         3         4         5     9      180.000000       14.282709         2    ;  uncertainty k = 0.230823
         2         3         4         5     9        0.000000       -0.769007         3    ;  uncertainty k = 0.523535
         2         3         4         5     9      180.000000        0.842585         4    ;  uncertainty k = 0.237793
         2         3         4        30     9        0.000000       -0.025792         1    ;  uncertainty k = 0.201592
         2         3         4        30     9      180.000000        8.260986         2    ;  uncertainty k = 0.335851
         2         3         4        30     9        0.000000        1.426880         3    ;  uncertainty k = 0.260876
         2         3         4        30     9      180.000000        1.902645         4    ;  uncertainty k = 0.200213
         2        28        27         5     9        0.000000       -0.173767         1    ;  uncertainty k = 0.168597
         2        28        27         5     9      180.000000       14.282709         2    ;  uncertainty k = 0.230823
         2        28        27         5     9        0.000000       -0.769007         3    ;  uncertainty k = 0.523535
         2        28        27         5     9      180.000000        0.842585         4    ;  uncertainty k = 0.237793
         2        28        27        40     9        0.000000       -0.025792         1    ;  uncertainty k = 0.201592
         2        28        27        40     9      180.000000        8.260986         2    ;  uncertainty k = 0.335851
         2        28        27        40     9        0.000000        1.426880         3    ;  uncertainty k = 0.260876
         2        28        27        40     9      180.000000        1.902645         4    ;  uncertainty k = 0.200213
         3         2        28        27     9        0.000000       -0.145127         1    ;  uncertainty k = 0.177175
         3         2        28        27     9      180.000000       10.460346         2    ;  uncertainty k = 0.467920
         3         2        28        27     9        0.000000       -0.378287         3    ;  uncertainty k = 0.455560
         3         2        28        27     9      180.000000        1.009701         4    ;  uncertainty k = 0.311308
         3         2        28        41     9        0.000000       -0.022081         1    ;  uncertainty k = 0.210328
         3         2        28        41     9      180.000000        6.015500         2    ;  uncertainty k = 0.591663
         3         2        28        41     9        0.000000        1.361395         3    ;  uncertainty k = 0.346126
         3         2        28        41     9      180.000000        1.505079         4    ;  uncertainty k = 0.208117
         3         4         5         6     9        0.000000        0.005016         1    ;  uncertainty k = 0.324633
         3         4         5         6     9      180.000000       10.360850         2    ;  uncertainty k = 0.510895
         3         4         5         6     9        0.000000        1.186616         3    ;  uncertainty k = 0.458947
         3         4         5         6     9      180.000000        1.652603         4    ;  uncertainty k = 0.223108
         3         4         5        27     9        0.000000       -0.177142         1    ;  uncertainty k = 0.154267
         3         4         5        27     9      180.000000        9.491778         2    ;  uncertainty k = 0.288617
         3         4         5        27     9        0.000000       -0.001390         3    ;  uncertainty k = 0.065210
         3         4         5        27     9      180.000000        1.207508         4    ;  uncertainty k = 0.215976
         4         3         2        28     9        0.000000       -0.145127         1    ;  uncertainty k = 0.177175
         4         3         2        28     9      180.000000       10.460346         2    ;  uncertainty k = 0.467920
         4         3         2        28     9        0.000000       -0.378287         3    ;  uncertainty k = 0.455560
         4         3         2        28     9      180.000000        1.009701         4    ;  uncertainty k = 0.311308
         4         5         6         7     9        0.000000        1.176698         1    ;  uncertainty k = 0.505952
         4         5         6         7     9      180.000000        4.490181         2    ;  uncertainty k = 0.239865
         4         5         6         7     9        0.000000        0.997532         3    ;  uncertainty k = 0.196259
         4         5         6         7     9      180.000000        0.313426         4    ;  uncertainty k = 0.085219
         4         5         6        31     9        0.000000        0.686428         1    ;  uncertainty k = 0.889905
         4         5         6        31     9      180.000000        3.655242         2    ;  uncertainty k = 0.136360
         4         5         6        31     9        0.000000        0.678286         3    ;  uncertainty k = 0.133051
         4         5         6        31     9      180.000000        0.216675         4    ;  uncertainty k = 0.050162
         4         5        27        28     9        0.000000       -0.177142         1    ;  uncertainty k = 0.154267
         4         5        27        28     9      180.000000        9.491778         2    ;  uncertainty k = 0.288617
         4         5        27        28     9        0.000000       -0.001390         3    ;  uncertainty k = 0.065210
         4         5        27        28     9      180.000000        1.207508         4    ;  uncertainty k = 0.215976
         4         5        27        40     9        0.000000        0.164728         1    ;  uncertainty k = 0.355933
         4         5        27        40     9      180.000000        6.650426         2    ;  uncertainty k = 0.469791
         4         5        27        40     9        0.000000        1.306029         3    ;  uncertainty k = 0.316166
         4         5        27        40     9      180.000000        1.529088         4    ;  uncertainty k = 0.159959
         5         4         3        29     9        0.000000       -0.003860         1    ;  uncertainty k = 0.193443
         5         4         3        29     9      180.000000        8.175107         2    ;  uncertainty k = 0.505956
         5         4         3        29     9        0.000000        1.348185         3    ;  uncertainty k = 0.262156
         5         4         3        29     9      180.000000        1.714875         4    ;  uncertainty k = 0.121365
         5         6         7         8     9        0.000000        6.225569         1    ;  uncertainty k = 0.918445
         5         6         7         8     9      180.000000        9.693091         2    ;  uncertainty k = 0.347797
         5         6         7         8     9        0.000000        1.227665         3    ;  uncertainty k = 0.176783
         5         6         7         8     9      180.000000       -0.525868         4    ;  uncertainty k = 0.153315
         5         6         7         9     9        0.000000        6.819942         1    ;  uncertainty k = 0.833929
         5         6         7         9     9      180.000000        5.980941         2    ;  uncertainty k = 0.745777
         5         6         7         9     9        0.000000        0.551596         3    ;  uncertainty k = 0.324014
         5         6         7         9     9      180.000000       -0.114354         4    ;  uncertainty k = 0.260842
         5        27        28        41     9        0.000000       -0.003860         1    ;  uncertainty k = 0.193443
         5        27        28        41     9      180.000000        8.175107         2    ;  uncertainty k = 0.505956
         5        27        28        41     9        0.000000        1.348185         3    ;  uncertainty k = 0.262156
         5        27        28        41     9      180.000000        1.714875         4    ;  uncertainty k = 0.121365
         6         5         4        30     9        0.000000       -0.085941         1    ;  uncertainty k = 0.209512
         6         5         4        30     9      180.000000        8.181581         2    ;  uncertainty k = 0.525008
         6         5         4        30     9        0.000000        0.770477         3    ;  uncertainty k = 0.209582
         6         5         4        30     9      180.000000        1.164841         4    ;  uncertainty k = 0.241821
         6         5        27        28     9        0.000000        0.005016         1    ;  uncertainty k = 0.324633
         6         5        27        28     9      180.000000       10.360850         2    ;  uncertainty k = 0.510895
         6         5        27        28     9        0.000000        1.186616         3    ;  uncertainty k = 0.458947
         6         5        27        28     9      180.000000        1.652603         4    ;  uncertainty k = 0.223108
         6         5        27        40     9        0.000000       -0.085941         1    ;  uncertainty k = 0.209512
         6         5        27        40     9      180.000000        8.181581         2    ;  uncertainty k = 0.525008
         6         5        27        40     9        0.000000        0.770477         3    ;  uncertainty k = 0.209582
         6         5        27        40     9      180.000000        1.164841         4    ;  uncertainty k = 0.241821
         6         7         9        10     9        0.000000        8.097410         1    ;  uncertainty k = 0.965586
         6         7         9        10     9      180.000000        6.079947         2    ;  uncertainty k = 0.980609
         6         7         9        10     9        0.000000        0.638674         3    ;  uncertainty k = 0.171913
         6         7         9        10     9      180.000000       -0.161954         4    ;  uncertainty k = 0.445618
         6         7         9        32     9        0.000000        3.140676         1    ;  uncertainty k = 0.997163
         6         7         9        32     9      180.000000        4.606961         2    ;  uncertainty k = 1.129894
         6         7         9        32     9        0.000000        0.781753         3    ;  uncertainty k = 0.203637
         6         7         9        32     9      180.000000       -0.387107         4    ;  uncertainty k = 0.270300
         7         6         5        27     9        0.000000        1.176698         1    ;  uncertainty k = 0.505952
         7         6         5        27     9      180.000000        4.490181         2    ;  uncertainty k = 0.239865
         7         6         5        27     9        0.000000        0.997532         3    ;  uncertainty k = 0.196259
         7         6         5        27     9      180.000000        0.313426         4    ;  uncertainty k = 0.085219
         7         9        10        11     9        0.000000        1.826178         1    ;  uncertainty k = 1.230613
         7         9        10        11     9      180.000000        3.914690         2    ;  uncertainty k = 0.505910
         7         9        10        11     9        0.000000        0.267512         3    ;  uncertainty k = 0.197085
         7         9        10        11     9      180.000000       -0.000673         4    ;  uncertainty k = 0.064722
         7         9        10        26     9        0.000000        1.590482         1    ;  uncertainty k = 1.223146
         7         9        10        26     9      180.000000        3.933824         2    ;  uncertainty k = 0.529571
         7         9        10        26     9        0.000000        0.641748         3    ;  uncertainty k = 0.289819
         7         9        10        26     9      180.000000        0.355266         4    ;  uncertainty k = 0.131762
         8         7         6        31     9        0.000000        0.944311         1    ;  uncertainty k = 0.481747
         8         7         6        31     9      180.000000        9.631720         2    ;  uncertainty k = 0.218444
         8         7         6        31     9        0.000000        2.134539         3    ;  uncertainty k = 0.211372
         8         7         6        31     9      180.000000       -0.270740         4    ;  uncertainty k = 0.205350
         8         7         9        10     9        0.000000        6.946396         1    ;  uncertainty k = 0.908899
         8         7         9        10     9      180.000000        9.319620         2    ;  uncertainty k = 0.343354
         8         7         9        10     9        0.000000        1.327876         3    ;  uncertainty k = 0.355434
         8         7         9        10     9      180.000000       -0.511188         4    ;  uncertainty k = 0.273827
         8         7         9        32     9        0.000000        0.648440         1    ;  uncertainty k = 0.303764
         8         7         9        32     9      180.000000        8.524098         2    ;  uncertainty k = 0.415172
         8         7         9        32     9        0.000000        1.856515         3    ;  uncertainty k = 0.251832
         8         7         9        32     9      180.000000       -0.422622         4    ;  uncertainty k = 0.241464
         9         7         6        31     9        0.000000        2.784094         1    ;  uncertainty k = 0.996554
         9         7         6        31     9      180.000000        4.681547         2    ;  uncertainty k = 1.140007
         9         7         6        31     9        0.000000        0.937857         3    ;  uncertainty k = 0.238446
         9         7         6        31     9      180.000000       -0.387399         4    ;  uncertainty k = 0.267785
         9        10        11        12     9        0.000000        0.265513         1    ;  uncertainty k = 0.638101
         9        10        11        12     9      180.000000        8.312027         2    ;  uncertainty k = 0.483820
         9        10        11        12     9        0.000000        0.783388         3    ;  uncertainty k = 0.198631
         9        10        11        12     9      180.000000        1.337313         4    ;  uncertainty k = 0.293172
         9        10        11        23     9        0.000000        0.353474         1    ;  uncertainty k = 0.449760
         9        10        11        23     9      180.000000        6.335181         2    ;  uncertainty k = 0.770062
         9        10        11        23     9        0.000000        0.762700         3    ;  uncertainty k = 0.328523
         9        10        11        23     9      180.000000        1.504660         4    ;  uncertainty k = 0.296384
         9        10        26        25     9        0.000000       -0.104134         1    ;  uncertainty k = 0.141360
         9        10        26        25     9      180.000000       11.628689         2    ;  uncertainty k = 0.794318
         9        10        26        25     9        0.000000        1.107582         3    ;  uncertainty k = 0.487862
         9        10        26        25     9      180.000000        1.611587         4    ;  uncertainty k = 0.361445
         9        10        26        39     9        0.000000       -0.339226         1    ;  uncertainty k = 0.473729
         9        10        26        39     9      180.000000        8.956188         2    ;  uncertainty k = 0.817388
         9        10        26        39     9        0.000000        0.715306         3    ;  uncertainty k = 0.150871
         9        10        26        39     9      180.000000        1.268139         4    ;  uncertainty k = 0.406221
        10        11        12        13     9        0.000000        5.742982         1    ;  uncertainty k = 0.996505
        10        11        12        13     9      180.000000        3.878653         2    ;  uncertainty k = 0.444863
        10        11        12        13     9        0.000000        0.580855         3    ;  uncertainty k = 0.248381
        10        11        12        13     9      180.000000        0.086291         4    ;  uncertainty k = 0.156289
        10        11        23        24     9        0.000000        0.676654         1    ;  uncertainty k = 0.481269
        10        11        23        24     9      180.000000       12.337756         2    ;  uncertainty k = 0.384550
        10        11        23        24     9        0.000000        1.799559         3    ;  uncertainty k = 0.431189
        10        11        23        24     9      180.000000        1.358998         4    ;  uncertainty k = 0.224517
        10        26        25        24     9        0.000000       -0.219717         1    ;  uncertainty k = 0.258711
        10        26        25        24     9      180.000000       13.489343         2    ;  uncertainty k = 0.300398
        10        26        25        24     9        0.000000       -1.177534         3    ;  uncertainty k = 0.825067
        10        26        25        24     9      180.000000        0.747942         4    ;  uncertainty k = 0.391509
        10        26        25        38     9        0.000000        0.313279         1    ;  uncertainty k = 0.255485
        10        26        25        38     9      180.000000        7.639764         2    ;  uncertainty k = 0.597194
        10        26        25        38     9        0.000000        1.394864         3    ;  uncertainty k = 0.301687
        10        26        25        38     9      180.000000        1.632044         4    ;  uncertainty k = 0.213681
        11        10         9        32     9        0.000000        1.809919         1    ;  uncertainty k = 1.049578
        11        10         9        32     9      180.000000        2.184103         2    ;  uncertainty k = 0.856980
        11        10         9        32     9        0.000000       -0.055926         3    ;  uncertainty k = 0.368395
        11        10         9        32     9      180.000000       -0.094869         4    ;  uncertainty k = 0.135654
        11        10        26        25     9        0.000000       -0.045324         1    ;  uncertainty k = 0.346307
        11        10        26        25     9      180.000000        9.675692         2    ;  uncertainty k = 0.563612
        11        10        26        25     9        0.000000        0.089574         3    ;  uncertainty k = 0.421919
        11        10        26        25     9      180.000000        1.428809         4    ;  uncertainty k = 0.224622
        11        10        26        39     9        0.000000       -0.056218         1    ;  uncertainty k = 0.336146
        11        10        26        39     9      180.000000        7.154486         2    ;  uncertainty k = 0.386951
        11        10        26        39     9        0.000000        1.228551         3    ;  uncertainty k = 0.135670
        11        10        26        39     9      180.000000        1.474946         4    ;  uncertainty k = 0.079159
        11        12        13        14     9        0.000000        4.111153         1    ;  uncertainty k = 0.463348
        11        12        13        14     9      180.000000        5.444235         2    ;  uncertainty k = 0.180214
        11        12        13        14     9        0.000000        0.337321         3    ;  uncertainty k = 0.385525
        11        12        13        14     9      180.000000        0.284107         4    ;  uncertainty k = 0.144689
        11        12        13        22     9        0.000000        4.031478         1    ;  uncertainty k = 0.324367
        11        12        13        22     9      180.000000        5.326864         2    ;  uncertainty k = 0.098304
        11        12        13        22     9        0.000000        0.404902         3    ;  uncertainty k = 0.412078
        11        12        13        22     9      180.000000        0.296999         4    ;  uncertainty k = 0.116646
        11        23        24        25     9        0.000000       -0.133462         1    ;  uncertainty k = 0.695196
        11        23        24        25     9      180.000000       15.215297         2    ;  uncertainty k = 0.215444
        11        23        24        25     9        0.000000        0.737113         3    ;  uncertainty k = 0.573056
        11        23        24        25     9      180.000000        1.291837         4    ;  uncertainty k = 0.321443
        11        23        24        37     9        0.000000        0.068263         1    ;  uncertainty k = 0.501141
        11        23        24        37     9      180.000000       15.223381         2    ;  uncertainty k = 0.588647
        11        23        24        37     9        0.000000        2.120235         3    ;  uncertainty k = 0.703419
        11        23        24        37     9      180.000000        1.291633         4    ;  uncertainty k = 0.573906
        12        11        10        26     9        0.000000        0.758628         1    ;  uncertainty k = 0.302974
        12        11        10        26     9      180.000000        5.954667         2    ;  uncertainty k = 0.582835
        12        11        10        26     9        0.000000        0.897889         3    ;  uncertainty k = 0.157549
        12        11        10        26     9      180.000000        1.407331         4    ;  uncertainty k = 0.461766
        12        11        23        24     9        0.000000        0.645014         1    ;  uncertainty k = 1.001765
        12        11        23        24     9      180.000000       16.604500         2    ;  uncertainty k = 0.284032
        12        11        23        24     9        0.000000        2.791706         3    ;  uncertainty k = 0.527017
        12        11        23        24     9      180.000000        1.944515         4    ;  uncertainty k = 0.152085
        12        13        14        15     9        0.000000       -0.054166         1    ;  uncertainty k = 0.319745
        12        13        14        15     9      180.000000       11.162460         2    ;  uncertainty k = 0.228187
        12        13        14        15     9        0.000000        1.352213         3    ;  uncertainty k = 0.202966
        12        13        14        15     9      180.000000        1.594604         4    ;  uncertainty k = 0.163375
        12        13        14        33     9        0.000000        0.246878         1    ;  uncertainty k = 0.126179
        12        13        14        33     9      180.000000        8.724117         2    ;  uncertainty k = 0.255701
        12        13        14        33     9        0.000000        0.898640         3    ;  uncertainty k = 0.304407
        12        13        14        33     9      180.000000        1.116873         4    ;  uncertainty k = 0.210214
        12        13        22        21     9        0.000000       -0.042015         1    ;  uncertainty k = 0.399401
        12        13        22        21     9      180.000000       11.193089         2    ;  uncertainty k = 0.404423
        12        13        22        21     9        0.000000        1.305480         3    ;  uncertainty k = 0.216137
        12        13        22        21     9      180.000000        1.621828         4    ;  uncertainty k = 0.141002
        12        13        22        36     9        0.000000        0.072912         1    ;  uncertainty k = 0.103915
        12        13        22        36     9      180.000000        8.608526         2    ;  uncertainty k = 0.251063
        12        13        22        36     9        0.000000        0.860920         3    ;  uncertainty k = 0.274177
        12        13        22        36     9      180.000000        1.057134         4    ;  uncertainty k = 0.175952
        13        12        11        23     9        0.000000        2.095893         1    ;  uncertainty k = 1.084880
        13        12        11        23     9      180.000000        6.456938         2    ;  uncertainty k = 0.121607
        13        12        11        23     9        0.000000        0.082868         3    ;  uncertainty k = 0.422005
        13        12        11        23     9      180.000000        0.151585         4    ;  uncertainty k = 0.120974
        13        14        15        16     9        0.000000        0.137530         1    ;  uncertainty k = 0.382295
        13        14        15        16     9      180.000000       10.226747         2    ;  uncertainty k = 0.659410
        13        14        15        16     9        0.000000        1.461318         3    ;  uncertainty k = 0.335069
        13        14        15        16     9      180.000000        1.764611         4    ;  uncertainty k = 0.220745
        13        14        15        20     9        0.000000       -0.251339         1    ;  uncertainty k = 0.225812
        13        14        15        20     9      180.000000       11.882309         2    ;  uncertainty k = 0.212881
        13        14        15        20     9        0.000000       -0.431963         3    ;  uncertainty k = 0.492563
        13        14        15        20     9      180.000000        0.966872         4    ;  uncertainty k = 0.329892
        13        22        21        20     9        0.000000       -0.274443         1    ;  uncertainty k = 0.209993
        13        22        21        20     9      180.000000       14.193547         2    ;  uncertainty k = 0.243702
        13        22        21        20     9        0.000000       -0.825857         3    ;  uncertainty k = 0.472075
        13        22        21        20     9      180.000000        0.811988         4    ;  uncertainty k = 0.227337
        13        22        21        35     9        0.000000        0.030124         1    ;  uncertainty k = 0.066196
        13        22        21        35     9      180.000000        7.830210         2    ;  uncertainty k = 0.232717
        13        22        21        35     9        0.000000        1.358974         3    ;  uncertainty k = 0.159620
        13        22        21        35     9      180.000000        1.757686         4    ;  uncertainty k = 0.144431
        14        13        22        21     9        0.000000       -0.003467         1    ;  uncertainty k = 0.080228
        14        13        22        21     9      180.000000       10.021364         2    ;  uncertainty k = 0.550002
        14        13        22        21     9        0.000000       -0.157712         3    ;  uncertainty k = 0.411351
        14        13        22        21     9      180.000000        1.116828         4    ;  uncertainty k = 0.409267
        14        13        22        36     9        0.000000        0.278178         1    ;  uncertainty k = 0.157173
        14        13        22        36     9      180.000000        6.395045         2    ;  uncertainty k = 0.731884
        14        13        22        36     9        0.000000        1.387906         3    ;  uncertainty k = 0.416133
        14        13        22        36     9      180.000000        1.593558         4    ;  uncertainty k = 0.202098
        14        15        16        17     9        0.000000       -0.828907         1    ;  uncertainty k = 0.452622
        14        15        16        17     9      180.000000        2.803200         2    ;  uncertainty k = 0.128772
        14        15        16        17     9        0.000000        0.701501         3    ;  uncertainty k = 0.032688
        14        15        16        17     9      180.000000        0.136337         4    ;  uncertainty k = 0.047427
        14        15        16        18     9        0.000000       -0.828907         1    ;  uncertainty k = 0.452622
        14        15        16        18     9      180.000000        2.803200         2    ;  uncertainty k = 0.128772
        14        15        16        18     9        0.000000        0.701501         3    ;  uncertainty k = 0.032688
        14        15        16        18     9      180.000000        0.136337         4    ;  uncertainty k = 0.047427
        14        15        16        19     9        0.000000       -0.828907         1    ;  uncertainty k = 0.452622
        14        15        16        19     9      180.000000        2.803200         2    ;  uncertainty k = 0.128772
        14        15        16        19     9        0.000000        0.701501         3    ;  uncertainty k = 0.032688
        14        15        16        19     9      180.000000        0.136337         4    ;  uncertainty k = 0.047427
        14        15        20        21     9        0.000000       -0.238116         1    ;  uncertainty k = 0.209093
        14        15        20        21     9      180.000000       12.299164         2    ;  uncertainty k = 0.499372
        14        15        20        21     9        0.000000       -0.649051         3    ;  uncertainty k = 0.413941
        14        15        20        21     9      180.000000        0.809773         4    ;  uncertainty k = 0.356024
        14        15        20        34     9        0.000000        0.220952         1    ;  uncertainty k = 0.223730
        14        15        20        34     9      180.000000        7.534679         2    ;  uncertainty k = 0.440509
        14        15        20        34     9        0.000000        1.373084         3    ;  uncertainty k = 0.455762
        14        15        20        34     9      180.000000        1.631125         4    ;  uncertainty k = 0.232510
        15        14        13        22     9        0.000000       -0.062398         1    ;  uncertainty k = 0.292331
        15        14        13        22     9      180.000000        9.245553         2    ;  uncertainty k = 0.592081
        15        14        13        22     9        0.000000       -0.008936         3    ;  uncertainty k = 0.582499
        15        14        13        22     9      180.000000        1.177935         4    ;  uncertainty k = 0.484619
        15        20        21        22     9        0.000000       -0.243850         1    ;  uncertainty k = 0.189763
        15        20        21        22     9      180.000000       13.673829         2    ;  uncertainty k = 0.341799
        15        20        21        22     9        0.000000       -0.849479         3    ;  uncertainty k = 0.421712
        15        20        21        22     9      180.000000        0.713106         4    ;  uncertainty k = 0.296868
        15        20        21        35     9        0.000000        0.068788         1    ;  uncertainty k = 0.266778
        15        20        21        35     9      180.000000        7.561180         2    ;  uncertainty k = 0.317046
        15        20        21        35     9        0.000000        1.473540         3    ;  uncertainty k = 0.220229
        15        20        21        35     9      180.000000        1.732188         4    ;  uncertainty k = 0.159060
        16        15        14        33     9        0.000000        0.263433         1    ;  uncertainty k = 0.414604
        16        15        14        33     9      180.000000        8.781868         2    ;  uncertainty k = 0.304602
        16        15        14        33     9        0.000000        0.696019         3    ;  uncertainty k = 0.144996
        16        15        14        33     9      180.000000        1.087930         4    ;  uncertainty k = 0.155232
        16        15        20        21     9        0.000000        0.078885         1    ;  uncertainty k = 0.186673
        16        15        20        21     9      180.000000       10.351753         2    ;  uncertainty k = 0.778178
        16        15        20        21     9        0.000000        1.523036         3    ;  uncertainty k = 0.299974
        16        15        20        21     9      180.000000        1.886244         4    ;  uncertainty k = 0.383052
        16        15        20        34     9        0.000000        0.018304         1    ;  uncertainty k = 0.362064
        16        15        20        34     9      180.000000        8.851526         2    ;  uncertainty k = 0.560934
        16        15        20        34     9        0.000000        0.689709         3    ;  uncertainty k = 0.261465
        16        15        20        34     9      180.000000        1.019568         4    ;  uncertainty k = 0.221458
        17        16        15        20     9        0.000000       -0.823211         1    ;  uncertainty k = 0.470326
        17        16        15        20     9      180.000000        2.802694         2    ;  uncertainty k = 0.082905
        17        16        15        20     9        0.000000        0.688763         3    ;  uncertainty k = 0.058349
        17        16        15        20     9      180.000000        0.135610         4    ;  uncertainty k = 0.041085
        18        16        15        20     9        0.000000       -0.823211         1    ;  uncertainty k = 0.470326
        18        16        15        20     9      180.000000        2.802694         2    ;  uncertainty k = 0.082905
        18        16        15        20     9        0.000000        0.688763         3    ;  uncertainty k = 0.058349
        18        16        15        20     9      180.000000        0.135610         4    ;  uncertainty k = 0.041085
        19        16        15        20     9        0.000000       -0.823211         1    ;  uncertainty k = 0.470326
        19        16        15        20     9      180.000000        2.802694         2    ;  uncertainty k = 0.082905
        19        16        15        20     9        0.000000        0.688763         3    ;  uncertainty k = 0.058349
        19        16        15        20     9      180.000000        0.135610         4    ;  uncertainty k = 0.041085
        20        15        14        33     9        0.000000        0.268151         1    ;  uncertainty k = 0.190039
        20        15        14        33     9      180.000000        7.491648         2    ;  uncertainty k = 0.392990
        20        15        14        33     9        0.000000        1.431311         3    ;  uncertainty k = 0.350124
        20        15        14        33     9      180.000000        1.713380         4    ;  uncertainty k = 0.259229
        20        21        22        36     9        0.000000        0.088447         1    ;  uncertainty k = 0.118077
        20        21        22        36     9      180.000000        7.757902         2    ;  uncertainty k = 0.350508
        20        21        22        36     9        0.000000        1.478620         3    ;  uncertainty k = 0.245127
        20        21        22        36     9      180.000000        1.826841         4    ;  uncertainty k = 0.156239
        22        13        14        33     9        0.000000        0.352482         1    ;  uncertainty k = 0.339484
        22        13        14        33     9      180.000000        6.361092         2    ;  uncertainty k = 0.726341
        22        13        14        33     9        0.000000        1.436523         3    ;  uncertainty k = 0.297366
        22        13        14        33     9      180.000000        1.632782         4    ;  uncertainty k = 0.226382
        22        21        20        34     9        0.000000        0.045855         1    ;  uncertainty k = 0.139452
        22        21        20        34     9      180.000000        7.634182         2    ;  uncertainty k = 0.325719
        22        21        20        34     9        0.000000        1.429701         3    ;  uncertainty k = 0.294024
        22        21        20        34     9      180.000000        1.813094         4    ;  uncertainty k = 0.105599
        23        11        10        26     9        0.000000       -0.006292         1    ;  uncertainty k = 0.585644
        23        11        10        26     9      180.000000        5.409164         2    ;  uncertainty k = 1.404242
        23        11        10        26     9        0.000000       -0.113620         3    ;  uncertainty k = 0.195163
        23        11        10        26     9      180.000000        1.221279         4    ;  uncertainty k = 0.563245
        23        24        25        26     9        0.000000        0.122912         1    ;  uncertainty k = 0.377650
        23        24        25        26     9      180.000000       16.205381         2    ;  uncertainty k = 0.253453
        23        24        25        26     9        0.000000       -1.374142         3    ;  uncertainty k = 0.567401
        23        24        25        26     9      180.000000        0.764888         4    ;  uncertainty k = 0.233191
        23        24        25        38     9        0.000000        0.109573         1    ;  uncertainty k = 0.140059
        23        24        25        38     9      180.000000       10.004729         2    ;  uncertainty k = 0.564195
        23        24        25        38     9        0.000000        0.906338         3    ;  uncertainty k = 0.280019
        23        24        25        38     9      180.000000        1.603453         4    ;  uncertainty k = 0.128880
        24        25        26        39     9        0.000000       -0.096931         1    ;  uncertainty k = 0.224660
        24        25        26        39     9      180.000000        7.599745         2    ;  uncertainty k = 0.300022
        24        25        26        39     9        0.000000        1.345913         3    ;  uncertainty k = 0.259017
        24        25        26        39     9      180.000000        1.606126         4    ;  uncertainty k = 0.220857
        26        10         9        32     9        0.000000        0.848167         1    ;  uncertainty k = 0.508402
        26        10         9        32     9      180.000000        2.941024         2    ;  uncertainty k = 0.300123
        26        10         9        32     9        0.000000        0.417155         3    ;  uncertainty k = 0.206640
        26        10         9        32     9      180.000000        0.143213         4    ;  uncertainty k = 0.162479
        26        25        24        37     9        0.000000       -0.129492         1    ;  uncertainty k = 0.287891
        26        25        24        37     9      180.000000        6.663214         2    ;  uncertainty k = 0.558015
        26        25        24        37     9        0.000000        1.279160         3    ;  uncertainty k = 0.228439
        26        25        24        37     9      180.000000        1.542370         4    ;  uncertainty k = 0.207679
        27         5         4        30     9        0.000000        0.164728         1    ;  uncertainty k = 0.355933
        27         5         4        30     9      180.000000        6.650426         2    ;  uncertainty k = 0.469791
        27         5         4        30     9        0.000000        1.306029         3    ;  uncertainty k = 0.316166
        27         5         4        30     9      180.000000        1.529088         4    ;  uncertainty k = 0.159959
        27         5         6        31     9        0.000000        0.686428         1    ;  uncertainty k = 0.889905
        27         5         6        31     9      180.000000        3.655242         2    ;  uncertainty k = 0.136360
        27         5         6        31     9        0.000000        0.678286         3    ;  uncertainty k = 0.133051
        27         5         6        31     9      180.000000        0.216675         4    ;  uncertainty k = 0.050162
        28         2         3        29     9        0.000000       -0.022081         1    ;  uncertainty k = 0.210328
        28         2         3        29     9      180.000000        6.015500         2    ;  uncertainty k = 0.591663
        28         2         3        29     9        0.000000        1.361395         3    ;  uncertainty k = 0.346126
        28         2         3        29     9      180.000000        1.505079         4    ;  uncertainty k = 0.208117
        29         3         4        30     9        0.000000       -0.151579         1    ;  uncertainty k = 0.431058
        29         3         4        30     9      180.000000        8.039563         2    ;  uncertainty k = 0.378818
        29         3         4        30     9        0.000000       -0.416299         3    ;  uncertainty k = 0.219367
        29         3         4        30     9      180.000000        0.191981         4    ;  uncertainty k = 0.156070
        34        20        21        35     9        0.000000       -0.002551         1    ;  uncertainty k = 0.115730
        34        20        21        35     9      180.000000        7.661892         2    ;  uncertainty k = 0.473727
        34        20        21        35     9        0.000000       -0.390381         3    ;  uncertainty k = 0.286359
        34        20        21        35     9      180.000000        0.068734         4    ;  uncertainty k = 0.168306
        35        21        22        36     9        0.000000       -0.111313         1    ;  uncertainty k = 0.116734
        35        21        22        36     9      180.000000        7.570028         2    ;  uncertainty k = 0.334359
        35        21        22        36     9        0.000000       -0.403022         3    ;  uncertainty k = 0.287477
        35        21        22        36     9      180.000000        0.119544         4    ;  uncertainty k = 0.101292
        37        24        25        38     9        0.000000       -0.176777         1    ;  uncertainty k = 0.222997
        37        24        25        38     9      180.000000        6.567606         2    ;  uncertainty k = 0.260169
        37        24        25        38     9        0.000000       -0.010461         3    ;  uncertainty k = 0.138989
        37        24        25        38     9      180.000000        0.217241         4    ;  uncertainty k = 0.090307
        38        25        26        39     9        0.000000        0.077279         1    ;  uncertainty k = 0.355604
        38        25        26        39     9      180.000000        7.819656         2    ;  uncertainty k = 0.531205
        38        25        26        39     9        0.000000       -0.430593         3    ;  uncertainty k = 0.317162
        38        25        26        39     9      180.000000        0.145196         4    ;  uncertainty k = 0.160605
        40        27        28        41     9        0.000000       -0.151579         1    ;  uncertainty k = 0.431058
        40        27        28        41     9      180.000000        8.039563         2    ;  uncertainty k = 0.378818
        40        27        28        41     9        0.000000       -0.416299         3    ;  uncertainty k = 0.219367
        40        27        28        41     9      180.000000        0.191981         4    ;  uncertainty k = 0.156070

[ dihedrals ] ; impropers
;       ai        aj        ak        al funct           phase               k        pn
         2         1         3        28     4      180.000000       11.602075         2    ;  uncertainty k = 0.079869
         2         3        28         1     4      180.000000       11.602075         2    ;  uncertainty k = 0.079869
         2        28         1         3     4      180.000000       11.602075         2    ;  uncertainty k = 0.079869
         3         2         4        29     4      180.000000        3.510203         2    ;  uncertainty k = 0.252986
         3         4        29         2     4      180.000000        3.510203         2    ;  uncertainty k = 0.252986
         3        29         2         4     4      180.000000        3.510203         2    ;  uncertainty k = 0.252986
         4         3         5        30     4      180.000000        3.097844         2    ;  uncertainty k = 0.241226
         4         5        30         3     4      180.000000        3.097844         2    ;  uncertainty k = 0.241226
         4        30         3         5     4      180.000000        3.097844         2    ;  uncertainty k = 0.241226
         5         4         6        27     4      180.000000       18.126349         2    ;  uncertainty k = 0.087563
         5         6        27         4     4      180.000000       18.126349         2    ;  uncertainty k = 0.087563
         5        27         4         6     4      180.000000       18.126349         2    ;  uncertainty k = 0.087563
         6         5         7        31     4      180.000000        0.555210         2    ;  uncertainty k = 0.631222
         6         7        31         5     4      180.000000        0.555210         2    ;  uncertainty k = 0.631222
         6        31         5         7     4      180.000000        0.555210         2    ;  uncertainty k = 0.631222
         7         6         8         9     4      180.000000       63.229441         2    ;  uncertainty k = 0.059119
         7         8         9         6     4      180.000000       63.229441         2    ;  uncertainty k = 0.059119
         7         9         6         8     4      180.000000       63.229441         2    ;  uncertainty k = 0.059119
         9         7        10        32     4      180.000000        0.392748         2    ;  uncertainty k = 0.562770
         9        10        32         7     4      180.000000        0.392748         2    ;  uncertainty k = 0.562770
         9        32         7        10     4      180.000000        0.392748         2    ;  uncertainty k = 0.562770
        10         9        11        26     4      180.000000       13.075348         2    ;  uncertainty k = 0.235826
        10        11        26         9     4      180.000000       13.075348         2    ;  uncertainty k = 0.235826
        10        26         9        11     4      180.000000       13.075348         2    ;  uncertainty k = 0.235826
        11        10        12        23     4      180.000000       23.632419         2    ;  uncertainty k = 0.090188
        11        12        23        10     4      180.000000       23.632419         2    ;  uncertainty k = 0.090188
        11        23        10        12     4      180.000000       23.632419         2    ;  uncertainty k = 0.090188
        13        12        14        22     4      180.000000       16.372356         2    ;  uncertainty k = 0.070186
        13        14        22        12     4      180.000000       16.372356         2    ;  uncertainty k = 0.070186
        13        22        12        14     4      180.000000       16.372356         2    ;  uncertainty k = 0.070186
        14        13        15        33     4      180.000000        3.523439         2    ;  uncertainty k = 0.117653
        14        15        33        13     4      180.000000        3.523439         2    ;  uncertainty k = 0.117653
        14        33        13        15     4      180.000000        3.523439         2    ;  uncertainty k = 0.117653
        15        14        16        20     4      180.000000        8.646183         2    ;  uncertainty k = 0.131479
        15        16        20        14     4      180.000000        8.646183         2    ;  uncertainty k = 0.131479
        15        20        14        16     4      180.000000        8.646183         2    ;  uncertainty k = 0.131479
        20        15        21        34     4      180.000000        4.036363         2    ;  uncertainty k = 0.083904
        20        21        34        15     4      180.000000        4.036363         2    ;  uncertainty k = 0.083904
        20        34        15        21     4      180.000000        4.036363         2    ;  uncertainty k = 0.083904
        21        20        22        35     4      180.000000        4.325333         2    ;  uncertainty k = 0.198962
        21        22        35        20     4      180.000000        4.325333         2    ;  uncertainty k = 0.198962
        21        35        20        22     4      180.000000        4.325333         2    ;  uncertainty k = 0.198962
        22        13        21        36     4      180.000000        3.153037         2    ;  uncertainty k = 0.114221
        22        21        36        13     4      180.000000        3.153037         2    ;  uncertainty k = 0.114221
        22        36        13        21     4      180.000000        3.153037         2    ;  uncertainty k = 0.114221
        24        23        25        37     4      180.000000       11.532154         2    ;  uncertainty k = 0.089528
        24        25        37        23     4      180.000000       11.532154         2    ;  uncertainty k = 0.089528
        24        37        23        25     4      180.000000       11.532154         2    ;  uncertainty k = 0.089528
        25        24        26        38     4      180.000000        2.219263         2    ;  uncertainty k = 0.396250
        25        26        38        24     4      180.000000        2.219263         2    ;  uncertainty k = 0.396250
        25        38        24        26     4      180.000000        2.219263         2    ;  uncertainty k = 0.396250
        26        10        25        39     4      180.000000        4.523754         2    ;  uncertainty k = 0.211544
        26        25        39        10     4      180.000000        4.523754         2    ;  uncertainty k = 0.211544
        26        39        10        25     4      180.000000        4.523754         2    ;  uncertainty k = 0.211544
        27         5        28        40     4      180.000000        3.097844         2    ;  uncertainty k = 0.241226
        27        28        40         5     4      180.000000        3.097844         2    ;  uncertainty k = 0.241226
        27        40         5        28     4      180.000000        3.097844         2    ;  uncertainty k = 0.241226
        28         2        27        41     4      180.000000        3.510203         2    ;  uncertainty k = 0.252986
        28        27        41         2     4      180.000000        3.510203         2    ;  uncertainty k = 0.252986
        28        41         2        27     4      180.000000        3.510203         2    ;  uncertainty k = 0.252986

[ pairs ]
;       ai        aj funct
         1         4     1
         1        27     1
         1        29     1
         1        41     1
         2         5     1
         2        30     1
         2        40     1
         3         6     1
         3        27     1
         3        41     1
         4         7     1
         4        28     1
         4        31     1
         4        40     1
         5         8     1
         5         9     1
         5        29     1
         5        41     1
         6        10     1
         6        28     1
         6        30     1
         6        32     1
         6        40     1
         7        11     1
         7        26     1
         7        27     1
         8        10     1
         8        31     1
         8        32     1
         9        12     1
         9        23     1
         9        25     1
         9        31     1
         9        39     1
        10        13     1
        10        24     1
        10        38     1
        11        14     1
        11        22     1
        11        25     1
        11        32     1
        11        37     1
        11        39     1
        12        15     1
        12        21     1
        12        24     1
        12        26     1
        12        33     1
        12        36     1
        13        16     1
        13        20     1
        13        23     1
        13        35     1
        14        17     1
        14        18     1
        14        19     1
        14        21     1
        14        34     1
        14        36     1
        15        22     1
        15        35     1
        16        21     1
        16        33     1
        16        34     1
        17        20     1
        18        20     1
        19        20     1
        20        33     1
        20        36     1
        22        33     1
        22        34     1
        23        26     1
        23        38     1
        24        39     1
        26        32     1
        26        37     1
        27        30     1
        27        31     1
        28        29     1
        29        30     1
        34        35     1
        35        36     1
        37        38     1
        38        39     1
        40        41     1
