; ITP file created by ByteFF-joint-25, 2025-07-14 11:29:01.684458

[ atomtypes ]
;name           bonded.type        at.num        mass        charge   ptype           sigma         epsilon
 f0bf                                   9      0.0000       0.00000       A     3.03450e-01     3.47875e-01    ;  uncertainty sigma = 0.000008, epsilon = 0.001301
 c1bf                                   6      0.0000       0.00000       A     3.39807e-01     4.50244e-01    ;  uncertainty sigma = 0.000018, epsilon = 0.000749
 f2bf                                   9      0.0000       0.00000       A     3.03450e-01     3.47875e-01    ;  uncertainty sigma = 0.000008, epsilon = 0.001301
 f3bf                                   9      0.0000       0.00000       A     3.03450e-01     3.47875e-01    ;  uncertainty sigma = 0.000008, epsilon = 0.001301
 c4bf                                   6      0.0000       0.00000       A     3.31516e-01     4.13637e-01    ;  uncertainty sigma = 0.000009, epsilon = 0.001109
 c5bf                                   6      0.0000       0.00000       A     3.31514e-01     4.13261e-01    ;  uncertainty sigma = 0.000005, epsilon = 0.000910
 c6bf                                   6      0.0000       0.00000       A     3.31524e-01     4.13769e-01    ;  uncertainty sigma = 0.000014, epsilon = 0.000755
 o7bf                                   8      0.0000       0.00000       A     3.15742e-01     3.04478e-01    ;  uncertainty sigma = 0.000034, epsilon = 0.001935
 c8bf                                   6      0.0000       0.00000       A     3.31577e-01     4.13277e-01    ;  uncertainty sigma = 0.000020, epsilon = 0.000425
 c9bf                                   6      0.0000       0.00000       A     3.31550e-01     4.12934e-01    ;  uncertainty sigma = 0.000036, epsilon = 0.001226
 n10bf                                  7      0.0000       0.00000       A     3.26911e-01     4.90562e-01    ;  uncertainty sigma = 0.000022, epsilon = 0.003078
 c11bf                                  6      0.0000       0.00000       A     3.31430e-01     4.12461e-01    ;  uncertainty sigma = 0.000089, epsilon = 0.001757
 o12bf                                  8      0.0000       0.00000       A     3.04768e-01     6.12506e-01    ;  uncertainty sigma = 0.000026, epsilon = 0.002291
 n13bf                                  7      0.0000       0.00000       A     3.27001e-01     4.89717e-01    ;  uncertainty sigma = 0.000033, epsilon = 0.001946
 c14bf                                  6      0.0000       0.00000       A     3.31538e-01     4.13043e-01    ;  uncertainty sigma = 0.000019, epsilon = 0.000835
 c15bf                                  6      0.0000       0.00000       A     3.31530e-01     4.13499e-01    ;  uncertainty sigma = 0.000005, epsilon = 0.000736
 c16bf                                  6      0.0000       0.00000       A     3.31529e-01     4.13552e-01    ;  uncertainty sigma = 0.000006, epsilon = 0.000493
 c17bf                                  6      0.0000       0.00000       A     3.31517e-01     4.13469e-01    ;  uncertainty sigma = 0.000011, epsilon = 0.001154
 c18bf                                  6      0.0000       0.00000       A     3.39780e-01     4.51234e-01    ;  uncertainty sigma = 0.000015, epsilon = 0.000787
 c19bf                                  6      0.0000       0.00000       A     3.39771e-01     4.50889e-01    ;  uncertainty sigma = 0.000007, epsilon = 0.000480
 c20bf                                  6      0.0000       0.00000       A     3.39771e-01     4.50889e-01    ;  uncertainty sigma = 0.000007, epsilon = 0.000480
 c21bf                                  6      0.0000       0.00000       A     3.39771e-01     4.50889e-01    ;  uncertainty sigma = 0.000007, epsilon = 0.000480
 c22bf                                  6      0.0000       0.00000       A     3.31529e-01     4.13552e-01    ;  uncertainty sigma = 0.000006, epsilon = 0.000493
 c23bf                                  6      0.0000       0.00000       A     3.31530e-01     4.13499e-01    ;  uncertainty sigma = 0.000005, epsilon = 0.000736
 c24bf                                  6      0.0000       0.00000       A     3.31539e-01     4.13381e-01    ;  uncertainty sigma = 0.000004, epsilon = 0.001208
 c25bf                                  6      0.0000       0.00000       A     3.31519e-01     4.13136e-01    ;  uncertainty sigma = 0.000006, epsilon = 0.000735
 c26bf                                  6      0.0000       0.00000       A     3.31528e-01     4.13303e-01    ;  uncertainty sigma = 0.000012, epsilon = 0.000565
 n27bf                                  7      0.0000       0.00000       A     3.38387e-01     3.93418e-01    ;  uncertainty sigma = 0.000011, epsilon = 0.000773
 c28bf                                  6      0.0000       0.00000       A     3.31516e-01     4.13581e-01    ;  uncertainty sigma = 0.000006, epsilon = 0.000572
 c29bf                                  6      0.0000       0.00000       A     3.31518e-01     4.13409e-01    ;  uncertainty sigma = 0.000004, epsilon = 0.000593
 c30bf                                  6      0.0000       0.00000       A     3.31514e-01     4.13103e-01    ;  uncertainty sigma = 0.000005, epsilon = 0.000624
 h31bf                                  1      0.0000       0.00000       A     2.62538e-01     6.71611e-02    ;  uncertainty sigma = 0.000012, epsilon = 0.000800
 h32bf                                  1      0.0000       0.00000       A     1.10682e-01     4.19025e-02    ;  uncertainty sigma = 0.000080, epsilon = 0.001074
 h33bf                                  1      0.0000       0.00000       A     1.10658e-01     4.17921e-02    ;  uncertainty sigma = 0.000100, epsilon = 0.000972
 h34bf                                  1      0.0000       0.00000       A     2.62561e-01     6.70938e-02    ;  uncertainty sigma = 0.000014, epsilon = 0.000476
 h35bf                                  1      0.0000       0.00000       A     2.62553e-01     6.71122e-02    ;  uncertainty sigma = 0.000013, epsilon = 0.000520
 h36bf                                  1      0.0000       0.00000       A     2.60023e-01     8.66594e-02    ;  uncertainty sigma = 0.000006, epsilon = 0.000286
 h37bf                                  1      0.0000       0.00000       A     2.60023e-01     8.66594e-02    ;  uncertainty sigma = 0.000006, epsilon = 0.000286
 h38bf                                  1      0.0000       0.00000       A     2.60023e-01     8.66594e-02    ;  uncertainty sigma = 0.000006, epsilon = 0.000286
 h39bf                                  1      0.0000       0.00000       A     2.60023e-01     8.66594e-02    ;  uncertainty sigma = 0.000006, epsilon = 0.000286
 h40bf                                  1      0.0000       0.00000       A     2.60023e-01     8.66594e-02    ;  uncertainty sigma = 0.000006, epsilon = 0.000286
 h41bf                                  1      0.0000       0.00000       A     2.60023e-01     8.66594e-02    ;  uncertainty sigma = 0.000006, epsilon = 0.000286
 h42bf                                  1      0.0000       0.00000       A     2.60023e-01     8.66594e-02    ;  uncertainty sigma = 0.000006, epsilon = 0.000286
 h43bf                                  1      0.0000       0.00000       A     2.60023e-01     8.66594e-02    ;  uncertainty sigma = 0.000006, epsilon = 0.000286
 h44bf                                  1      0.0000       0.00000       A     2.60023e-01     8.66594e-02    ;  uncertainty sigma = 0.000006, epsilon = 0.000286
 h45bf                                  1      0.0000       0.00000       A     2.62553e-01     6.71122e-02    ;  uncertainty sigma = 0.000013, epsilon = 0.000520
 h46bf                                  1      0.0000       0.00000       A     2.62561e-01     6.70938e-02    ;  uncertainty sigma = 0.000014, epsilon = 0.000476
 h47bf                                  1      0.0000       0.00000       A     2.62550e-01     6.71051e-02    ;  uncertainty sigma = 0.000018, epsilon = 0.000451
 h48bf                                  1      0.0000       0.00000       A     2.62567e-01     6.71100e-02    ;  uncertainty sigma = 0.000011, epsilon = 0.000575
 h49bf                                  1      0.0000       0.00000       A     2.53636e-01     6.70246e-02    ;  uncertainty sigma = 0.000013, epsilon = 0.000470
 h50bf                                  1      0.0000       0.00000       A     2.62561e-01     6.71298e-02    ;  uncertainty sigma = 0.000006, epsilon = 0.000455
 h51bf                                  1      0.0000       0.00000       A     2.62568e-01     6.69722e-02    ;  uncertainty sigma = 0.000010, epsilon = 0.000464
 h52bf                                  1      0.0000       0.00000       A     2.62557e-01     6.69726e-02    ;  uncertainty sigma = 0.000012, epsilon = 0.000521

[ moleculetype ]
;name             nrexcl
 MOL                   3

[ atoms ]
;       nr            type      resi   res      atom      cgnr      charge          mass ; qtot
         1            f0bf         1   UNL        f0         1    -0.22905       18.9980 ; qtot   -0.229
         2            c1bf         1   UNL        c1         2     0.70937       12.0110 ; qtot    0.480
         3            f2bf         1   UNL        f2         3    -0.22905       18.9980 ; qtot    0.251
         4            f3bf         1   UNL        f3         4    -0.22905       18.9980 ; qtot    0.022
         5            c4bf         1   UNL        c4         5    -0.16749       12.0110 ; qtot   -0.145
         6            c5bf         1   UNL        c5         6    -0.08749       12.0110 ; qtot   -0.233
         7            c6bf         1   UNL        c6         7     0.11385       12.0110 ; qtot   -0.119
         8            o7bf         1   UNL        o7         8    -0.38813       15.9990 ; qtot   -0.507
         9            c8bf         1   UNL        c8         9     0.59681       12.0110 ; qtot    0.090
        10            c9bf         1   UNL        c9        10    -0.04576       12.0110 ; qtot    0.044
        11           n10bf         1   UNL       n10        11    -0.47413       14.0070 ; qtot   -0.430
        12           c11bf         1   UNL       c11        12     0.79866       12.0110 ; qtot    0.369
        13           o12bf         1   UNL       o12        13    -0.59887       15.9990 ; qtot   -0.230
        14           n13bf         1   UNL       n13        14    -0.48860       14.0070 ; qtot   -0.719
        15           c14bf         1   UNL       c14        15     0.07881       12.0110 ; qtot   -0.640
        16           c15bf         1   UNL       c15        16    -0.16775       12.0110 ; qtot   -0.808
        17           c16bf         1   UNL       c16        17    -0.10446       12.0110 ; qtot   -0.912
        18           c17bf         1   UNL       c17        18    -0.09207       12.0110 ; qtot   -1.004
        19           c18bf         1   UNL       c18        19    -0.00039       12.0110 ; qtot   -1.005
        20           c19bf         1   UNL       c19        20    -0.08540       12.0110 ; qtot   -1.090
        21           c20bf         1   UNL       c20        21    -0.08540       12.0110 ; qtot   -1.176
        22           c21bf         1   UNL       c21        22    -0.08540       12.0110 ; qtot   -1.261
        23           c22bf         1   UNL       c22        23    -0.10446       12.0110 ; qtot   -1.365
        24           c23bf         1   UNL       c23        24    -0.16775       12.0110 ; qtot   -1.533
        25           c24bf         1   UNL       c24        25    -0.10097       12.0110 ; qtot   -1.634
        26           c25bf         1   UNL       c25        26    -0.24092       12.0110 ; qtot   -1.875
        27           c26bf         1   UNL       c26        27     0.39652       12.0110 ; qtot   -1.479
        28           n27bf         1   UNL       n27        28    -0.69921       14.0070 ; qtot   -2.178
        29           c28bf         1   UNL       c28        29    -0.11807       12.0110 ; qtot   -2.296
        30           c29bf         1   UNL       c29        30    -0.11259       12.0110 ; qtot   -2.408
        31           c30bf         1   UNL       c30        31    -0.09679       12.0110 ; qtot   -2.505
        32           h31bf         1   UNL       h31        32     0.16649        1.0080 ; qtot   -2.339
        33           h32bf         1   UNL       h32        33     0.34303        1.0080 ; qtot   -1.996
        34           h33bf         1   UNL       h33        34     0.32276        1.0080 ; qtot   -1.673
        35           h34bf         1   UNL       h34        35     0.14845        1.0080 ; qtot   -1.524
        36           h35bf         1   UNL       h35        36     0.13153        1.0080 ; qtot   -1.393
        37           h36bf         1   UNL       h36        37     0.03596        1.0080 ; qtot   -1.357
        38           h37bf         1   UNL       h37        38     0.03596        1.0080 ; qtot   -1.321
        39           h38bf         1   UNL       h38        39     0.03596        1.0080 ; qtot   -1.285
        40           h39bf         1   UNL       h39        40     0.03596        1.0080 ; qtot   -1.249
        41           h40bf         1   UNL       h40        41     0.03596        1.0080 ; qtot   -1.213
        42           h41bf         1   UNL       h41        42     0.03596        1.0080 ; qtot   -1.177
        43           h42bf         1   UNL       h42        43     0.03596        1.0080 ; qtot   -1.141
        44           h43bf         1   UNL       h43        44     0.03596        1.0080 ; qtot   -1.105
        45           h44bf         1   UNL       h44        45     0.03596        1.0080 ; qtot   -1.069
        46           h45bf         1   UNL       h45        46     0.13153        1.0080 ; qtot   -0.938
        47           h46bf         1   UNL       h46        47     0.14845        1.0080 ; qtot   -0.789
        48           h47bf         1   UNL       h47        48     0.17117        1.0080 ; qtot   -0.618
        49           h48bf         1   UNL       h48        49     0.14569        1.0080 ; qtot   -0.472
        50           h49bf         1   UNL       h49        50     0.02625        1.0080 ; qtot   -0.446
        51           h50bf         1   UNL       h50        51     0.15133        1.0080 ; qtot   -0.295
        52           h51bf         1   UNL       h51        52     0.14308        1.0080 ; qtot   -0.152
        53           h52bf         1   UNL       h52        53     0.15183        1.0080 ; qtot    0.000

[ bonds ]
;       ai        aj funct               r               k
         1         2     1        0.135326   286985.907471    ;  uncertainty r = 0.000042, k = 3.079750
         2         3     1        0.135326   286985.907471    ;  uncertainty r = 0.000042, k = 3.079750
         2         4     1        0.135326   286985.907471    ;  uncertainty r = 0.000042, k = 3.079750
         2         5     1        0.149137   215527.840332    ;  uncertainty r = 0.000061, k = 1.127531
         5         6     1        0.138556   347781.567480    ;  uncertainty r = 0.000101, k = 2.673940
         5        31     1        0.138974   350509.007373    ;  uncertainty r = 0.000051, k = 2.268716
         6         7     1        0.139094   353843.464355    ;  uncertainty r = 0.000040, k = 3.656120
         6        32     1        0.108679   332885.490674    ;  uncertainty r = 0.000010, k = 0.906583
         7         8     1        0.138532   314308.648145    ;  uncertainty r = 0.000052, k = 8.971859
         7        29     1        0.139222   354352.674316    ;  uncertainty r = 0.000036, k = 2.697097
         8         9     1        0.137456   295567.576465    ;  uncertainty r = 0.000121, k = 7.043869
         9        10     1        0.140110   355790.847705    ;  uncertainty r = 0.000180, k = 18.434716
         9        28     1        0.131673   342519.850391    ;  uncertainty r = 0.000195, k = 23.816176
        10        11     1        0.140096   339046.216162    ;  uncertainty r = 0.000118, k = 8.055134
        10        25     1        0.139587   350172.658105    ;  uncertainty r = 0.000051, k = 12.669227
        11        12     1        0.139930   382450.287500    ;  uncertainty r = 0.000140, k = 14.422842
        11        33     1        0.101870   417728.195264    ;  uncertainty r = 0.000093, k = 3.473106
        12        13     1        0.124145   784756.188281    ;  uncertainty r = 0.000126, k = 12.841145
        12        14     1        0.139710   394377.190137    ;  uncertainty r = 0.000110, k = 16.822293
        14        15     1        0.141220   327424.992725    ;  uncertainty r = 0.000114, k = 3.976268
        14        34     1        0.101889   423258.869189    ;  uncertainty r = 0.000036, k = 1.970075
        15        16     1        0.140036   355985.312793    ;  uncertainty r = 0.000046, k = 2.607052
        15        24     1        0.140036   355985.312793    ;  uncertainty r = 0.000046, k = 2.607052
        16        17     1        0.139378   361608.737500    ;  uncertainty r = 0.000043, k = 2.492866
        16        35     1        0.108749   335867.484473    ;  uncertainty r = 0.000031, k = 2.277476
        17        18     1        0.139830   343760.187793    ;  uncertainty r = 0.000062, k = 3.810882
        17        36     1        0.108750   334105.066406    ;  uncertainty r = 0.000030, k = 0.657014
        18        19     1        0.151927   211503.115283    ;  uncertainty r = 0.000064, k = 4.293295
        18        23     1        0.139830   343760.187793    ;  uncertainty r = 0.000062, k = 3.810882
        19        20     1        0.153663   198494.805444    ;  uncertainty r = 0.000044, k = 2.852135
        19        21     1        0.153663   198494.805444    ;  uncertainty r = 0.000044, k = 2.852135
        19        22     1        0.153663   198494.805444    ;  uncertainty r = 0.000044, k = 2.852135
        20        37     1        0.109659   308688.645410    ;  uncertainty r = 0.000022, k = 1.388433
        20        38     1        0.109659   308688.645410    ;  uncertainty r = 0.000022, k = 1.388433
        20        39     1        0.109659   308688.645410    ;  uncertainty r = 0.000022, k = 1.388433
        21        40     1        0.109659   308688.645410    ;  uncertainty r = 0.000022, k = 1.388433
        21        41     1        0.109659   308688.645410    ;  uncertainty r = 0.000022, k = 1.388433
        21        42     1        0.109659   308688.645410    ;  uncertainty r = 0.000022, k = 1.388433
        22        43     1        0.109659   308688.645410    ;  uncertainty r = 0.000022, k = 1.388433
        22        44     1        0.109659   308688.645410    ;  uncertainty r = 0.000022, k = 1.388433
        22        45     1        0.109659   308688.645410    ;  uncertainty r = 0.000022, k = 1.388433
        23        24     1        0.139378   361608.788574    ;  uncertainty r = 0.000043, k = 2.492865
        23        46     1        0.108750   334105.066406    ;  uncertainty r = 0.000030, k = 0.657014
        24        47     1        0.108749   335867.484473    ;  uncertainty r = 0.000031, k = 2.277476
        25        26     1        0.139560   376722.211719    ;  uncertainty r = 0.000043, k = 3.130764
        25        48     1        0.108477   334523.798389    ;  uncertainty r = 0.000051, k = 3.409764
        26        27     1        0.139039   373281.443750    ;  uncertainty r = 0.000047, k = 3.782626
        26        49     1        0.108806   337266.713770    ;  uncertainty r = 0.000012, k = 1.595174
        27        28     1        0.134174   386160.574121    ;  uncertainty r = 0.000069, k = 8.080806
        27        50     1        0.108937   336014.271777    ;  uncertainty r = 0.000016, k = 1.810751
        29        30     1        0.139275   372627.234082    ;  uncertainty r = 0.000029, k = 1.736828
        29        51     1        0.108795   335979.132715    ;  uncertainty r = 0.000019, k = 0.979490
        30        31     1        0.139480   367362.069482    ;  uncertainty r = 0.000037, k = 2.422113
        30        52     1        0.108743   333039.504980    ;  uncertainty r = 0.000015, k = 1.385187
        31        53     1        0.108641   332705.811572    ;  uncertainty r = 0.000020, k = 0.826441

[ angles ]
;       ai        aj        ak funct           theta             cth
         1         2         3     1      107.682266      790.161449    ;  uncertainty theta = 0.001820, k = 0.019275
         1         2         4     1      107.682266      790.161449    ;  uncertainty theta = 0.001820, k = 0.019275
         1         2         5     1      112.945602      661.607322    ;  uncertainty theta = 0.002125, k = 0.029098
         2         5         6     1      115.496521      350.324802    ;  uncertainty theta = 0.005914, k = 0.124688
         2         5        31     1      116.478043      341.375162    ;  uncertainty theta = 0.005609, k = 0.113786
         3         2         4     1      107.682266      790.161449    ;  uncertainty theta = 0.001820, k = 0.019275
         3         2         5     1      112.945602      661.607322    ;  uncertainty theta = 0.002125, k = 0.029098
         4         2         5     1      112.945602      661.607322    ;  uncertainty theta = 0.002125, k = 0.029098
         5         6         7     1      118.864952      508.527418    ;  uncertainty theta = 0.002845, k = 0.197951
         5         6        32     1      119.226295      277.135255    ;  uncertainty theta = 0.002912, k = 0.100269
         5        31        30     1      119.255554      512.146537    ;  uncertainty theta = 0.001818, k = 0.042517
         5        31        53     1      118.405869      274.175408    ;  uncertainty theta = 0.002940, k = 0.043008
         6         5        31     1      122.656799      467.566086    ;  uncertainty theta = 0.003025, k = 0.100387
         6         7         8     1      119.209549      406.140145    ;  uncertainty theta = 0.002397, k = 0.063411
         6         7        29     1      121.950890      373.168480    ;  uncertainty theta = 0.004064, k = 0.157753
         7         6        32     1      120.623009      281.233099    ;  uncertainty theta = 0.003246, k = 0.049393
         7         8         9     1      113.059975      473.447729    ;  uncertainty theta = 0.007514, k = 0.198938
         7        29        30     1      117.594139      518.928459    ;  uncertainty theta = 0.002508, k = 0.052964
         7        29        51     1      120.314964      277.616693    ;  uncertainty theta = 0.001021, k = 0.060899
         8         7        29     1      120.049278      419.740666    ;  uncertainty theta = 0.001725, k = 0.093993
         8         9        10     1      116.530540      390.693960    ;  uncertainty theta = 0.012172, k = 0.316589
         8         9        28     1      116.747131      568.431731    ;  uncertainty theta = 0.007457, k = 0.117546
         9        10        11     1      117.092575      491.278569    ;  uncertainty theta = 0.007126, k = 0.229131
         9        10        25     1      117.575417      353.893836    ;  uncertainty theta = 0.008911, k = 0.132789
         9        28        27     1      118.982071      388.605918    ;  uncertainty theta = 0.003083, k = 0.211257
        10         9        28     1      125.653397      515.566722    ;  uncertainty theta = 0.002376, k = 0.153093
        10        11        12     1      118.191467      382.545100    ;  uncertainty theta = 0.006597, k = 0.353697
        10        11        33     1      114.704041      335.957688    ;  uncertainty theta = 0.005639, k = 0.195191
        10        25        26     1      118.664589      535.632314    ;  uncertainty theta = 0.002867, k = 0.172990
        10        25        48     1      117.850075      264.486868    ;  uncertainty theta = 0.003879, k = 0.116474
        11        10        25     1      122.491959      468.987673    ;  uncertainty theta = 0.005717, k = 0.226574
        11        12        13     1      125.188744      728.667579    ;  uncertainty theta = 0.005334, k = 0.101797
        11        12        14     1      111.600075      570.961628    ;  uncertainty theta = 0.006100, k = 0.244009
        12        11        33     1      118.027504      326.505382    ;  uncertainty theta = 0.007877, k = 0.178567
        12        14        15     1      118.741501      400.287614    ;  uncertainty theta = 0.008267, k = 0.100922
        12        14        34     1      116.812332      320.715673    ;  uncertainty theta = 0.007303, k = 0.165146
        13        12        14     1      125.128220      719.646468    ;  uncertainty theta = 0.005098, k = 0.058138
        14        15        16     1      120.280724      531.068545    ;  uncertainty theta = 0.003205, k = 0.080711
        14        15        24     1      120.280724      531.068545    ;  uncertainty theta = 0.003205, k = 0.080711
        15        14        34     1      114.543373      302.741314    ;  uncertainty theta = 0.006390, k = 0.291566
        15        16        17     1      120.019730      498.209915    ;  uncertainty theta = 0.001029, k = 0.051449
        15        16        35     1      118.980080      265.264936    ;  uncertainty theta = 0.001808, k = 0.034542
        15        24        23     1      120.019730      498.209915    ;  uncertainty theta = 0.001029, k = 0.051449
        15        24        47     1      118.980080      265.264936    ;  uncertainty theta = 0.001808, k = 0.034542
        16        15        24     1      118.389931      386.638539    ;  uncertainty theta = 0.005849, k = 0.128475
        16        17        18     1      122.801292      506.611879    ;  uncertainty theta = 0.001514, k = 0.089715
        16        17        36     1      118.769753      284.008312    ;  uncertainty theta = 0.001575, k = 0.056408
        17        16        35     1      120.869141      306.411412    ;  uncertainty theta = 0.002616, k = 0.081324
        17        18        19     1      120.063782      386.256440    ;  uncertainty theta = 0.004339, k = 0.076701
        17        18        23     1      119.327736      462.674963    ;  uncertainty theta = 0.003043, k = 0.077030
        18        17        36     1      118.239670      264.287663    ;  uncertainty theta = 0.002340, k = 0.124357
        18        19        20     1      108.319275      555.821442    ;  uncertainty theta = 0.002592, k = 0.096228
        18        19        21     1      108.319275      555.821442    ;  uncertainty theta = 0.002592, k = 0.096228
        18        19        22     1      108.319275      555.821442    ;  uncertainty theta = 0.002592, k = 0.096228
        18        23        24     1      122.801292      506.611879    ;  uncertainty theta = 0.001514, k = 0.089715
        18        23        46     1      118.239670      264.287663    ;  uncertainty theta = 0.002340, k = 0.124357
        19        18        23     1      120.063782      386.256440    ;  uncertainty theta = 0.004339, k = 0.076701
        19        20        37     1      107.721458      383.784704    ;  uncertainty theta = 0.000844, k = 0.039125
        19        20        38     1      107.721458      383.784704    ;  uncertainty theta = 0.000844, k = 0.039125
        19        20        39     1      107.721458      383.784704    ;  uncertainty theta = 0.000844, k = 0.039125
        19        21        40     1      107.721458      383.784704    ;  uncertainty theta = 0.000844, k = 0.039125
        19        21        41     1      107.721458      383.784704    ;  uncertainty theta = 0.000844, k = 0.039125
        19        21        42     1      107.721458      383.784704    ;  uncertainty theta = 0.000844, k = 0.039125
        19        22        43     1      107.721458      383.784704    ;  uncertainty theta = 0.000844, k = 0.039125
        19        22        44     1      107.721458      383.784704    ;  uncertainty theta = 0.000844, k = 0.039125
        19        22        45     1      107.721458      383.784704    ;  uncertainty theta = 0.000844, k = 0.039125
        20        19        21     1      108.422646      576.262685    ;  uncertainty theta = 0.002845, k = 0.059157
        20        19        22     1      108.422646      576.262685    ;  uncertainty theta = 0.002845, k = 0.059157
        21        19        22     1      108.422646      576.262685    ;  uncertainty theta = 0.002845, k = 0.059157
        23        24        47     1      120.869156      306.411412    ;  uncertainty theta = 0.002616, k = 0.081324
        24        23        46     1      118.769737      284.008312    ;  uncertainty theta = 0.001575, k = 0.056408
        25        26        27     1      116.662033      486.639338    ;  uncertainty theta = 0.002659, k = 0.164042
        25        26        49     1      121.692772      278.904338    ;  uncertainty theta = 0.003629, k = 0.116071
        26        25        48     1      121.491959      306.835200    ;  uncertainty theta = 0.004314, k = 0.137900
        26        27        28     1      122.018677      680.497696    ;  uncertainty theta = 0.002657, k = 0.057695
        26        27        50     1      121.479820      279.479466    ;  uncertainty theta = 0.001106, k = 0.075570
        27        26        49     1      121.531288      284.776501    ;  uncertainty theta = 0.000829, k = 0.071895
        28        27        50     1      116.528870      326.284614    ;  uncertainty theta = 0.003532, k = 0.089660
        29        30        31     1      120.533386      511.752021    ;  uncertainty theta = 0.002153, k = 0.049486
        29        30        52     1      119.824585      284.259310    ;  uncertainty theta = 0.001720, k = 0.029816
        30        29        51     1      121.377441      292.172686    ;  uncertainty theta = 0.001338, k = 0.032523
        30        31        53     1      120.654930      286.912903    ;  uncertainty theta = 0.002806, k = 0.061171
        31        30        52     1      119.962425      281.972813    ;  uncertainty theta = 0.000658, k = 0.030298
        37        20        38     1      105.345726      318.190659    ;  uncertainty theta = 0.000933, k = 0.011600
        37        20        39     1      105.345726      318.190659    ;  uncertainty theta = 0.000933, k = 0.011600
        38        20        39     1      105.345726      318.190659    ;  uncertainty theta = 0.000933, k = 0.011600
        40        21        41     1      105.345726      318.190659    ;  uncertainty theta = 0.000933, k = 0.011600
        40        21        42     1      105.345726      318.190659    ;  uncertainty theta = 0.000933, k = 0.011600
        41        21        42     1      105.345726      318.190659    ;  uncertainty theta = 0.000933, k = 0.011600
        43        22        44     1      105.345726      318.190659    ;  uncertainty theta = 0.000933, k = 0.011600
        43        22        45     1      105.345726      318.190659    ;  uncertainty theta = 0.000933, k = 0.011600
        44        22        45     1      105.345726      318.190659    ;  uncertainty theta = 0.000933, k = 0.011600

[ dihedrals ] ; propers for gromacs 4.5 or higher, use funct 9
;       ai        aj        ak        al funct           phase               k        pn
         1         2         5         6     9        0.000000       -0.828907         1    ;  uncertainty k = 0.452622
         1         2         5         6     9      180.000000        2.803201         2    ;  uncertainty k = 0.128773
         1         2         5         6     9        0.000000        0.701501         3    ;  uncertainty k = 0.032688
         1         2         5         6     9      180.000000        0.136337         4    ;  uncertainty k = 0.047426
         1         2         5        31     9        0.000000       -0.823211         1    ;  uncertainty k = 0.470326
         1         2         5        31     9      180.000000        2.802694         2    ;  uncertainty k = 0.082906
         1         2         5        31     9        0.000000        0.688763         3    ;  uncertainty k = 0.058349
         1         2         5        31     9      180.000000        0.135610         4    ;  uncertainty k = 0.041085
         2         5         6         7     9        0.000000        0.137531         1    ;  uncertainty k = 0.382297
         2         5         6         7     9      180.000000       10.226747         2    ;  uncertainty k = 0.659410
         2         5         6         7     9        0.000000        1.461318         3    ;  uncertainty k = 0.335069
         2         5         6         7     9      180.000000        1.764611         4    ;  uncertainty k = 0.220745
         2         5         6        32     9        0.000000        0.263434         1    ;  uncertainty k = 0.414605
         2         5         6        32     9      180.000000        8.781867         2    ;  uncertainty k = 0.304602
         2         5         6        32     9        0.000000        0.696019         3    ;  uncertainty k = 0.144996
         2         5         6        32     9      180.000000        1.087930         4    ;  uncertainty k = 0.155232
         2         5        31        30     9        0.000000        0.078886         1    ;  uncertainty k = 0.186674
         2         5        31        30     9      180.000000       10.351755         2    ;  uncertainty k = 0.778180
         2         5        31        30     9        0.000000        1.523036         3    ;  uncertainty k = 0.299974
         2         5        31        30     9      180.000000        1.886244         4    ;  uncertainty k = 0.383053
         2         5        31        53     9        0.000000        0.018303         1    ;  uncertainty k = 0.362063
         2         5        31        53     9      180.000000        8.851524         2    ;  uncertainty k = 0.560933
         2         5        31        53     9        0.000000        0.689709         3    ;  uncertainty k = 0.261465
         2         5        31        53     9      180.000000        1.019568         4    ;  uncertainty k = 0.221458
         3         2         5         6     9        0.000000       -0.828907         1    ;  uncertainty k = 0.452622
         3         2         5         6     9      180.000000        2.803201         2    ;  uncertainty k = 0.128773
         3         2         5         6     9        0.000000        0.701501         3    ;  uncertainty k = 0.032688
         3         2         5         6     9      180.000000        0.136337         4    ;  uncertainty k = 0.047426
         3         2         5        31     9        0.000000       -0.823211         1    ;  uncertainty k = 0.470326
         3         2         5        31     9      180.000000        2.802694         2    ;  uncertainty k = 0.082906
         3         2         5        31     9        0.000000        0.688763         3    ;  uncertainty k = 0.058349
         3         2         5        31     9      180.000000        0.135610         4    ;  uncertainty k = 0.041085
         4         2         5         6     9        0.000000       -0.828907         1    ;  uncertainty k = 0.452622
         4         2         5         6     9      180.000000        2.803201         2    ;  uncertainty k = 0.128773
         4         2         5         6     9        0.000000        0.701501         3    ;  uncertainty k = 0.032688
         4         2         5         6     9      180.000000        0.136337         4    ;  uncertainty k = 0.047426
         4         2         5        31     9        0.000000       -0.823211         1    ;  uncertainty k = 0.470326
         4         2         5        31     9      180.000000        2.802694         2    ;  uncertainty k = 0.082906
         4         2         5        31     9        0.000000        0.688763         3    ;  uncertainty k = 0.058349
         4         2         5        31     9      180.000000        0.135610         4    ;  uncertainty k = 0.041085
         5         6         7         8     9        0.000000       -0.054168         1    ;  uncertainty k = 0.319743
         5         6         7         8     9      180.000000       11.162461         2    ;  uncertainty k = 0.228187
         5         6         7         8     9        0.000000        1.352214         3    ;  uncertainty k = 0.202966
         5         6         7         8     9      180.000000        1.594604         4    ;  uncertainty k = 0.163376
         5         6         7        29     9        0.000000       -0.062398         1    ;  uncertainty k = 0.292333
         5         6         7        29     9      180.000000        9.245555         2    ;  uncertainty k = 0.592081
         5         6         7        29     9        0.000000       -0.008936         3    ;  uncertainty k = 0.582500
         5         6         7        29     9      180.000000        1.177935         4    ;  uncertainty k = 0.484619
         5        31        30        29     9        0.000000       -0.243848         1    ;  uncertainty k = 0.189764
         5        31        30        29     9      180.000000       13.673831         2    ;  uncertainty k = 0.341798
         5        31        30        29     9        0.000000       -0.849479         3    ;  uncertainty k = 0.421712
         5        31        30        29     9      180.000000        0.713106         4    ;  uncertainty k = 0.296868
         5        31        30        52     9        0.000000        0.068788         1    ;  uncertainty k = 0.266779
         5        31        30        52     9      180.000000        7.561180         2    ;  uncertainty k = 0.317046
         5        31        30        52     9        0.000000        1.473541         3    ;  uncertainty k = 0.220229
         5        31        30        52     9      180.000000        1.732188         4    ;  uncertainty k = 0.159061
         6         5        31        30     9        0.000000       -0.238113         1    ;  uncertainty k = 0.209093
         6         5        31        30     9      180.000000       12.299165         2    ;  uncertainty k = 0.499371
         6         5        31        30     9        0.000000       -0.649051         3    ;  uncertainty k = 0.413941
         6         5        31        30     9      180.000000        0.809773         4    ;  uncertainty k = 0.356024
         6         5        31        53     9        0.000000        0.220952         1    ;  uncertainty k = 0.223729
         6         5        31        53     9      180.000000        7.534682         2    ;  uncertainty k = 0.440507
         6         5        31        53     9        0.000000        1.373084         3    ;  uncertainty k = 0.455761
         6         5        31        53     9      180.000000        1.631125         4    ;  uncertainty k = 0.232509
         6         7         8         9     9        0.000000        4.111151         1    ;  uncertainty k = 0.463346
         6         7         8         9     9      180.000000        5.444233         2    ;  uncertainty k = 0.180211
         6         7         8         9     9        0.000000        0.337321         3    ;  uncertainty k = 0.385525
         6         7         8         9     9      180.000000        0.284107         4    ;  uncertainty k = 0.144689
         6         7        29        30     9        0.000000       -0.003466         1    ;  uncertainty k = 0.080228
         6         7        29        30     9      180.000000       10.021365         2    ;  uncertainty k = 0.550002
         6         7        29        30     9        0.000000       -0.157711         3    ;  uncertainty k = 0.411351
         6         7        29        30     9      180.000000        1.116828         4    ;  uncertainty k = 0.409266
         6         7        29        51     9        0.000000        0.278178         1    ;  uncertainty k = 0.157174
         6         7        29        51     9      180.000000        6.395045         2    ;  uncertainty k = 0.731884
         6         7        29        51     9        0.000000        1.387907         3    ;  uncertainty k = 0.416133
         6         7        29        51     9      180.000000        1.593558         4    ;  uncertainty k = 0.202098
         7         6         5        31     9        0.000000       -0.251338         1    ;  uncertainty k = 0.225811
         7         6         5        31     9      180.000000       11.882309         2    ;  uncertainty k = 0.212882
         7         6         5        31     9        0.000000       -0.431962         3    ;  uncertainty k = 0.492564
         7         6         5        31     9      180.000000        0.966872         4    ;  uncertainty k = 0.329892
         7         8         9        10     9        0.000000        5.742984         1    ;  uncertainty k = 0.996506
         7         8         9        10     9      180.000000        3.878653         2    ;  uncertainty k = 0.444863
         7         8         9        10     9        0.000000        0.580854         3    ;  uncertainty k = 0.248381
         7         8         9        10     9      180.000000        0.086291         4    ;  uncertainty k = 0.156290
         7         8         9        28     9        0.000000        2.095892         1    ;  uncertainty k = 1.084879
         7         8         9        28     9      180.000000        6.456939         2    ;  uncertainty k = 0.121606
         7         8         9        28     9        0.000000        0.082868         3    ;  uncertainty k = 0.422006
         7         8         9        28     9      180.000000        0.151585         4    ;  uncertainty k = 0.120974
         7        29        30        31     9        0.000000       -0.274443         1    ;  uncertainty k = 0.209994
         7        29        30        31     9      180.000000       14.193549         2    ;  uncertainty k = 0.243702
         7        29        30        31     9        0.000000       -0.825857         3    ;  uncertainty k = 0.472075
         7        29        30        31     9      180.000000        0.811988         4    ;  uncertainty k = 0.227337
         7        29        30        52     9        0.000000        0.030124         1    ;  uncertainty k = 0.066195
         7        29        30        52     9      180.000000        7.830210         2    ;  uncertainty k = 0.232718
         7        29        30        52     9        0.000000        1.358974         3    ;  uncertainty k = 0.159621
         7        29        30        52     9      180.000000        1.757685         4    ;  uncertainty k = 0.144431
         8         7         6        32     9        0.000000        0.246879         1    ;  uncertainty k = 0.126181
         8         7         6        32     9      180.000000        8.724117         2    ;  uncertainty k = 0.255702
         8         7         6        32     9        0.000000        0.898640         3    ;  uncertainty k = 0.304406
         8         7         6        32     9      180.000000        1.116873         4    ;  uncertainty k = 0.210214
         8         7        29        30     9        0.000000       -0.042015         1    ;  uncertainty k = 0.399401
         8         7        29        30     9      180.000000       11.193092         2    ;  uncertainty k = 0.404423
         8         7        29        30     9        0.000000        1.305480         3    ;  uncertainty k = 0.216138
         8         7        29        30     9      180.000000        1.621828         4    ;  uncertainty k = 0.141001
         8         7        29        51     9        0.000000        0.072912         1    ;  uncertainty k = 0.103916
         8         7        29        51     9      180.000000        8.608525         2    ;  uncertainty k = 0.251062
         8         7        29        51     9        0.000000        0.860920         3    ;  uncertainty k = 0.274176
         8         7        29        51     9      180.000000        1.057134         4    ;  uncertainty k = 0.175952
         8         9        10        11     9        0.000000        0.265513         1    ;  uncertainty k = 0.638101
         8         9        10        11     9      180.000000        8.312027         2    ;  uncertainty k = 0.483820
         8         9        10        11     9        0.000000        0.783388         3    ;  uncertainty k = 0.198631
         8         9        10        11     9      180.000000        1.337313         4    ;  uncertainty k = 0.293172
         8         9        10        25     9        0.000000        0.758628         1    ;  uncertainty k = 0.302974
         8         9        10        25     9      180.000000        5.954667         2    ;  uncertainty k = 0.582835
         8         9        10        25     9        0.000000        0.897889         3    ;  uncertainty k = 0.157549
         8         9        10        25     9      180.000000        1.407331         4    ;  uncertainty k = 0.461766
         8         9        28        27     9        0.000000        0.645014         1    ;  uncertainty k = 1.001765
         8         9        28        27     9      180.000000       16.604500         2    ;  uncertainty k = 0.284032
         8         9        28        27     9        0.000000        2.791706         3    ;  uncertainty k = 0.527017
         8         9        28        27     9      180.000000        1.944515         4    ;  uncertainty k = 0.152085
         9         8         7        29     9        0.000000        4.031477         1    ;  uncertainty k = 0.324366
         9         8         7        29     9      180.000000        5.326864         2    ;  uncertainty k = 0.098303
         9         8         7        29     9        0.000000        0.404902         3    ;  uncertainty k = 0.412078
         9         8         7        29     9      180.000000        0.296999         4    ;  uncertainty k = 0.116646
         9        10        11        12     9        0.000000        1.826178         1    ;  uncertainty k = 1.230612
         9        10        11        12     9      180.000000        3.914688         2    ;  uncertainty k = 0.505911
         9        10        11        12     9        0.000000        0.267513         3    ;  uncertainty k = 0.197086
         9        10        11        12     9      180.000000       -0.000673         4    ;  uncertainty k = 0.064722
         9        10        11        33     9        0.000000        1.809919         1    ;  uncertainty k = 1.049578
         9        10        11        33     9      180.000000        2.184103         2    ;  uncertainty k = 0.856980
         9        10        11        33     9        0.000000       -0.055926         3    ;  uncertainty k = 0.368395
         9        10        11        33     9      180.000000       -0.094869         4    ;  uncertainty k = 0.135654
         9        10        25        26     9        0.000000       -0.045324         1    ;  uncertainty k = 0.346307
         9        10        25        26     9      180.000000        9.675692         2    ;  uncertainty k = 0.563612
         9        10        25        26     9        0.000000        0.089574         3    ;  uncertainty k = 0.421919
         9        10        25        26     9      180.000000        1.428809         4    ;  uncertainty k = 0.224622
         9        10        25        48     9        0.000000       -0.056218         1    ;  uncertainty k = 0.336146
         9        10        25        48     9      180.000000        7.154486         2    ;  uncertainty k = 0.386951
         9        10        25        48     9        0.000000        1.228551         3    ;  uncertainty k = 0.135670
         9        10        25        48     9      180.000000        1.474946         4    ;  uncertainty k = 0.079159
         9        28        27        26     9        0.000000       -0.133462         1    ;  uncertainty k = 0.695196
         9        28        27        26     9      180.000000       15.215297         2    ;  uncertainty k = 0.215444
         9        28        27        26     9        0.000000        0.737113         3    ;  uncertainty k = 0.573056
         9        28        27        26     9      180.000000        1.291837         4    ;  uncertainty k = 0.321443
         9        28        27        50     9        0.000000        0.068263         1    ;  uncertainty k = 0.501141
         9        28        27        50     9      180.000000       15.223381         2    ;  uncertainty k = 0.588647
         9        28        27        50     9        0.000000        2.120235         3    ;  uncertainty k = 0.703419
         9        28        27        50     9      180.000000        1.291633         4    ;  uncertainty k = 0.573906
        10         9        28        27     9        0.000000        0.676654         1    ;  uncertainty k = 0.481269
        10         9        28        27     9      180.000000       12.337756         2    ;  uncertainty k = 0.384550
        10         9        28        27     9        0.000000        1.799559         3    ;  uncertainty k = 0.431189
        10         9        28        27     9      180.000000        1.358998         4    ;  uncertainty k = 0.224517
        10        11        12        13     9        0.000000        6.946396         1    ;  uncertainty k = 0.908900
        10        11        12        13     9      180.000000        9.319618         2    ;  uncertainty k = 0.343353
        10        11        12        13     9        0.000000        1.327877         3    ;  uncertainty k = 0.355434
        10        11        12        13     9      180.000000       -0.511188         4    ;  uncertainty k = 0.273827
        10        11        12        14     9        0.000000        8.097415         1    ;  uncertainty k = 0.965587
        10        11        12        14     9      180.000000        6.079945         2    ;  uncertainty k = 0.980608
        10        11        12        14     9        0.000000        0.638673         3    ;  uncertainty k = 0.171911
        10        11        12        14     9      180.000000       -0.161953         4    ;  uncertainty k = 0.445619
        10        25        26        27     9        0.000000       -0.219717         1    ;  uncertainty k = 0.258711
        10        25        26        27     9      180.000000       13.489343         2    ;  uncertainty k = 0.300398
        10        25        26        27     9        0.000000       -1.177534         3    ;  uncertainty k = 0.825067
        10        25        26        27     9      180.000000        0.747942         4    ;  uncertainty k = 0.391509
        10        25        26        49     9        0.000000        0.313279         1    ;  uncertainty k = 0.255485
        10        25        26        49     9      180.000000        7.639764         2    ;  uncertainty k = 0.597194
        10        25        26        49     9        0.000000        1.394864         3    ;  uncertainty k = 0.301687
        10        25        26        49     9      180.000000        1.632044         4    ;  uncertainty k = 0.213681
        11        10         9        28     9        0.000000        0.353474         1    ;  uncertainty k = 0.449760
        11        10         9        28     9      180.000000        6.335181         2    ;  uncertainty k = 0.770062
        11        10         9        28     9        0.000000        0.762700         3    ;  uncertainty k = 0.328523
        11        10         9        28     9      180.000000        1.504660         4    ;  uncertainty k = 0.296384
        11        10        25        26     9        0.000000       -0.104134         1    ;  uncertainty k = 0.141360
        11        10        25        26     9      180.000000       11.628689         2    ;  uncertainty k = 0.794318
        11        10        25        26     9        0.000000        1.107582         3    ;  uncertainty k = 0.487862
        11        10        25        26     9      180.000000        1.611587         4    ;  uncertainty k = 0.361445
        11        10        25        48     9        0.000000       -0.339226         1    ;  uncertainty k = 0.473729
        11        10        25        48     9      180.000000        8.956188         2    ;  uncertainty k = 0.817388
        11        10        25        48     9        0.000000        0.715306         3    ;  uncertainty k = 0.150871
        11        10        25        48     9      180.000000        1.268139         4    ;  uncertainty k = 0.406221
        11        12        14        15     9        0.000000        6.768534         1    ;  uncertainty k = 0.793669
        11        12        14        15     9      180.000000        5.966924         2    ;  uncertainty k = 0.784878
        11        12        14        15     9        0.000000        0.544657         3    ;  uncertainty k = 0.315919
        11        12        14        15     9      180.000000       -0.113123         4    ;  uncertainty k = 0.250691
        11        12        14        34     9        0.000000        2.784093         1    ;  uncertainty k = 0.996555
        11        12        14        34     9      180.000000        4.681545         2    ;  uncertainty k = 1.140006
        11        12        14        34     9        0.000000        0.937857         3    ;  uncertainty k = 0.238446
        11        12        14        34     9      180.000000       -0.387399         4    ;  uncertainty k = 0.267786
        12        11        10        25     9        0.000000        1.590483         1    ;  uncertainty k = 1.223145
        12        11        10        25     9      180.000000        3.933825         2    ;  uncertainty k = 0.529571
        12        11        10        25     9        0.000000        0.641747         3    ;  uncertainty k = 0.289819
        12        11        10        25     9      180.000000        0.355266         4    ;  uncertainty k = 0.131763
        12        14        15        16     9        0.000000        1.311393         1    ;  uncertainty k = 0.407215
        12        14        15        16     9      180.000000        4.426956         2    ;  uncertainty k = 0.314894
        12        14        15        16     9        0.000000        0.947830         3    ;  uncertainty k = 0.237479
        12        14        15        16     9      180.000000        0.303542         4    ;  uncertainty k = 0.125027
        12        14        15        24     9        0.000000        1.311393         1    ;  uncertainty k = 0.407215
        12        14        15        24     9      180.000000        4.426956         2    ;  uncertainty k = 0.314894
        12        14        15        24     9        0.000000        0.947830         3    ;  uncertainty k = 0.237479
        12        14        15        24     9      180.000000        0.303542         4    ;  uncertainty k = 0.125027
        13        12        11        33     9        0.000000        0.648440         1    ;  uncertainty k = 0.303764
        13        12        11        33     9      180.000000        8.524099         2    ;  uncertainty k = 0.415172
        13        12        11        33     9        0.000000        1.856516         3    ;  uncertainty k = 0.251833
        13        12        11        33     9      180.000000       -0.422623         4    ;  uncertainty k = 0.241464
        13        12        14        15     9        0.000000        5.998689         1    ;  uncertainty k = 0.978325
        13        12        14        15     9      180.000000        9.807732         2    ;  uncertainty k = 0.358167
        13        12        14        15     9        0.000000        1.222113         3    ;  uncertainty k = 0.167867
        13        12        14        15     9      180.000000       -0.549179         4    ;  uncertainty k = 0.168103
        13        12        14        34     9        0.000000        0.944309         1    ;  uncertainty k = 0.481747
        13        12        14        34     9      180.000000        9.631720         2    ;  uncertainty k = 0.218444
        13        12        14        34     9        0.000000        2.134539         3    ;  uncertainty k = 0.211371
        13        12        14        34     9      180.000000       -0.270740         4    ;  uncertainty k = 0.205351
        14        12        11        33     9        0.000000        3.140675         1    ;  uncertainty k = 0.997162
        14        12        11        33     9      180.000000        4.606961         2    ;  uncertainty k = 1.129894
        14        12        11        33     9        0.000000        0.781754         3    ;  uncertainty k = 0.203638
        14        12        11        33     9      180.000000       -0.387106         4    ;  uncertainty k = 0.270300
        14        15        16        17     9        0.000000        0.054628         1    ;  uncertainty k = 0.336999
        14        15        16        17     9      180.000000       10.390327         2    ;  uncertainty k = 0.489504
        14        15        16        17     9        0.000000        1.181753         3    ;  uncertainty k = 0.459274
        14        15        16        17     9      180.000000        1.648418         4    ;  uncertainty k = 0.231749
        14        15        16        35     9        0.000000       -0.088410         1    ;  uncertainty k = 0.223061
        14        15        16        35     9      180.000000        8.268521         2    ;  uncertainty k = 0.453750
        14        15        16        35     9        0.000000        0.741184         3    ;  uncertainty k = 0.216561
        14        15        16        35     9      180.000000        1.139664         4    ;  uncertainty k = 0.186944
        14        15        24        23     9        0.000000        0.054628         1    ;  uncertainty k = 0.336999
        14        15        24        23     9      180.000000       10.390327         2    ;  uncertainty k = 0.489504
        14        15        24        23     9        0.000000        1.181753         3    ;  uncertainty k = 0.459274
        14        15        24        23     9      180.000000        1.648418         4    ;  uncertainty k = 0.231749
        14        15        24        47     9        0.000000       -0.088410         1    ;  uncertainty k = 0.223061
        14        15        24        47     9      180.000000        8.268521         2    ;  uncertainty k = 0.453750
        14        15        24        47     9        0.000000        0.741184         3    ;  uncertainty k = 0.216561
        14        15        24        47     9      180.000000        1.139664         4    ;  uncertainty k = 0.186944
        15        16        17        18     9        0.000000       -0.183191         1    ;  uncertainty k = 0.171698
        15        16        17        18     9      180.000000       13.240364         2    ;  uncertainty k = 0.402448
        15        16        17        18     9        0.000000       -0.776036         3    ;  uncertainty k = 0.414586
        15        16        17        18     9      180.000000        0.790444         4    ;  uncertainty k = 0.305677
        15        16        17        36     9        0.000000       -0.032449         1    ;  uncertainty k = 0.276591
        15        16        17        36     9      180.000000        8.619250         2    ;  uncertainty k = 0.471936
        15        16        17        36     9        0.000000        1.205131         3    ;  uncertainty k = 0.321028
        15        16        17        36     9      180.000000        1.670011         4    ;  uncertainty k = 0.132637
        15        24        23        18     9        0.000000       -0.183191         1    ;  uncertainty k = 0.171698
        15        24        23        18     9      180.000000       13.240364         2    ;  uncertainty k = 0.402448
        15        24        23        18     9        0.000000       -0.776036         3    ;  uncertainty k = 0.414586
        15        24        23        18     9      180.000000        0.790444         4    ;  uncertainty k = 0.305677
        15        24        23        46     9        0.000000       -0.032449         1    ;  uncertainty k = 0.276591
        15        24        23        46     9      180.000000        8.619250         2    ;  uncertainty k = 0.471936
        15        24        23        46     9        0.000000        1.205131         3    ;  uncertainty k = 0.321028
        15        24        23        46     9      180.000000        1.670011         4    ;  uncertainty k = 0.132637
        16        15        14        34     9        0.000000        0.627711         1    ;  uncertainty k = 0.877028
        16        15        14        34     9      180.000000        3.494999         2    ;  uncertainty k = 0.072101
        16        15        14        34     9        0.000000        0.680292         3    ;  uncertainty k = 0.106281
        16        15        14        34     9      180.000000        0.225493         4    ;  uncertainty k = 0.050188
        16        15        24        23     9        0.000000       -0.095676         1    ;  uncertainty k = 0.274856
        16        15        24        23     9      180.000000        9.754445         2    ;  uncertainty k = 0.342864
        16        15        24        23     9        0.000000       -0.145344         3    ;  uncertainty k = 0.139074
        16        15        24        23     9      180.000000        1.143448         4    ;  uncertainty k = 0.250768
        16        15        24        47     9        0.000000        0.078638         1    ;  uncertainty k = 0.297414
        16        15        24        47     9      180.000000        6.665096         2    ;  uncertainty k = 0.524721
        16        15        24        47     9        0.000000        1.254706         3    ;  uncertainty k = 0.353972
        16        15        24        47     9      180.000000        1.498654         4    ;  uncertainty k = 0.139633
        16        17        18        19     9        0.000000        0.043819         1    ;  uncertainty k = 0.231966
        16        17        18        19     9      180.000000        8.132558         2    ;  uncertainty k = 0.274229
        16        17        18        19     9        0.000000        1.438818         3    ;  uncertainty k = 0.341939
        16        17        18        19     9      180.000000        1.862119         4    ;  uncertainty k = 0.195784
        16        17        18        23     9        0.000000       -0.298838         1    ;  uncertainty k = 0.128113
        16        17        18        23     9      180.000000       11.451560         2    ;  uncertainty k = 0.375579
        16        17        18        23     9        0.000000       -0.317007         3    ;  uncertainty k = 0.198038
        16        17        18        23     9      180.000000        0.850576         4    ;  uncertainty k = 0.354592
        17        16        15        24     9        0.000000       -0.095676         1    ;  uncertainty k = 0.274856
        17        16        15        24     9      180.000000        9.754445         2    ;  uncertainty k = 0.342864
        17        16        15        24     9        0.000000       -0.145344         3    ;  uncertainty k = 0.139074
        17        16        15        24     9      180.000000        1.143448         4    ;  uncertainty k = 0.250768
        17        18        19        20     9        0.000000       -0.314107         1    ;  uncertainty k = 0.333220
        17        18        19        20     9      180.000000        2.489689         2    ;  uncertainty k = 0.163496
        17        18        19        20     9        0.000000        0.347188         3    ;  uncertainty k = 0.091029
        17        18        19        20     9      180.000000        0.366395         4    ;  uncertainty k = 0.051022
        17        18        19        21     9        0.000000       -0.314107         1    ;  uncertainty k = 0.333220
        17        18        19        21     9      180.000000        2.489689         2    ;  uncertainty k = 0.163496
        17        18        19        21     9        0.000000        0.347188         3    ;  uncertainty k = 0.091029
        17        18        19        21     9      180.000000        0.366395         4    ;  uncertainty k = 0.051022
        17        18        19        22     9        0.000000       -0.314107         1    ;  uncertainty k = 0.333220
        17        18        19        22     9      180.000000        2.489689         2    ;  uncertainty k = 0.163496
        17        18        19        22     9        0.000000        0.347188         3    ;  uncertainty k = 0.091029
        17        18        19        22     9      180.000000        0.366395         4    ;  uncertainty k = 0.051022
        17        18        23        24     9        0.000000       -0.298838         1    ;  uncertainty k = 0.128113
        17        18        23        24     9      180.000000       11.451560         2    ;  uncertainty k = 0.375579
        17        18        23        24     9        0.000000       -0.317007         3    ;  uncertainty k = 0.198038
        17        18        23        24     9      180.000000        0.850576         4    ;  uncertainty k = 0.354592
        17        18        23        46     9        0.000000        0.077724         1    ;  uncertainty k = 0.252194
        17        18        23        46     9      180.000000        7.342077         2    ;  uncertainty k = 0.513496
        17        18        23        46     9        0.000000        1.413788         3    ;  uncertainty k = 0.399745
        17        18        23        46     9      180.000000        1.623968         4    ;  uncertainty k = 0.184678
        18        17        16        35     9        0.000000       -0.044738         1    ;  uncertainty k = 0.234465
        18        17        16        35     9      180.000000        8.045128         2    ;  uncertainty k = 0.290625
        18        17        16        35     9        0.000000        1.346726         3    ;  uncertainty k = 0.281231
        18        17        16        35     9      180.000000        1.869680         4    ;  uncertainty k = 0.271947
        18        19        20        37     9        0.000000        0.836975         1    ;  uncertainty k = 0.436257
        18        19        20        37     9      180.000000       -0.531661         2    ;  uncertainty k = 0.061593
        18        19        20        37     9        0.000000        0.713869         3    ;  uncertainty k = 0.068328
        18        19        20        37     9      180.000000        0.039451         4    ;  uncertainty k = 0.058549
        18        19        20        38     9        0.000000        0.836975         1    ;  uncertainty k = 0.436257
        18        19        20        38     9      180.000000       -0.531661         2    ;  uncertainty k = 0.061593
        18        19        20        38     9        0.000000        0.713869         3    ;  uncertainty k = 0.068328
        18        19        20        38     9      180.000000        0.039451         4    ;  uncertainty k = 0.058549
        18        19        20        39     9        0.000000        0.836975         1    ;  uncertainty k = 0.436257
        18        19        20        39     9      180.000000       -0.531661         2    ;  uncertainty k = 0.061593
        18        19        20        39     9        0.000000        0.713869         3    ;  uncertainty k = 0.068328
        18        19        20        39     9      180.000000        0.039451         4    ;  uncertainty k = 0.058549
        18        19        21        40     9        0.000000        0.836975         1    ;  uncertainty k = 0.436257
        18        19        21        40     9      180.000000       -0.531661         2    ;  uncertainty k = 0.061593
        18        19        21        40     9        0.000000        0.713869         3    ;  uncertainty k = 0.068328
        18        19        21        40     9      180.000000        0.039451         4    ;  uncertainty k = 0.058549
        18        19        21        41     9        0.000000        0.836975         1    ;  uncertainty k = 0.436257
        18        19        21        41     9      180.000000       -0.531661         2    ;  uncertainty k = 0.061593
        18        19        21        41     9        0.000000        0.713869         3    ;  uncertainty k = 0.068328
        18        19        21        41     9      180.000000        0.039451         4    ;  uncertainty k = 0.058549
        18        19        21        42     9        0.000000        0.836975         1    ;  uncertainty k = 0.436257
        18        19        21        42     9      180.000000       -0.531661         2    ;  uncertainty k = 0.061593
        18        19        21        42     9        0.000000        0.713869         3    ;  uncertainty k = 0.068328
        18        19        21        42     9      180.000000        0.039451         4    ;  uncertainty k = 0.058549
        18        19        22        43     9        0.000000        0.836975         1    ;  uncertainty k = 0.436257
        18        19        22        43     9      180.000000       -0.531661         2    ;  uncertainty k = 0.061593
        18        19        22        43     9        0.000000        0.713869         3    ;  uncertainty k = 0.068328
        18        19        22        43     9      180.000000        0.039451         4    ;  uncertainty k = 0.058549
        18        19        22        44     9        0.000000        0.836975         1    ;  uncertainty k = 0.436257
        18        19        22        44     9      180.000000       -0.531661         2    ;  uncertainty k = 0.061593
        18        19        22        44     9        0.000000        0.713869         3    ;  uncertainty k = 0.068328
        18        19        22        44     9      180.000000        0.039451         4    ;  uncertainty k = 0.058549
        18        19        22        45     9        0.000000        0.836975         1    ;  uncertainty k = 0.436257
        18        19        22        45     9      180.000000       -0.531661         2    ;  uncertainty k = 0.061593
        18        19        22        45     9        0.000000        0.713869         3    ;  uncertainty k = 0.068328
        18        19        22        45     9      180.000000        0.039451         4    ;  uncertainty k = 0.058549
        18        23        24        47     9        0.000000       -0.044738         1    ;  uncertainty k = 0.234465
        18        23        24        47     9      180.000000        8.045128         2    ;  uncertainty k = 0.290625
        18        23        24        47     9        0.000000        1.346726         3    ;  uncertainty k = 0.281231
        18        23        24        47     9      180.000000        1.869680         4    ;  uncertainty k = 0.271947
        19        18        17        36     9        0.000000       -0.301537         1    ;  uncertainty k = 0.683660
        19        18        17        36     9      180.000000        7.560932         2    ;  uncertainty k = 0.541578
        19        18        17        36     9        0.000000        0.570322         3    ;  uncertainty k = 0.308357
        19        18        17        36     9      180.000000        0.949174         4    ;  uncertainty k = 0.177912
        19        18        23        24     9        0.000000        0.043819         1    ;  uncertainty k = 0.231966
        19        18        23        24     9      180.000000        8.132558         2    ;  uncertainty k = 0.274229
        19        18        23        24     9        0.000000        1.438818         3    ;  uncertainty k = 0.341939
        19        18        23        24     9      180.000000        1.862119         4    ;  uncertainty k = 0.195784
        19        18        23        46     9        0.000000       -0.301537         1    ;  uncertainty k = 0.683660
        19        18        23        46     9      180.000000        7.560932         2    ;  uncertainty k = 0.541578
        19        18        23        46     9        0.000000        0.570322         3    ;  uncertainty k = 0.308357
        19        18        23        46     9      180.000000        0.949174         4    ;  uncertainty k = 0.177912
        20        19        18        23     9        0.000000       -0.314107         1    ;  uncertainty k = 0.333220
        20        19        18        23     9      180.000000        2.489689         2    ;  uncertainty k = 0.163496
        20        19        18        23     9        0.000000        0.347188         3    ;  uncertainty k = 0.091029
        20        19        18        23     9      180.000000        0.366395         4    ;  uncertainty k = 0.051022
        20        19        21        40     9        0.000000       -1.198065         1    ;  uncertainty k = 0.274246
        20        19        21        40     9      180.000000       -0.228152         2    ;  uncertainty k = 0.093397
        20        19        21        40     9        0.000000        0.811101         3    ;  uncertainty k = 0.035130
        20        19        21        40     9      180.000000       -0.066217         4    ;  uncertainty k = 0.044438
        20        19        21        41     9        0.000000       -1.198065         1    ;  uncertainty k = 0.274246
        20        19        21        41     9      180.000000       -0.228152         2    ;  uncertainty k = 0.093397
        20        19        21        41     9        0.000000        0.811101         3    ;  uncertainty k = 0.035130
        20        19        21        41     9      180.000000       -0.066217         4    ;  uncertainty k = 0.044438
        20        19        21        42     9        0.000000       -1.198065         1    ;  uncertainty k = 0.274246
        20        19        21        42     9      180.000000       -0.228152         2    ;  uncertainty k = 0.093397
        20        19        21        42     9        0.000000        0.811101         3    ;  uncertainty k = 0.035130
        20        19        21        42     9      180.000000       -0.066217         4    ;  uncertainty k = 0.044438
        20        19        22        43     9        0.000000       -1.198065         1    ;  uncertainty k = 0.274246
        20        19        22        43     9      180.000000       -0.228152         2    ;  uncertainty k = 0.093397
        20        19        22        43     9        0.000000        0.811101         3    ;  uncertainty k = 0.035130
        20        19        22        43     9      180.000000       -0.066217         4    ;  uncertainty k = 0.044438
        20        19        22        44     9        0.000000       -1.198065         1    ;  uncertainty k = 0.274246
        20        19        22        44     9      180.000000       -0.228152         2    ;  uncertainty k = 0.093397
        20        19        22        44     9        0.000000        0.811101         3    ;  uncertainty k = 0.035130
        20        19        22        44     9      180.000000       -0.066217         4    ;  uncertainty k = 0.044438
        20        19        22        45     9        0.000000       -1.198065         1    ;  uncertainty k = 0.274246
        20        19        22        45     9      180.000000       -0.228152         2    ;  uncertainty k = 0.093397
        20        19        22        45     9        0.000000        0.811101         3    ;  uncertainty k = 0.035130
        20        19        22        45     9      180.000000       -0.066217         4    ;  uncertainty k = 0.044438
        21        19        18        23     9        0.000000       -0.314107         1    ;  uncertainty k = 0.333220
        21        19        18        23     9      180.000000        2.489689         2    ;  uncertainty k = 0.163496
        21        19        18        23     9        0.000000        0.347188         3    ;  uncertainty k = 0.091029
        21        19        18        23     9      180.000000        0.366395         4    ;  uncertainty k = 0.051022
        21        19        20        37     9        0.000000       -1.198065         1    ;  uncertainty k = 0.274246
        21        19        20        37     9      180.000000       -0.228152         2    ;  uncertainty k = 0.093397
        21        19        20        37     9        0.000000        0.811101         3    ;  uncertainty k = 0.035130
        21        19        20        37     9      180.000000       -0.066217         4    ;  uncertainty k = 0.044438
        21        19        20        38     9        0.000000       -1.198065         1    ;  uncertainty k = 0.274246
        21        19        20        38     9      180.000000       -0.228152         2    ;  uncertainty k = 0.093397
        21        19        20        38     9        0.000000        0.811101         3    ;  uncertainty k = 0.035130
        21        19        20        38     9      180.000000       -0.066217         4    ;  uncertainty k = 0.044438
        21        19        20        39     9        0.000000       -1.198065         1    ;  uncertainty k = 0.274246
        21        19        20        39     9      180.000000       -0.228152         2    ;  uncertainty k = 0.093397
        21        19        20        39     9        0.000000        0.811101         3    ;  uncertainty k = 0.035130
        21        19        20        39     9      180.000000       -0.066217         4    ;  uncertainty k = 0.044438
        21        19        22        43     9        0.000000       -1.198065         1    ;  uncertainty k = 0.274246
        21        19        22        43     9      180.000000       -0.228152         2    ;  uncertainty k = 0.093397
        21        19        22        43     9        0.000000        0.811101         3    ;  uncertainty k = 0.035130
        21        19        22        43     9      180.000000       -0.066217         4    ;  uncertainty k = 0.044438
        21        19        22        44     9        0.000000       -1.198065         1    ;  uncertainty k = 0.274246
        21        19        22        44     9      180.000000       -0.228152         2    ;  uncertainty k = 0.093397
        21        19        22        44     9        0.000000        0.811101         3    ;  uncertainty k = 0.035130
        21        19        22        44     9      180.000000       -0.066217         4    ;  uncertainty k = 0.044438
        21        19        22        45     9        0.000000       -1.198065         1    ;  uncertainty k = 0.274246
        21        19        22        45     9      180.000000       -0.228152         2    ;  uncertainty k = 0.093397
        21        19        22        45     9        0.000000        0.811101         3    ;  uncertainty k = 0.035130
        21        19        22        45     9      180.000000       -0.066217         4    ;  uncertainty k = 0.044438
        22        19        18        23     9        0.000000       -0.314107         1    ;  uncertainty k = 0.333220
        22        19        18        23     9      180.000000        2.489689         2    ;  uncertainty k = 0.163496
        22        19        18        23     9        0.000000        0.347188         3    ;  uncertainty k = 0.091029
        22        19        18        23     9      180.000000        0.366395         4    ;  uncertainty k = 0.051022
        22        19        20        37     9        0.000000       -1.198065         1    ;  uncertainty k = 0.274246
        22        19        20        37     9      180.000000       -0.228152         2    ;  uncertainty k = 0.093397
        22        19        20        37     9        0.000000        0.811101         3    ;  uncertainty k = 0.035130
        22        19        20        37     9      180.000000       -0.066217         4    ;  uncertainty k = 0.044438
        22        19        20        38     9        0.000000       -1.198065         1    ;  uncertainty k = 0.274246
        22        19        20        38     9      180.000000       -0.228152         2    ;  uncertainty k = 0.093397
        22        19        20        38     9        0.000000        0.811101         3    ;  uncertainty k = 0.035130
        22        19        20        38     9      180.000000       -0.066217         4    ;  uncertainty k = 0.044438
        22        19        20        39     9        0.000000       -1.198065         1    ;  uncertainty k = 0.274246
        22        19        20        39     9      180.000000       -0.228152         2    ;  uncertainty k = 0.093397
        22        19        20        39     9        0.000000        0.811101         3    ;  uncertainty k = 0.035130
        22        19        20        39     9      180.000000       -0.066217         4    ;  uncertainty k = 0.044438
        22        19        21        40     9        0.000000       -1.198065         1    ;  uncertainty k = 0.274246
        22        19        21        40     9      180.000000       -0.228152         2    ;  uncertainty k = 0.093397
        22        19        21        40     9        0.000000        0.811101         3    ;  uncertainty k = 0.035130
        22        19        21        40     9      180.000000       -0.066217         4    ;  uncertainty k = 0.044438
        22        19        21        41     9        0.000000       -1.198065         1    ;  uncertainty k = 0.274246
        22        19        21        41     9      180.000000       -0.228152         2    ;  uncertainty k = 0.093397
        22        19        21        41     9        0.000000        0.811101         3    ;  uncertainty k = 0.035130
        22        19        21        41     9      180.000000       -0.066217         4    ;  uncertainty k = 0.044438
        22        19        21        42     9        0.000000       -1.198065         1    ;  uncertainty k = 0.274246
        22        19        21        42     9      180.000000       -0.228152         2    ;  uncertainty k = 0.093397
        22        19        21        42     9        0.000000        0.811101         3    ;  uncertainty k = 0.035130
        22        19        21        42     9      180.000000       -0.066217         4    ;  uncertainty k = 0.044438
        23        18        17        36     9        0.000000        0.077724         1    ;  uncertainty k = 0.252194
        23        18        17        36     9      180.000000        7.342077         2    ;  uncertainty k = 0.513496
        23        18        17        36     9        0.000000        1.413788         3    ;  uncertainty k = 0.399745
        23        18        17        36     9      180.000000        1.623968         4    ;  uncertainty k = 0.184678
        24        15        14        34     9        0.000000        0.627711         1    ;  uncertainty k = 0.877028
        24        15        14        34     9      180.000000        3.494999         2    ;  uncertainty k = 0.072101
        24        15        14        34     9        0.000000        0.680292         3    ;  uncertainty k = 0.106281
        24        15        14        34     9      180.000000        0.225493         4    ;  uncertainty k = 0.050188
        24        15        16        35     9        0.000000        0.078638         1    ;  uncertainty k = 0.297414
        24        15        16        35     9      180.000000        6.665096         2    ;  uncertainty k = 0.524721
        24        15        16        35     9        0.000000        1.254706         3    ;  uncertainty k = 0.353972
        24        15        16        35     9      180.000000        1.498654         4    ;  uncertainty k = 0.139633
        25        10         9        28     9        0.000000       -0.006292         1    ;  uncertainty k = 0.585644
        25        10         9        28     9      180.000000        5.409164         2    ;  uncertainty k = 1.404242
        25        10         9        28     9        0.000000       -0.113620         3    ;  uncertainty k = 0.195163
        25        10         9        28     9      180.000000        1.221279         4    ;  uncertainty k = 0.563245
        25        10        11        33     9        0.000000        0.848167         1    ;  uncertainty k = 0.508402
        25        10        11        33     9      180.000000        2.941024         2    ;  uncertainty k = 0.300123
        25        10        11        33     9        0.000000        0.417155         3    ;  uncertainty k = 0.206640
        25        10        11        33     9      180.000000        0.143213         4    ;  uncertainty k = 0.162479
        25        26        27        28     9        0.000000        0.122912         1    ;  uncertainty k = 0.377650
        25        26        27        28     9      180.000000       16.205381         2    ;  uncertainty k = 0.253453
        25        26        27        28     9        0.000000       -1.374142         3    ;  uncertainty k = 0.567401
        25        26        27        28     9      180.000000        0.764888         4    ;  uncertainty k = 0.233191
        25        26        27        50     9        0.000000       -0.129492         1    ;  uncertainty k = 0.287891
        25        26        27        50     9      180.000000        6.663214         2    ;  uncertainty k = 0.558015
        25        26        27        50     9        0.000000        1.279160         3    ;  uncertainty k = 0.228439
        25        26        27        50     9      180.000000        1.542370         4    ;  uncertainty k = 0.207679
        27        26        25        48     9        0.000000       -0.096931         1    ;  uncertainty k = 0.224660
        27        26        25        48     9      180.000000        7.599745         2    ;  uncertainty k = 0.300022
        27        26        25        48     9        0.000000        1.345913         3    ;  uncertainty k = 0.259017
        27        26        25        48     9      180.000000        1.606126         4    ;  uncertainty k = 0.220857
        28        27        26        49     9        0.000000        0.109573         1    ;  uncertainty k = 0.140059
        28        27        26        49     9      180.000000       10.004729         2    ;  uncertainty k = 0.564195
        28        27        26        49     9        0.000000        0.906338         3    ;  uncertainty k = 0.280019
        28        27        26        49     9      180.000000        1.603453         4    ;  uncertainty k = 0.128880
        29         7         6        32     9        0.000000        0.352483         1    ;  uncertainty k = 0.339484
        29         7         6        32     9      180.000000        6.361093         2    ;  uncertainty k = 0.726341
        29         7         6        32     9        0.000000        1.436523         3    ;  uncertainty k = 0.297367
        29         7         6        32     9      180.000000        1.632782         4    ;  uncertainty k = 0.226382
        29        30        31        53     9        0.000000        0.045855         1    ;  uncertainty k = 0.139452
        29        30        31        53     9      180.000000        7.634182         2    ;  uncertainty k = 0.325719
        29        30        31        53     9        0.000000        1.429700         3    ;  uncertainty k = 0.294025
        29        30        31        53     9      180.000000        1.813094         4    ;  uncertainty k = 0.105599
        31         5         6        32     9        0.000000        0.268151         1    ;  uncertainty k = 0.190038
        31         5         6        32     9      180.000000        7.491647         2    ;  uncertainty k = 0.392990
        31         5         6        32     9        0.000000        1.431311         3    ;  uncertainty k = 0.350125
        31         5         6        32     9      180.000000        1.713380         4    ;  uncertainty k = 0.259230
        31        30        29        51     9        0.000000        0.088445         1    ;  uncertainty k = 0.118077
        31        30        29        51     9      180.000000        7.757902         2    ;  uncertainty k = 0.350509
        31        30        29        51     9        0.000000        1.478620         3    ;  uncertainty k = 0.245127
        31        30        29        51     9      180.000000        1.826841         4    ;  uncertainty k = 0.156239
        35        16        17        36     9        0.000000       -0.132260         1    ;  uncertainty k = 0.329318
        35        16        17        36     9      180.000000        8.066108         2    ;  uncertainty k = 0.369131
        35        16        17        36     9        0.000000       -0.420332         3    ;  uncertainty k = 0.276740
        35        16        17        36     9      180.000000        0.322826         4    ;  uncertainty k = 0.199805
        46        23        24        47     9        0.000000       -0.132260         1    ;  uncertainty k = 0.329318
        46        23        24        47     9      180.000000        8.066108         2    ;  uncertainty k = 0.369131
        46        23        24        47     9        0.000000       -0.420332         3    ;  uncertainty k = 0.276740
        46        23        24        47     9      180.000000        0.322826         4    ;  uncertainty k = 0.199805
        48        25        26        49     9        0.000000        0.077279         1    ;  uncertainty k = 0.355604
        48        25        26        49     9      180.000000        7.819656         2    ;  uncertainty k = 0.531205
        48        25        26        49     9        0.000000       -0.430593         3    ;  uncertainty k = 0.317162
        48        25        26        49     9      180.000000        0.145196         4    ;  uncertainty k = 0.160605
        49        26        27        50     9        0.000000       -0.176777         1    ;  uncertainty k = 0.222997
        49        26        27        50     9      180.000000        6.567606         2    ;  uncertainty k = 0.260169
        49        26        27        50     9        0.000000       -0.010461         3    ;  uncertainty k = 0.138989
        49        26        27        50     9      180.000000        0.217241         4    ;  uncertainty k = 0.090307
        51        29        30        52     9        0.000000       -0.111312         1    ;  uncertainty k = 0.116733
        51        29        30        52     9      180.000000        7.570028         2    ;  uncertainty k = 0.334358
        51        29        30        52     9        0.000000       -0.403022         3    ;  uncertainty k = 0.287478
        51        29        30        52     9      180.000000        0.119544         4    ;  uncertainty k = 0.101293
        52        30        31        53     9        0.000000       -0.002553         1    ;  uncertainty k = 0.115730
        52        30        31        53     9      180.000000        7.661892         2    ;  uncertainty k = 0.473726
        52        30        31        53     9        0.000000       -0.390381         3    ;  uncertainty k = 0.286358
        52        30        31        53     9      180.000000        0.068734         4    ;  uncertainty k = 0.168306

[ dihedrals ] ; impropers
;       ai        aj        ak        al funct           phase               k        pn
         5         2         6        31     4      180.000000        8.646184         2    ;  uncertainty k = 0.131479
         5         6        31         2     4      180.000000        8.646184         2    ;  uncertainty k = 0.131479
         5        31         2         6     4      180.000000        8.646184         2    ;  uncertainty k = 0.131479
         6         5         7        32     4      180.000000        3.523441         2    ;  uncertainty k = 0.117653
         6         7        32         5     4      180.000000        3.523441         2    ;  uncertainty k = 0.117653
         6        32         5         7     4      180.000000        3.523441         2    ;  uncertainty k = 0.117653
         7         6         8        29     4      180.000000       16.372354         2    ;  uncertainty k = 0.070186
         7         8        29         6     4      180.000000       16.372354         2    ;  uncertainty k = 0.070186
         7        29         6         8     4      180.000000       16.372354         2    ;  uncertainty k = 0.070186
         9         8        10        28     4      180.000000       23.632419         2    ;  uncertainty k = 0.090188
         9        10        28         8     4      180.000000       23.632419         2    ;  uncertainty k = 0.090188
         9        28         8        10     4      180.000000       23.632419         2    ;  uncertainty k = 0.090188
        10         9        11        25     4      180.000000       13.075348         2    ;  uncertainty k = 0.235826
        10        11        25         9     4      180.000000       13.075348         2    ;  uncertainty k = 0.235826
        10        25         9        11     4      180.000000       13.075348         2    ;  uncertainty k = 0.235826
        11        10        12        33     4      180.000000        0.392747         2    ;  uncertainty k = 0.562768
        11        12        33        10     4      180.000000        0.392747         2    ;  uncertainty k = 0.562768
        11        33        10        12     4      180.000000        0.392747         2    ;  uncertainty k = 0.562768
        12        11        13        14     4      180.000000       63.229436         2    ;  uncertainty k = 0.059119
        12        13        14        11     4      180.000000       63.229436         2    ;  uncertainty k = 0.059119
        12        14        11        13     4      180.000000       63.229436         2    ;  uncertainty k = 0.059119
        14        12        15        34     4      180.000000        0.550283         2    ;  uncertainty k = 0.605192
        14        15        34        12     4      180.000000        0.550283         2    ;  uncertainty k = 0.605192
        14        34        12        15     4      180.000000        0.550283         2    ;  uncertainty k = 0.605192
        15        14        16        24     4      180.000000       17.702767         2    ;  uncertainty k = 0.093291
        15        16        24        14     4      180.000000       17.702767         2    ;  uncertainty k = 0.093291
        15        24        14        16     4      180.000000       17.702767         2    ;  uncertainty k = 0.093291
        16        15        17        35     4      180.000000        2.975693         2    ;  uncertainty k = 0.157643
        16        17        35        15     4      180.000000        2.975693         2    ;  uncertainty k = 0.157643
        16        35        15        17     4      180.000000        2.975693         2    ;  uncertainty k = 0.157643
        17        16        18        36     4      180.000000        3.914800         2    ;  uncertainty k = 0.148275
        17        18        36        16     4      180.000000        3.914800         2    ;  uncertainty k = 0.148275
        17        36        16        18     4      180.000000        3.914800         2    ;  uncertainty k = 0.148275
        18        17        19        23     4      180.000000       12.120085         2    ;  uncertainty k = 0.113128
        18        19        23        17     4      180.000000       12.120085         2    ;  uncertainty k = 0.113128
        18        23        17        19     4      180.000000       12.120085         2    ;  uncertainty k = 0.113128
        23        18        24        46     4      180.000000        3.914800         2    ;  uncertainty k = 0.148275
        23        24        46        18     4      180.000000        3.914800         2    ;  uncertainty k = 0.148275
        23        46        18        24     4      180.000000        3.914800         2    ;  uncertainty k = 0.148275
        24        15        23        47     4      180.000000        2.975693         2    ;  uncertainty k = 0.157643
        24        23        47        15     4      180.000000        2.975693         2    ;  uncertainty k = 0.157643
        24        47        15        23     4      180.000000        2.975693         2    ;  uncertainty k = 0.157643
        25        10        26        48     4      180.000000        4.523754         2    ;  uncertainty k = 0.211544
        25        26        48        10     4      180.000000        4.523754         2    ;  uncertainty k = 0.211544
        25        48        10        26     4      180.000000        4.523754         2    ;  uncertainty k = 0.211544
        26        25        27        49     4      180.000000        2.219263         2    ;  uncertainty k = 0.396250
        26        27        49        25     4      180.000000        2.219263         2    ;  uncertainty k = 0.396250
        26        49        25        27     4      180.000000        2.219263         2    ;  uncertainty k = 0.396250
        27        26        28        50     4      180.000000       11.532154         2    ;  uncertainty k = 0.089528
        27        28        50        26     4      180.000000       11.532154         2    ;  uncertainty k = 0.089528
        27        50        26        28     4      180.000000       11.532154         2    ;  uncertainty k = 0.089528
        29         7        30        51     4      180.000000        3.153034         2    ;  uncertainty k = 0.114221
        29        30        51         7     4      180.000000        3.153034         2    ;  uncertainty k = 0.114221
        29        51         7        30     4      180.000000        3.153034         2    ;  uncertainty k = 0.114221
        30        29        31        52     4      180.000000        4.325331         2    ;  uncertainty k = 0.198960
        30        31        52        29     4      180.000000        4.325331         2    ;  uncertainty k = 0.198960
        30        52        29        31     4      180.000000        4.325331         2    ;  uncertainty k = 0.198960
        31         5        30        53     4      180.000000        4.036364         2    ;  uncertainty k = 0.083904
        31        30        53         5     4      180.000000        4.036364         2    ;  uncertainty k = 0.083904
        31        53         5        30     4      180.000000        4.036364         2    ;  uncertainty k = 0.083904

[ pairs ]
;       ai        aj funct
         1         6     1
         1        31     1
         2         7     1
         2        30     1
         2        32     1
         2        53     1
         3         6     1
         3        31     1
         4         6     1
         4        31     1
         5         8     1
         5        29     1
         5        52     1
         6         9     1
         6        30     1
         6        51     1
         6        53     1
         7        10     1
         7        28     1
         7        31     1
         7        52     1
         8        11     1
         8        25     1
         8        27     1
         8        30     1
         8        32     1
         8        51     1
         9        12     1
         9        26     1
         9        29     1
         9        33     1
         9        48     1
         9        50     1
        10        13     1
        10        14     1
        10        27     1
        10        49     1
        11        15     1
        11        26     1
        11        28     1
        11        34     1
        11        48     1
        12        16     1
        12        24     1
        12        25     1
        13        15     1
        13        33     1
        13        34     1
        14        17     1
        14        23     1
        14        33     1
        14        35     1
        14        47     1
        15        18     1
        15        36     1
        15        46     1
        16        19     1
        16        23     1
        16        34     1
        16        47     1
        17        20     1
        17        21     1
        17        22     1
        17        24     1
        17        46     1
        18        35     1
        18        37     1
        18        38     1
        18        39     1
        18        40     1
        18        41     1
        18        42     1
        18        43     1
        18        44     1
        18        45     1
        18        47     1
        19        24     1
        19        36     1
        19        46     1
        20        23     1
        20        40     1
        20        41     1
        20        42     1
        20        43     1
        20        44     1
        20        45     1
        21        23     1
        21        37     1
        21        38     1
        21        39     1
        21        43     1
        21        44     1
        21        45     1
        22        23     1
        22        37     1
        22        38     1
        22        39     1
        22        40     1
        22        41     1
        22        42     1
        23        36     1
        24        34     1
        24        35     1
        25        28     1
        25        33     1
        25        50     1
        27        48     1
        28        49     1
        29        32     1
        29        53     1
        31        32     1
        31        51     1
        35        36     1
        46        47     1
        48        49     1
        49        50     1
        51        52     1
        52        53     1
