; ITP file created by ByteFF-joint-25, 2025-07-14 11:29:00.933236

[ atomtypes ]
;name           bonded.type        at.num        mass        charge   ptype           sigma         epsilon
 f0bf                                   9      0.0000       0.00000       A     3.03363e-01     3.48180e-01    ;  uncertainty sigma = 0.000019, epsilon = 0.001645
 c1bf                                   6      0.0000       0.00000       A     3.39778e-01     4.50411e-01    ;  uncertainty sigma = 0.000027, epsilon = 0.000824
 f2bf                                   9      0.0000       0.00000       A     3.03363e-01     3.48180e-01    ;  uncertainty sigma = 0.000019, epsilon = 0.001645
 f3bf                                   9      0.0000       0.00000       A     3.03363e-01     3.48180e-01    ;  uncertainty sigma = 0.000019, epsilon = 0.001645
 o4bf                                   8      0.0000       0.00000       A     3.15654e-01     3.04705e-01    ;  uncertainty sigma = 0.000025, epsilon = 0.002255
 c5bf                                   6      0.0000       0.00000       A     3.31525e-01     4.13709e-01    ;  uncertainty sigma = 0.000010, epsilon = 0.001214
 c6bf                                   6      0.0000       0.00000       A     3.31516e-01     4.13483e-01    ;  uncertainty sigma = 0.000007, epsilon = 0.000536
 c7bf                                   6      0.0000       0.00000       A     3.31528e-01     4.13409e-01    ;  uncertainty sigma = 0.000007, epsilon = 0.000530
 c8bf                                   6      0.0000       0.00000       A     3.31545e-01     4.13138e-01    ;  uncertainty sigma = 0.000020, epsilon = 0.001003
 n9bf                                   7      0.0000       0.00000       A     3.27001e-01     4.89717e-01    ;  uncertainty sigma = 0.000033, epsilon = 0.001946
 c10bf                                  6      0.0000       0.00000       A     3.31430e-01     4.12461e-01    ;  uncertainty sigma = 0.000089, epsilon = 0.001757
 o11bf                                  8      0.0000       0.00000       A     3.04768e-01     6.12506e-01    ;  uncertainty sigma = 0.000026, epsilon = 0.002291
 n12bf                                  7      0.0000       0.00000       A     3.26911e-01     4.90562e-01    ;  uncertainty sigma = 0.000022, epsilon = 0.003078
 c13bf                                  6      0.0000       0.00000       A     3.31550e-01     4.12934e-01    ;  uncertainty sigma = 0.000036, epsilon = 0.001226
 c14bf                                  6      0.0000       0.00000       A     3.31577e-01     4.13277e-01    ;  uncertainty sigma = 0.000020, epsilon = 0.000425
 o15bf                                  8      0.0000       0.00000       A     3.15742e-01     3.04478e-01    ;  uncertainty sigma = 0.000034, epsilon = 0.001935
 c16bf                                  6      0.0000       0.00000       A     3.31524e-01     4.13769e-01    ;  uncertainty sigma = 0.000014, epsilon = 0.000755
 c17bf                                  6      0.0000       0.00000       A     3.31514e-01     4.13260e-01    ;  uncertainty sigma = 0.000005, epsilon = 0.000910
 c18bf                                  6      0.0000       0.00000       A     3.31516e-01     4.13636e-01    ;  uncertainty sigma = 0.000009, epsilon = 0.001109
 c19bf                                  6      0.0000       0.00000       A     3.39807e-01     4.50244e-01    ;  uncertainty sigma = 0.000018, epsilon = 0.000749
 f20bf                                  9      0.0000       0.00000       A     3.03450e-01     3.47874e-01    ;  uncertainty sigma = 0.000008, epsilon = 0.001301
 f21bf                                  9      0.0000       0.00000       A     3.03450e-01     3.47874e-01    ;  uncertainty sigma = 0.000008, epsilon = 0.001301
 f22bf                                  9      0.0000       0.00000       A     3.03450e-01     3.47874e-01    ;  uncertainty sigma = 0.000008, epsilon = 0.001301
 c23bf                                  6      0.0000       0.00000       A     3.31514e-01     4.13103e-01    ;  uncertainty sigma = 0.000005, epsilon = 0.000624
 c24bf                                  6      0.0000       0.00000       A     3.31518e-01     4.13409e-01    ;  uncertainty sigma = 0.000004, epsilon = 0.000593
 c25bf                                  6      0.0000       0.00000       A     3.31516e-01     4.13581e-01    ;  uncertainty sigma = 0.000006, epsilon = 0.000572
 n26bf                                  7      0.0000       0.00000       A     3.38387e-01     3.93418e-01    ;  uncertainty sigma = 0.000011, epsilon = 0.000773
 c27bf                                  6      0.0000       0.00000       A     3.31528e-01     4.13303e-01    ;  uncertainty sigma = 0.000012, epsilon = 0.000565
 c28bf                                  6      0.0000       0.00000       A     3.31519e-01     4.13136e-01    ;  uncertainty sigma = 0.000006, epsilon = 0.000735
 c29bf                                  6      0.0000       0.00000       A     3.31539e-01     4.13381e-01    ;  uncertainty sigma = 0.000004, epsilon = 0.001208
 c30bf                                  6      0.0000       0.00000       A     3.31528e-01     4.13409e-01    ;  uncertainty sigma = 0.000007, epsilon = 0.000530
 c31bf                                  6      0.0000       0.00000       A     3.31516e-01     4.13483e-01    ;  uncertainty sigma = 0.000007, epsilon = 0.000536
 h32bf                                  1      0.0000       0.00000       A     2.62561e-01     6.71266e-02    ;  uncertainty sigma = 0.000010, epsilon = 0.000397
 h33bf                                  1      0.0000       0.00000       A     2.62566e-01     6.70272e-02    ;  uncertainty sigma = 0.000016, epsilon = 0.000422
 h34bf                                  1      0.0000       0.00000       A     1.10658e-01     4.17921e-02    ;  uncertainty sigma = 0.000100, epsilon = 0.000972
 h35bf                                  1      0.0000       0.00000       A     1.10682e-01     4.19025e-02    ;  uncertainty sigma = 0.000080, epsilon = 0.001074
 h36bf                                  1      0.0000       0.00000       A     2.62538e-01     6.71612e-02    ;  uncertainty sigma = 0.000012, epsilon = 0.000800
 h37bf                                  1      0.0000       0.00000       A     2.62557e-01     6.69727e-02    ;  uncertainty sigma = 0.000012, epsilon = 0.000520
 h38bf                                  1      0.0000       0.00000       A     2.62568e-01     6.69722e-02    ;  uncertainty sigma = 0.000010, epsilon = 0.000464
 h39bf                                  1      0.0000       0.00000       A     2.62561e-01     6.71298e-02    ;  uncertainty sigma = 0.000006, epsilon = 0.000455
 h40bf                                  1      0.0000       0.00000       A     2.53636e-01     6.70246e-02    ;  uncertainty sigma = 0.000013, epsilon = 0.000470
 h41bf                                  1      0.0000       0.00000       A     2.62567e-01     6.71100e-02    ;  uncertainty sigma = 0.000011, epsilon = 0.000575
 h42bf                                  1      0.0000       0.00000       A     2.62550e-01     6.71051e-02    ;  uncertainty sigma = 0.000018, epsilon = 0.000451
 h43bf                                  1      0.0000       0.00000       A     2.62566e-01     6.70272e-02    ;  uncertainty sigma = 0.000016, epsilon = 0.000422
 h44bf                                  1      0.0000       0.00000       A     2.62561e-01     6.71267e-02    ;  uncertainty sigma = 0.000010, epsilon = 0.000397

[ moleculetype ]
;name             nrexcl
 MOL                   3

[ atoms ]
;       nr            type      resi   res      atom      cgnr      charge          mass ; qtot
         1            f0bf         1   UNL        f0         1    -0.21705       18.9980 ; qtot   -0.217
         2            c1bf         1   UNL        c1         2     0.84099       12.0110 ; qtot    0.624
         3            f2bf         1   UNL        f2         3    -0.21705       18.9980 ; qtot    0.407
         4            f3bf         1   UNL        f3         4    -0.21705       18.9980 ; qtot    0.190
         5            o4bf         1   UNL        o4         5    -0.36649       15.9990 ; qtot   -0.177
         6            c5bf         1   UNL        c5         6     0.05951       12.0110 ; qtot   -0.117
         7            c6bf         1   UNL        c6         7    -0.09074       12.0110 ; qtot   -0.208
         8            c7bf         1   UNL        c7         8    -0.15169       12.0110 ; qtot   -0.360
         9            c8bf         1   UNL        c8         9     0.05687       12.0110 ; qtot   -0.303
        10            n9bf         1   UNL        n9        10    -0.48702       14.0070 ; qtot   -0.790
        11           c10bf         1   UNL       c10        11     0.79866       12.0110 ; qtot    0.009
        12           o11bf         1   UNL       o11        12    -0.59887       15.9990 ; qtot   -0.590
        13           n12bf         1   UNL       n12        13    -0.47413       14.0070 ; qtot   -1.064
        14           c13bf         1   UNL       c13        14    -0.04576       12.0110 ; qtot   -1.110
        15           c14bf         1   UNL       c14        15     0.59681       12.0110 ; qtot   -0.513
        16           o15bf         1   UNL       o15        16    -0.38813       15.9990 ; qtot   -0.901
        17           c16bf         1   UNL       c16        17     0.11385       12.0110 ; qtot   -0.787
        18           c17bf         1   UNL       c17        18    -0.08749       12.0110 ; qtot   -0.875
        19           c18bf         1   UNL       c18        19    -0.16749       12.0110 ; qtot   -1.042
        20           c19bf         1   UNL       c19        20     0.70937       12.0110 ; qtot   -0.333
        21           f20bf         1   UNL       f20        21    -0.22905       18.9980 ; qtot   -0.562
        22           f21bf         1   UNL       f21        22    -0.22905       18.9980 ; qtot   -0.791
        23           f22bf         1   UNL       f22        23    -0.22905       18.9980 ; qtot   -1.020
        24           c23bf         1   UNL       c23        24    -0.09679       12.0110 ; qtot   -1.117
        25           c24bf         1   UNL       c24        25    -0.11259       12.0110 ; qtot   -1.229
        26           c25bf         1   UNL       c25        26    -0.11807       12.0110 ; qtot   -1.347
        27           n26bf         1   UNL       n26        27    -0.69921       14.0070 ; qtot   -2.047
        28           c27bf         1   UNL       c27        28     0.39652       12.0110 ; qtot   -1.650
        29           c28bf         1   UNL       c28        29    -0.24092       12.0110 ; qtot   -1.891
        30           c29bf         1   UNL       c29        30    -0.10097       12.0110 ; qtot   -1.992
        31           c30bf         1   UNL       c30        31    -0.15169       12.0110 ; qtot   -2.144
        32           c31bf         1   UNL       c31        32    -0.09074       12.0110 ; qtot   -2.235
        33           h32bf         1   UNL       h32        33     0.15345        1.0080 ; qtot   -2.081
        34           h33bf         1   UNL       h33        34     0.15297        1.0080 ; qtot   -1.928
        35           h34bf         1   UNL       h34        35     0.32276        1.0080 ; qtot   -1.605
        36           h35bf         1   UNL       h35        36     0.34303        1.0080 ; qtot   -1.262
        37           h36bf         1   UNL       h36        37     0.16649        1.0080 ; qtot   -1.096
        38           h37bf         1   UNL       h37        38     0.15186        1.0080 ; qtot   -0.944
        39           h38bf         1   UNL       h38        39     0.14308        1.0080 ; qtot   -0.801
        40           h39bf         1   UNL       h39        40     0.15133        1.0080 ; qtot   -0.650
        41           h40bf         1   UNL       h40        41     0.02625        1.0080 ; qtot   -0.623
        42           h41bf         1   UNL       h41        42     0.14569        1.0080 ; qtot   -0.478
        43           h42bf         1   UNL       h42        43     0.17117        1.0080 ; qtot   -0.306
        44           h43bf         1   UNL       h43        44     0.15297        1.0080 ; qtot   -0.153
        45           h44bf         1   UNL       h44        45     0.15346        1.0080 ; qtot   -0.000

[ bonds ]
;       ai        aj funct               r               k
         1         2     1        0.133539   307871.483447    ;  uncertainty r = 0.000080, k = 1.653884
         2         3     1        0.133539   307871.483447    ;  uncertainty r = 0.000080, k = 1.653884
         2         4     1        0.133539   307871.483447    ;  uncertainty r = 0.000080, k = 1.653884
         2         5     1        0.133871   237299.809375    ;  uncertainty r = 0.000158, k = 9.138804
         5         6     1        0.139692   320166.963184    ;  uncertainty r = 0.000034, k = 8.591882
         6         7     1        0.139176   356724.075830    ;  uncertainty r = 0.000042, k = 3.600793
         6        32     1        0.139176   356724.075830    ;  uncertainty r = 0.000042, k = 3.600793
         7         8     1        0.138974   363764.222754    ;  uncertainty r = 0.000061, k = 3.693275
         7        33     1        0.108742   335621.204590    ;  uncertainty r = 0.000038, k = 1.020980
         8         9     1        0.140147   352337.821924    ;  uncertainty r = 0.000067, k = 1.393995
         8        34     1        0.108678   335906.403027    ;  uncertainty r = 0.000034, k = 1.744909
         9        10     1        0.141380   325711.912354    ;  uncertainty r = 0.000134, k = 3.858559
         9        31     1        0.140147   352337.821924    ;  uncertainty r = 0.000067, k = 1.393995
        10        11     1        0.139710   394377.266748    ;  uncertainty r = 0.000110, k = 16.822332
        10        35     1        0.101889   423258.869189    ;  uncertainty r = 0.000036, k = 1.970075
        11        12     1        0.124145   784756.086133    ;  uncertainty r = 0.000126, k = 12.841139
        11        13     1        0.139930   382450.287500    ;  uncertainty r = 0.000140, k = 14.422871
        13        14     1        0.140096   339046.216162    ;  uncertainty r = 0.000118, k = 8.055134
        13        36     1        0.101870   417728.195264    ;  uncertainty r = 0.000093, k = 3.473106
        14        15     1        0.140110   355790.847705    ;  uncertainty r = 0.000180, k = 18.434716
        14        30     1        0.139587   350172.658105    ;  uncertainty r = 0.000051, k = 12.669227
        15        16     1        0.137456   295567.576465    ;  uncertainty r = 0.000121, k = 7.043869
        15        27     1        0.131673   342519.850391    ;  uncertainty r = 0.000195, k = 23.816176
        16        17     1        0.138532   314308.673682    ;  uncertainty r = 0.000052, k = 8.971879
        17        18     1        0.139094   353843.413281    ;  uncertainty r = 0.000040, k = 3.656161
        17        26     1        0.139222   354352.674316    ;  uncertainty r = 0.000036, k = 2.697108
        18        19     1        0.138556   347781.567480    ;  uncertainty r = 0.000101, k = 2.673954
        18        37     1        0.108679   332885.490674    ;  uncertainty r = 0.000010, k = 0.906594
        19        20     1        0.149137   215527.840332    ;  uncertainty r = 0.000061, k = 1.127544
        19        24     1        0.138974   350508.956299    ;  uncertainty r = 0.000051, k = 2.268711
        20        21     1        0.135326   286985.958545    ;  uncertainty r = 0.000042, k = 3.079748
        20        22     1        0.135326   286985.958545    ;  uncertainty r = 0.000042, k = 3.079748
        20        23     1        0.135326   286985.958545    ;  uncertainty r = 0.000042, k = 3.079748
        24        25     1        0.139480   367362.069482    ;  uncertainty r = 0.000037, k = 2.422113
        24        38     1        0.108641   332705.811572    ;  uncertainty r = 0.000020, k = 0.826440
        25        26     1        0.139275   372627.234082    ;  uncertainty r = 0.000029, k = 1.736824
        25        39     1        0.108743   333039.504980    ;  uncertainty r = 0.000015, k = 1.385174
        26        40     1        0.108795   335979.132715    ;  uncertainty r = 0.000019, k = 0.979490
        27        28     1        0.134174   386160.574121    ;  uncertainty r = 0.000069, k = 8.080806
        28        29     1        0.139039   373281.443750    ;  uncertainty r = 0.000047, k = 3.782626
        28        41     1        0.108937   336014.271777    ;  uncertainty r = 0.000016, k = 1.810751
        29        30     1        0.139560   376722.211719    ;  uncertainty r = 0.000043, k = 3.130764
        29        42     1        0.108806   337266.713770    ;  uncertainty r = 0.000012, k = 1.595174
        30        43     1        0.108477   334523.798389    ;  uncertainty r = 0.000051, k = 3.409764
        31        32     1        0.138974   363764.197217    ;  uncertainty r = 0.000061, k = 3.693278
        31        44     1        0.108678   335906.403027    ;  uncertainty r = 0.000034, k = 1.744909
        32        45     1        0.108742   335621.204590    ;  uncertainty r = 0.000038, k = 1.020980

[ angles ]
;       ai        aj        ak funct           theta             cth
         1         2         3     1      111.201614      794.200909    ;  uncertainty theta = 0.002540, k = 0.021607
         1         2         4     1      111.201614      794.200909    ;  uncertainty theta = 0.002540, k = 0.021607
         1         2         5     1      112.999496      620.113286    ;  uncertainty theta = 0.003463, k = 0.051316
         2         5         6     1      109.686707      489.488737    ;  uncertainty theta = 0.003230, k = 0.177263
         3         2         4     1      111.201614      794.200909    ;  uncertainty theta = 0.002540, k = 0.021607
         3         2         5     1      112.999496      620.113286    ;  uncertainty theta = 0.003463, k = 0.051316
         4         2         5     1      112.999496      620.113286    ;  uncertainty theta = 0.003463, k = 0.051316
         5         6         7     1      119.768417      398.217256    ;  uncertainty theta = 0.003247, k = 0.076263
         5         6        32     1      119.768417      398.217256    ;  uncertainty theta = 0.003247, k = 0.076263
         6         7         8     1      119.090454      493.062400    ;  uncertainty theta = 0.001424, k = 0.135301
         6         7        33     1      119.886696      277.859391    ;  uncertainty theta = 0.001821, k = 0.060074
         6        32        31     1      119.090454      493.062400    ;  uncertainty theta = 0.001424, k = 0.135301
         6        32        45     1      119.886696      277.859391    ;  uncertainty theta = 0.001821, k = 0.060074
         7         6        32     1      121.235474      377.040193    ;  uncertainty theta = 0.003492, k = 0.046825
         7         8         9     1      120.027649      494.325816    ;  uncertainty theta = 0.001825, k = 0.050529
         7         8        34     1      120.100098      306.417317    ;  uncertainty theta = 0.001795, k = 0.128257
         8         7        33     1      120.515823      280.477041    ;  uncertainty theta = 0.001593, k = 0.031481
         8         9        10     1      120.134911      531.646674    ;  uncertainty theta = 0.003116, k = 0.095783
         8         9        31     1      119.161659      391.352307    ;  uncertainty theta = 0.005469, k = 0.087499
         9         8        34     1      118.959000      263.509563    ;  uncertainty theta = 0.001160, k = 0.036013
         9        10        11     1      118.672729      398.749194    ;  uncertainty theta = 0.008564, k = 0.146170
         9        10        35     1      114.575943      302.679291    ;  uncertainty theta = 0.006190, k = 0.236622
         9        31        32     1      120.027649      494.325816    ;  uncertainty theta = 0.001825, k = 0.050529
         9        31        44     1      118.959000      263.509563    ;  uncertainty theta = 0.001160, k = 0.036013
        10         9        31     1      120.134911      531.646674    ;  uncertainty theta = 0.003116, k = 0.095783
        10        11        12     1      125.128220      719.646532    ;  uncertainty theta = 0.005098, k = 0.058138
        10        11        13     1      111.600075      570.961628    ;  uncertainty theta = 0.006100, k = 0.244008
        11        10        35     1      116.812332      320.715705    ;  uncertainty theta = 0.007303, k = 0.165146
        11        13        14     1      118.191467      382.545068    ;  uncertainty theta = 0.006597, k = 0.353697
        11        13        36     1      118.027504      326.505382    ;  uncertainty theta = 0.007877, k = 0.178566
        12        11        13     1      125.188744      728.667516    ;  uncertainty theta = 0.005334, k = 0.101797
        13        14        15     1      117.092575      491.278569    ;  uncertainty theta = 0.007126, k = 0.229131
        13        14        30     1      122.491959      468.987673    ;  uncertainty theta = 0.005717, k = 0.226574
        14        13        36     1      114.704041      335.957688    ;  uncertainty theta = 0.005639, k = 0.195191
        14        15        16     1      116.530540      390.693960    ;  uncertainty theta = 0.012172, k = 0.316589
        14        15        27     1      125.653397      515.566722    ;  uncertainty theta = 0.002376, k = 0.153093
        14        30        29     1      118.664589      535.632314    ;  uncertainty theta = 0.002867, k = 0.172990
        14        30        43     1      117.850075      264.486868    ;  uncertainty theta = 0.003879, k = 0.116474
        15        14        30     1      117.575417      353.893836    ;  uncertainty theta = 0.008911, k = 0.132789
        15        16        17     1      113.059975      473.447729    ;  uncertainty theta = 0.007514, k = 0.198938
        15        27        28     1      118.982071      388.605918    ;  uncertainty theta = 0.003083, k = 0.211257
        16        15        27     1      116.747131      568.431731    ;  uncertainty theta = 0.007457, k = 0.117546
        16        17        18     1      119.209549      406.140145    ;  uncertainty theta = 0.002397, k = 0.063411
        16        17        26     1      120.049278      419.740666    ;  uncertainty theta = 0.001725, k = 0.093993
        17        18        19     1      118.864952      508.527450    ;  uncertainty theta = 0.002845, k = 0.197951
        17        18        37     1      120.623009      281.233099    ;  uncertainty theta = 0.003246, k = 0.049393
        17        26        25     1      117.594139      518.928427    ;  uncertainty theta = 0.002508, k = 0.052964
        17        26        40     1      120.314964      277.616661    ;  uncertainty theta = 0.001021, k = 0.060898
        18        17        26     1      121.950890      373.168512    ;  uncertainty theta = 0.004064, k = 0.157752
        18        19        20     1      115.496521      350.324770    ;  uncertainty theta = 0.005914, k = 0.124689
        18        19        24     1      122.656799      467.566022    ;  uncertainty theta = 0.003025, k = 0.100386
        19        18        37     1      119.226295      277.135287    ;  uncertainty theta = 0.002912, k = 0.100269
        19        20        21     1      112.945602      661.607385    ;  uncertainty theta = 0.002125, k = 0.029099
        19        20        22     1      112.945602      661.607385    ;  uncertainty theta = 0.002125, k = 0.029099
        19        20        23     1      112.945602      661.607385    ;  uncertainty theta = 0.002125, k = 0.029099
        19        24        25     1      119.255554      512.146569    ;  uncertainty theta = 0.001818, k = 0.042517
        19        24        38     1      118.405869      274.175408    ;  uncertainty theta = 0.002940, k = 0.043008
        20        19        24     1      116.478043      341.375130    ;  uncertainty theta = 0.005609, k = 0.113786
        21        20        22     1      107.682266      790.161449    ;  uncertainty theta = 0.001820, k = 0.019275
        21        20        23     1      107.682266      790.161449    ;  uncertainty theta = 0.001820, k = 0.019275
        22        20        23     1      107.682266      790.161449    ;  uncertainty theta = 0.001820, k = 0.019275
        24        25        26     1      120.533386      511.752021    ;  uncertainty theta = 0.002153, k = 0.049486
        24        25        39     1      119.962425      281.972813    ;  uncertainty theta = 0.000658, k = 0.030297
        25        24        38     1      120.654930      286.912935    ;  uncertainty theta = 0.002806, k = 0.061171
        25        26        40     1      121.377441      292.172686    ;  uncertainty theta = 0.001338, k = 0.032523
        26        25        39     1      119.824585      284.259310    ;  uncertainty theta = 0.001720, k = 0.029816
        27        28        29     1      122.018677      680.497696    ;  uncertainty theta = 0.002657, k = 0.057695
        27        28        41     1      116.528870      326.284614    ;  uncertainty theta = 0.003532, k = 0.089660
        28        29        30     1      116.662033      486.639338    ;  uncertainty theta = 0.002659, k = 0.164042
        28        29        42     1      121.531288      284.776501    ;  uncertainty theta = 0.000829, k = 0.071895
        29        28        41     1      121.479820      279.479466    ;  uncertainty theta = 0.001106, k = 0.075570
        29        30        43     1      121.491959      306.835200    ;  uncertainty theta = 0.004314, k = 0.137900
        30        29        42     1      121.692772      278.904306    ;  uncertainty theta = 0.003629, k = 0.116071
        31        32        45     1      120.515823      280.477073    ;  uncertainty theta = 0.001593, k = 0.031481
        32        31        44     1      120.100082      306.417349    ;  uncertainty theta = 0.001795, k = 0.128257

[ dihedrals ] ; propers for gromacs 4.5 or higher, use funct 9
;       ai        aj        ak        al funct           phase               k        pn
         1         2         5         6     9        0.000000       -1.946027         1    ;  uncertainty k = 0.877382
         1         2         5         6     9      180.000000        4.955000         2    ;  uncertainty k = 0.141140
         1         2         5         6     9        0.000000        1.296835         3    ;  uncertainty k = 0.108026
         1         2         5         6     9      180.000000        0.165645         4    ;  uncertainty k = 0.067453
         2         5         6         7     9        0.000000        2.278066         1    ;  uncertainty k = 0.541899
         2         5         6         7     9      180.000000        3.585266         2    ;  uncertainty k = 0.144684
         2         5         6         7     9        0.000000        0.717948         3    ;  uncertainty k = 0.180308
         2         5         6         7     9      180.000000       -0.086401         4    ;  uncertainty k = 0.081449
         2         5         6        32     9        0.000000        2.278066         1    ;  uncertainty k = 0.541899
         2         5         6        32     9      180.000000        3.585266         2    ;  uncertainty k = 0.144684
         2         5         6        32     9        0.000000        0.717948         3    ;  uncertainty k = 0.180308
         2         5         6        32     9      180.000000       -0.086401         4    ;  uncertainty k = 0.081449
         3         2         5         6     9        0.000000       -1.946027         1    ;  uncertainty k = 0.877382
         3         2         5         6     9      180.000000        4.955000         2    ;  uncertainty k = 0.141140
         3         2         5         6     9        0.000000        1.296835         3    ;  uncertainty k = 0.108026
         3         2         5         6     9      180.000000        0.165645         4    ;  uncertainty k = 0.067453
         4         2         5         6     9        0.000000       -1.946027         1    ;  uncertainty k = 0.877382
         4         2         5         6     9      180.000000        4.955000         2    ;  uncertainty k = 0.141140
         4         2         5         6     9        0.000000        1.296835         3    ;  uncertainty k = 0.108026
         4         2         5         6     9      180.000000        0.165645         4    ;  uncertainty k = 0.067453
         5         6         7         8     9        0.000000       -0.149684         1    ;  uncertainty k = 0.271400
         5         6         7         8     9      180.000000       11.051030         2    ;  uncertainty k = 0.265238
         5         6         7         8     9        0.000000        1.291069         3    ;  uncertainty k = 0.181231
         5         6         7         8     9      180.000000        1.559267         4    ;  uncertainty k = 0.139910
         5         6         7        33     9        0.000000       -0.239894         1    ;  uncertainty k = 0.288584
         5         6         7        33     9      180.000000        8.074963         2    ;  uncertainty k = 0.237869
         5         6         7        33     9        0.000000        0.871400         3    ;  uncertainty k = 0.240485
         5         6         7        33     9      180.000000        1.062865         4    ;  uncertainty k = 0.215068
         5         6        32        31     9        0.000000       -0.149684         1    ;  uncertainty k = 0.271400
         5         6        32        31     9      180.000000       11.051030         2    ;  uncertainty k = 0.265238
         5         6        32        31     9        0.000000        1.291069         3    ;  uncertainty k = 0.181231
         5         6        32        31     9      180.000000        1.559267         4    ;  uncertainty k = 0.139910
         5         6        32        45     9        0.000000       -0.239894         1    ;  uncertainty k = 0.288584
         5         6        32        45     9      180.000000        8.074963         2    ;  uncertainty k = 0.237869
         5         6        32        45     9        0.000000        0.871400         3    ;  uncertainty k = 0.240485
         5         6        32        45     9      180.000000        1.062865         4    ;  uncertainty k = 0.215068
         6         7         8         9     9        0.000000       -0.252965         1    ;  uncertainty k = 0.238205
         6         7         8         9     9      180.000000       13.683294         2    ;  uncertainty k = 0.223566
         6         7         8         9     9        0.000000       -0.640378         3    ;  uncertainty k = 0.398573
         6         7         8         9     9      180.000000        0.957610         4    ;  uncertainty k = 0.179571
         6         7         8        34     9        0.000000       -0.042498         1    ;  uncertainty k = 0.253420
         6         7         8        34     9      180.000000        8.244681         2    ;  uncertainty k = 0.302622
         6         7         8        34     9        0.000000        1.345731         3    ;  uncertainty k = 0.188908
         6         7         8        34     9      180.000000        1.817905         4    ;  uncertainty k = 0.164763
         6        32        31         9     9        0.000000       -0.252965         1    ;  uncertainty k = 0.238205
         6        32        31         9     9      180.000000       13.683294         2    ;  uncertainty k = 0.223566
         6        32        31         9     9        0.000000       -0.640378         3    ;  uncertainty k = 0.398573
         6        32        31         9     9      180.000000        0.957610         4    ;  uncertainty k = 0.179571
         6        32        31        44     9        0.000000       -0.042498         1    ;  uncertainty k = 0.253420
         6        32        31        44     9      180.000000        8.244681         2    ;  uncertainty k = 0.302622
         6        32        31        44     9        0.000000        1.345731         3    ;  uncertainty k = 0.188908
         6        32        31        44     9      180.000000        1.817905         4    ;  uncertainty k = 0.164763
         7         6        32        31     9        0.000000       -0.230587         1    ;  uncertainty k = 0.130839
         7         6        32        31     9      180.000000       10.341083         2    ;  uncertainty k = 0.369814
         7         6        32        31     9        0.000000       -0.406875         3    ;  uncertainty k = 0.339782
         7         6        32        31     9      180.000000        1.026082         4    ;  uncertainty k = 0.339419
         7         6        32        45     9        0.000000        0.109480         1    ;  uncertainty k = 0.316025
         7         6        32        45     9      180.000000        6.017946         2    ;  uncertainty k = 0.692810
         7         6        32        45     9        0.000000        1.333810         3    ;  uncertainty k = 0.445710
         7         6        32        45     9      180.000000        1.537059         4    ;  uncertainty k = 0.184711
         7         8         9        10     9        0.000000        0.039185         1    ;  uncertainty k = 0.383845
         7         8         9        10     9      180.000000       10.393753         2    ;  uncertainty k = 0.556386
         7         8         9        10     9        0.000000        1.166678         3    ;  uncertainty k = 0.522687
         7         8         9        10     9      180.000000        1.635756         4    ;  uncertainty k = 0.197592
         7         8         9        31     9        0.000000       -0.189250         1    ;  uncertainty k = 0.224334
         7         8         9        31     9      180.000000        9.662966         2    ;  uncertainty k = 0.287264
         7         8         9        31     9        0.000000       -0.124066         3    ;  uncertainty k = 0.145091
         7         8         9        31     9      180.000000        1.157894         4    ;  uncertainty k = 0.221911
         8         7         6        32     9        0.000000       -0.230587         1    ;  uncertainty k = 0.130839
         8         7         6        32     9      180.000000       10.341083         2    ;  uncertainty k = 0.369814
         8         7         6        32     9        0.000000       -0.406875         3    ;  uncertainty k = 0.339782
         8         7         6        32     9      180.000000        1.026082         4    ;  uncertainty k = 0.339419
         8         9        10        11     9        0.000000        1.457135         1    ;  uncertainty k = 0.464234
         8         9        10        11     9      180.000000        3.958120         2    ;  uncertainty k = 0.176592
         8         9        10        11     9        0.000000        0.951413         3    ;  uncertainty k = 0.206855
         8         9        10        11     9      180.000000        0.364280         4    ;  uncertainty k = 0.071372
         8         9        10        35     9        0.000000        0.609454         1    ;  uncertainty k = 0.768027
         8         9        10        35     9      180.000000        3.184666         2    ;  uncertainty k = 0.120824
         8         9        10        35     9        0.000000        0.648685         3    ;  uncertainty k = 0.086545
         8         9        10        35     9      180.000000        0.251451         4    ;  uncertainty k = 0.049693
         8         9        31        32     9        0.000000       -0.189250         1    ;  uncertainty k = 0.224334
         8         9        31        32     9      180.000000        9.662966         2    ;  uncertainty k = 0.287264
         8         9        31        32     9        0.000000       -0.124066         3    ;  uncertainty k = 0.145091
         8         9        31        32     9      180.000000        1.157894         4    ;  uncertainty k = 0.221911
         8         9        31        44     9        0.000000        0.038247         1    ;  uncertainty k = 0.334797
         8         9        31        44     9      180.000000        6.543790         2    ;  uncertainty k = 0.541573
         8         9        31        44     9        0.000000        1.252640         3    ;  uncertainty k = 0.315042
         8         9        31        44     9      180.000000        1.473359         4    ;  uncertainty k = 0.140433
         9         8         7        33     9        0.000000        0.015842         1    ;  uncertainty k = 0.254246
         9         8         7        33     9      180.000000        8.470058         2    ;  uncertainty k = 0.490196
         9         8         7        33     9        0.000000        1.311983         3    ;  uncertainty k = 0.324190
         9         8         7        33     9      180.000000        1.694071         4    ;  uncertainty k = 0.128597
         9        10        11        12     9        0.000000        6.022625         1    ;  uncertainty k = 1.069868
         9        10        11        12     9      180.000000        9.956713         2    ;  uncertainty k = 0.367713
         9        10        11        12     9        0.000000        1.187155         3    ;  uncertainty k = 0.191221
         9        10        11        12     9      180.000000       -0.574363         4    ;  uncertainty k = 0.192461
         9        10        11        13     9        0.000000        6.798816         1    ;  uncertainty k = 0.760275
         9        10        11        13     9      180.000000        5.993577         2    ;  uncertainty k = 0.782656
         9        10        11        13     9        0.000000        0.553219         3    ;  uncertainty k = 0.300774
         9        10        11        13     9      180.000000       -0.104414         4    ;  uncertainty k = 0.248766
         9        31        32        45     9        0.000000        0.015842         1    ;  uncertainty k = 0.254246
         9        31        32        45     9      180.000000        8.470058         2    ;  uncertainty k = 0.490196
         9        31        32        45     9        0.000000        1.311983         3    ;  uncertainty k = 0.324190
         9        31        32        45     9      180.000000        1.694071         4    ;  uncertainty k = 0.128597
        10         9         8        34     9        0.000000       -0.090315         1    ;  uncertainty k = 0.136440
        10         9         8        34     9      180.000000        8.184509         2    ;  uncertainty k = 0.418187
        10         9         8        34     9        0.000000        0.758970         3    ;  uncertainty k = 0.236267
        10         9         8        34     9      180.000000        1.167755         4    ;  uncertainty k = 0.199609
        10         9        31        32     9        0.000000        0.039185         1    ;  uncertainty k = 0.383845
        10         9        31        32     9      180.000000       10.393753         2    ;  uncertainty k = 0.556386
        10         9        31        32     9        0.000000        1.166678         3    ;  uncertainty k = 0.522687
        10         9        31        32     9      180.000000        1.635756         4    ;  uncertainty k = 0.197592
        10         9        31        44     9        0.000000       -0.090315         1    ;  uncertainty k = 0.136440
        10         9        31        44     9      180.000000        8.184509         2    ;  uncertainty k = 0.418187
        10         9        31        44     9        0.000000        0.758970         3    ;  uncertainty k = 0.236267
        10         9        31        44     9      180.000000        1.167755         4    ;  uncertainty k = 0.199609
        10        11        13        14     9        0.000000        8.097410         1    ;  uncertainty k = 0.965586
        10        11        13        14     9      180.000000        6.079947         2    ;  uncertainty k = 0.980609
        10        11        13        14     9        0.000000        0.638674         3    ;  uncertainty k = 0.171913
        10        11        13        14     9      180.000000       -0.161954         4    ;  uncertainty k = 0.445618
        10        11        13        36     9        0.000000        3.140676         1    ;  uncertainty k = 0.997163
        10        11        13        36     9      180.000000        4.606961         2    ;  uncertainty k = 1.129894
        10        11        13        36     9        0.000000        0.781753         3    ;  uncertainty k = 0.203637
        10        11        13        36     9      180.000000       -0.387107         4    ;  uncertainty k = 0.270300
        11        10         9        31     9        0.000000        1.457135         1    ;  uncertainty k = 0.464234
        11        10         9        31     9      180.000000        3.958120         2    ;  uncertainty k = 0.176592
        11        10         9        31     9        0.000000        0.951413         3    ;  uncertainty k = 0.206855
        11        10         9        31     9      180.000000        0.364280         4    ;  uncertainty k = 0.071372
        11        13        14        15     9        0.000000        1.826178         1    ;  uncertainty k = 1.230613
        11        13        14        15     9      180.000000        3.914690         2    ;  uncertainty k = 0.505910
        11        13        14        15     9        0.000000        0.267512         3    ;  uncertainty k = 0.197085
        11        13        14        15     9      180.000000       -0.000673         4    ;  uncertainty k = 0.064722
        11        13        14        30     9        0.000000        1.590482         1    ;  uncertainty k = 1.223146
        11        13        14        30     9      180.000000        3.933824         2    ;  uncertainty k = 0.529571
        11        13        14        30     9        0.000000        0.641748         3    ;  uncertainty k = 0.289819
        11        13        14        30     9      180.000000        0.355266         4    ;  uncertainty k = 0.131762
        12        11        10        35     9        0.000000        0.944311         1    ;  uncertainty k = 0.481747
        12        11        10        35     9      180.000000        9.631720         2    ;  uncertainty k = 0.218444
        12        11        10        35     9        0.000000        2.134539         3    ;  uncertainty k = 0.211372
        12        11        10        35     9      180.000000       -0.270740         4    ;  uncertainty k = 0.205350
        12        11        13        14     9        0.000000        6.946396         1    ;  uncertainty k = 0.908899
        12        11        13        14     9      180.000000        9.319620         2    ;  uncertainty k = 0.343354
        12        11        13        14     9        0.000000        1.327876         3    ;  uncertainty k = 0.355434
        12        11        13        14     9      180.000000       -0.511188         4    ;  uncertainty k = 0.273827
        12        11        13        36     9        0.000000        0.648440         1    ;  uncertainty k = 0.303764
        12        11        13        36     9      180.000000        8.524098         2    ;  uncertainty k = 0.415172
        12        11        13        36     9        0.000000        1.856515         3    ;  uncertainty k = 0.251832
        12        11        13        36     9      180.000000       -0.422622         4    ;  uncertainty k = 0.241464
        13        11        10        35     9        0.000000        2.784094         1    ;  uncertainty k = 0.996554
        13        11        10        35     9      180.000000        4.681547         2    ;  uncertainty k = 1.140007
        13        11        10        35     9        0.000000        0.937857         3    ;  uncertainty k = 0.238446
        13        11        10        35     9      180.000000       -0.387399         4    ;  uncertainty k = 0.267785
        13        14        15        16     9        0.000000        0.265513         1    ;  uncertainty k = 0.638101
        13        14        15        16     9      180.000000        8.312027         2    ;  uncertainty k = 0.483820
        13        14        15        16     9        0.000000        0.783388         3    ;  uncertainty k = 0.198631
        13        14        15        16     9      180.000000        1.337313         4    ;  uncertainty k = 0.293172
        13        14        15        27     9        0.000000        0.353474         1    ;  uncertainty k = 0.449760
        13        14        15        27     9      180.000000        6.335181         2    ;  uncertainty k = 0.770062
        13        14        15        27     9        0.000000        0.762700         3    ;  uncertainty k = 0.328523
        13        14        15        27     9      180.000000        1.504660         4    ;  uncertainty k = 0.296384
        13        14        30        29     9        0.000000       -0.104134         1    ;  uncertainty k = 0.141360
        13        14        30        29     9      180.000000       11.628689         2    ;  uncertainty k = 0.794318
        13        14        30        29     9        0.000000        1.107582         3    ;  uncertainty k = 0.487862
        13        14        30        29     9      180.000000        1.611587         4    ;  uncertainty k = 0.361445
        13        14        30        43     9        0.000000       -0.339226         1    ;  uncertainty k = 0.473729
        13        14        30        43     9      180.000000        8.956188         2    ;  uncertainty k = 0.817388
        13        14        30        43     9        0.000000        0.715306         3    ;  uncertainty k = 0.150871
        13        14        30        43     9      180.000000        1.268139         4    ;  uncertainty k = 0.406221
        14        15        16        17     9        0.000000        5.742982         1    ;  uncertainty k = 0.996505
        14        15        16        17     9      180.000000        3.878653         2    ;  uncertainty k = 0.444863
        14        15        16        17     9        0.000000        0.580855         3    ;  uncertainty k = 0.248381
        14        15        16        17     9      180.000000        0.086291         4    ;  uncertainty k = 0.156289
        14        15        27        28     9        0.000000        0.676654         1    ;  uncertainty k = 0.481269
        14        15        27        28     9      180.000000       12.337756         2    ;  uncertainty k = 0.384550
        14        15        27        28     9        0.000000        1.799559         3    ;  uncertainty k = 0.431189
        14        15        27        28     9      180.000000        1.358998         4    ;  uncertainty k = 0.224517
        14        30        29        28     9        0.000000       -0.219717         1    ;  uncertainty k = 0.258711
        14        30        29        28     9      180.000000       13.489343         2    ;  uncertainty k = 0.300398
        14        30        29        28     9        0.000000       -1.177534         3    ;  uncertainty k = 0.825067
        14        30        29        28     9      180.000000        0.747942         4    ;  uncertainty k = 0.391509
        14        30        29        42     9        0.000000        0.313279         1    ;  uncertainty k = 0.255485
        14        30        29        42     9      180.000000        7.639764         2    ;  uncertainty k = 0.597194
        14        30        29        42     9        0.000000        1.394864         3    ;  uncertainty k = 0.301687
        14        30        29        42     9      180.000000        1.632044         4    ;  uncertainty k = 0.213681
        15        14        13        36     9        0.000000        1.809919         1    ;  uncertainty k = 1.049578
        15        14        13        36     9      180.000000        2.184103         2    ;  uncertainty k = 0.856980
        15        14        13        36     9        0.000000       -0.055926         3    ;  uncertainty k = 0.368395
        15        14        13        36     9      180.000000       -0.094869         4    ;  uncertainty k = 0.135654
        15        14        30        29     9        0.000000       -0.045324         1    ;  uncertainty k = 0.346307
        15        14        30        29     9      180.000000        9.675692         2    ;  uncertainty k = 0.563612
        15        14        30        29     9        0.000000        0.089574         3    ;  uncertainty k = 0.421919
        15        14        30        29     9      180.000000        1.428809         4    ;  uncertainty k = 0.224622
        15        14        30        43     9        0.000000       -0.056218         1    ;  uncertainty k = 0.336146
        15        14        30        43     9      180.000000        7.154486         2    ;  uncertainty k = 0.386951
        15        14        30        43     9        0.000000        1.228551         3    ;  uncertainty k = 0.135670
        15        14        30        43     9      180.000000        1.474946         4    ;  uncertainty k = 0.079159
        15        16        17        18     9        0.000000        4.111153         1    ;  uncertainty k = 0.463348
        15        16        17        18     9      180.000000        5.444235         2    ;  uncertainty k = 0.180214
        15        16        17        18     9        0.000000        0.337321         3    ;  uncertainty k = 0.385525
        15        16        17        18     9      180.000000        0.284107         4    ;  uncertainty k = 0.144689
        15        16        17        26     9        0.000000        4.031478         1    ;  uncertainty k = 0.324367
        15        16        17        26     9      180.000000        5.326864         2    ;  uncertainty k = 0.098304
        15        16        17        26     9        0.000000        0.404902         3    ;  uncertainty k = 0.412078
        15        16        17        26     9      180.000000        0.296999         4    ;  uncertainty k = 0.116646
        15        27        28        29     9        0.000000       -0.133462         1    ;  uncertainty k = 0.695196
        15        27        28        29     9      180.000000       15.215297         2    ;  uncertainty k = 0.215444
        15        27        28        29     9        0.000000        0.737113         3    ;  uncertainty k = 0.573056
        15        27        28        29     9      180.000000        1.291837         4    ;  uncertainty k = 0.321443
        15        27        28        41     9        0.000000        0.068263         1    ;  uncertainty k = 0.501141
        15        27        28        41     9      180.000000       15.223381         2    ;  uncertainty k = 0.588647
        15        27        28        41     9        0.000000        2.120235         3    ;  uncertainty k = 0.703419
        15        27        28        41     9      180.000000        1.291633         4    ;  uncertainty k = 0.573906
        16        15        14        30     9        0.000000        0.758628         1    ;  uncertainty k = 0.302974
        16        15        14        30     9      180.000000        5.954667         2    ;  uncertainty k = 0.582835
        16        15        14        30     9        0.000000        0.897889         3    ;  uncertainty k = 0.157549
        16        15        14        30     9      180.000000        1.407331         4    ;  uncertainty k = 0.461766
        16        15        27        28     9        0.000000        0.645014         1    ;  uncertainty k = 1.001765
        16        15        27        28     9      180.000000       16.604500         2    ;  uncertainty k = 0.284032
        16        15        27        28     9        0.000000        2.791706         3    ;  uncertainty k = 0.527017
        16        15        27        28     9      180.000000        1.944515         4    ;  uncertainty k = 0.152085
        16        17        18        19     9        0.000000       -0.054166         1    ;  uncertainty k = 0.319745
        16        17        18        19     9      180.000000       11.162460         2    ;  uncertainty k = 0.228187
        16        17        18        19     9        0.000000        1.352213         3    ;  uncertainty k = 0.202966
        16        17        18        19     9      180.000000        1.594604         4    ;  uncertainty k = 0.163375
        16        17        18        37     9        0.000000        0.246878         1    ;  uncertainty k = 0.126179
        16        17        18        37     9      180.000000        8.724117         2    ;  uncertainty k = 0.255701
        16        17        18        37     9        0.000000        0.898640         3    ;  uncertainty k = 0.304407
        16        17        18        37     9      180.000000        1.116873         4    ;  uncertainty k = 0.210214
        16        17        26        25     9        0.000000       -0.042015         1    ;  uncertainty k = 0.399401
        16        17        26        25     9      180.000000       11.193089         2    ;  uncertainty k = 0.404423
        16        17        26        25     9        0.000000        1.305480         3    ;  uncertainty k = 0.216137
        16        17        26        25     9      180.000000        1.621828         4    ;  uncertainty k = 0.141002
        16        17        26        40     9        0.000000        0.072912         1    ;  uncertainty k = 0.103915
        16        17        26        40     9      180.000000        8.608526         2    ;  uncertainty k = 0.251063
        16        17        26        40     9        0.000000        0.860920         3    ;  uncertainty k = 0.274177
        16        17        26        40     9      180.000000        1.057134         4    ;  uncertainty k = 0.175952
        17        16        15        27     9        0.000000        2.095893         1    ;  uncertainty k = 1.084880
        17        16        15        27     9      180.000000        6.456938         2    ;  uncertainty k = 0.121607
        17        16        15        27     9        0.000000        0.082868         3    ;  uncertainty k = 0.422005
        17        16        15        27     9      180.000000        0.151585         4    ;  uncertainty k = 0.120974
        17        18        19        20     9        0.000000        0.137530         1    ;  uncertainty k = 0.382295
        17        18        19        20     9      180.000000       10.226747         2    ;  uncertainty k = 0.659410
        17        18        19        20     9        0.000000        1.461318         3    ;  uncertainty k = 0.335069
        17        18        19        20     9      180.000000        1.764611         4    ;  uncertainty k = 0.220745
        17        18        19        24     9        0.000000       -0.251339         1    ;  uncertainty k = 0.225812
        17        18        19        24     9      180.000000       11.882309         2    ;  uncertainty k = 0.212881
        17        18        19        24     9        0.000000       -0.431963         3    ;  uncertainty k = 0.492563
        17        18        19        24     9      180.000000        0.966872         4    ;  uncertainty k = 0.329892
        17        26        25        24     9        0.000000       -0.274443         1    ;  uncertainty k = 0.209993
        17        26        25        24     9      180.000000       14.193547         2    ;  uncertainty k = 0.243702
        17        26        25        24     9        0.000000       -0.825857         3    ;  uncertainty k = 0.472075
        17        26        25        24     9      180.000000        0.811988         4    ;  uncertainty k = 0.227337
        17        26        25        39     9        0.000000        0.030124         1    ;  uncertainty k = 0.066196
        17        26        25        39     9      180.000000        7.830210         2    ;  uncertainty k = 0.232717
        17        26        25        39     9        0.000000        1.358974         3    ;  uncertainty k = 0.159620
        17        26        25        39     9      180.000000        1.757686         4    ;  uncertainty k = 0.144431
        18        17        26        25     9        0.000000       -0.003467         1    ;  uncertainty k = 0.080228
        18        17        26        25     9      180.000000       10.021364         2    ;  uncertainty k = 0.550002
        18        17        26        25     9        0.000000       -0.157712         3    ;  uncertainty k = 0.411351
        18        17        26        25     9      180.000000        1.116828         4    ;  uncertainty k = 0.409267
        18        17        26        40     9        0.000000        0.278178         1    ;  uncertainty k = 0.157173
        18        17        26        40     9      180.000000        6.395045         2    ;  uncertainty k = 0.731884
        18        17        26        40     9        0.000000        1.387906         3    ;  uncertainty k = 0.416133
        18        17        26        40     9      180.000000        1.593558         4    ;  uncertainty k = 0.202098
        18        19        20        21     9        0.000000       -0.828907         1    ;  uncertainty k = 0.452622
        18        19        20        21     9      180.000000        2.803200         2    ;  uncertainty k = 0.128772
        18        19        20        21     9        0.000000        0.701501         3    ;  uncertainty k = 0.032688
        18        19        20        21     9      180.000000        0.136337         4    ;  uncertainty k = 0.047427
        18        19        20        22     9        0.000000       -0.828907         1    ;  uncertainty k = 0.452622
        18        19        20        22     9      180.000000        2.803200         2    ;  uncertainty k = 0.128772
        18        19        20        22     9        0.000000        0.701501         3    ;  uncertainty k = 0.032688
        18        19        20        22     9      180.000000        0.136337         4    ;  uncertainty k = 0.047427
        18        19        20        23     9        0.000000       -0.828907         1    ;  uncertainty k = 0.452622
        18        19        20        23     9      180.000000        2.803200         2    ;  uncertainty k = 0.128772
        18        19        20        23     9        0.000000        0.701501         3    ;  uncertainty k = 0.032688
        18        19        20        23     9      180.000000        0.136337         4    ;  uncertainty k = 0.047427
        18        19        24        25     9        0.000000       -0.238116         1    ;  uncertainty k = 0.209093
        18        19        24        25     9      180.000000       12.299164         2    ;  uncertainty k = 0.499372
        18        19        24        25     9        0.000000       -0.649051         3    ;  uncertainty k = 0.413941
        18        19        24        25     9      180.000000        0.809773         4    ;  uncertainty k = 0.356024
        18        19        24        38     9        0.000000        0.220952         1    ;  uncertainty k = 0.223730
        18        19        24        38     9      180.000000        7.534679         2    ;  uncertainty k = 0.440509
        18        19        24        38     9        0.000000        1.373084         3    ;  uncertainty k = 0.455762
        18        19        24        38     9      180.000000        1.631125         4    ;  uncertainty k = 0.232510
        19        18        17        26     9        0.000000       -0.062398         1    ;  uncertainty k = 0.292331
        19        18        17        26     9      180.000000        9.245553         2    ;  uncertainty k = 0.592081
        19        18        17        26     9        0.000000       -0.008936         3    ;  uncertainty k = 0.582499
        19        18        17        26     9      180.000000        1.177935         4    ;  uncertainty k = 0.484619
        19        24        25        26     9        0.000000       -0.243850         1    ;  uncertainty k = 0.189763
        19        24        25        26     9      180.000000       13.673829         2    ;  uncertainty k = 0.341799
        19        24        25        26     9        0.000000       -0.849479         3    ;  uncertainty k = 0.421712
        19        24        25        26     9      180.000000        0.713106         4    ;  uncertainty k = 0.296868
        19        24        25        39     9        0.000000        0.068788         1    ;  uncertainty k = 0.266778
        19        24        25        39     9      180.000000        7.561180         2    ;  uncertainty k = 0.317046
        19        24        25        39     9        0.000000        1.473540         3    ;  uncertainty k = 0.220229
        19        24        25        39     9      180.000000        1.732188         4    ;  uncertainty k = 0.159060
        20        19        18        37     9        0.000000        0.263433         1    ;  uncertainty k = 0.414604
        20        19        18        37     9      180.000000        8.781868         2    ;  uncertainty k = 0.304602
        20        19        18        37     9        0.000000        0.696019         3    ;  uncertainty k = 0.144996
        20        19        18        37     9      180.000000        1.087930         4    ;  uncertainty k = 0.155232
        20        19        24        25     9        0.000000        0.078885         1    ;  uncertainty k = 0.186673
        20        19        24        25     9      180.000000       10.351753         2    ;  uncertainty k = 0.778178
        20        19        24        25     9        0.000000        1.523036         3    ;  uncertainty k = 0.299974
        20        19        24        25     9      180.000000        1.886244         4    ;  uncertainty k = 0.383052
        20        19        24        38     9        0.000000        0.018304         1    ;  uncertainty k = 0.362064
        20        19        24        38     9      180.000000        8.851526         2    ;  uncertainty k = 0.560934
        20        19        24        38     9        0.000000        0.689709         3    ;  uncertainty k = 0.261465
        20        19        24        38     9      180.000000        1.019568         4    ;  uncertainty k = 0.221458
        21        20        19        24     9        0.000000       -0.823211         1    ;  uncertainty k = 0.470326
        21        20        19        24     9      180.000000        2.802694         2    ;  uncertainty k = 0.082905
        21        20        19        24     9        0.000000        0.688763         3    ;  uncertainty k = 0.058349
        21        20        19        24     9      180.000000        0.135610         4    ;  uncertainty k = 0.041085
        22        20        19        24     9        0.000000       -0.823211         1    ;  uncertainty k = 0.470326
        22        20        19        24     9      180.000000        2.802694         2    ;  uncertainty k = 0.082905
        22        20        19        24     9        0.000000        0.688763         3    ;  uncertainty k = 0.058349
        22        20        19        24     9      180.000000        0.135610         4    ;  uncertainty k = 0.041085
        23        20        19        24     9        0.000000       -0.823211         1    ;  uncertainty k = 0.470326
        23        20        19        24     9      180.000000        2.802694         2    ;  uncertainty k = 0.082905
        23        20        19        24     9        0.000000        0.688763         3    ;  uncertainty k = 0.058349
        23        20        19        24     9      180.000000        0.135610         4    ;  uncertainty k = 0.041085
        24        19        18        37     9        0.000000        0.268151         1    ;  uncertainty k = 0.190039
        24        19        18        37     9      180.000000        7.491648         2    ;  uncertainty k = 0.392990
        24        19        18        37     9        0.000000        1.431311         3    ;  uncertainty k = 0.350124
        24        19        18        37     9      180.000000        1.713380         4    ;  uncertainty k = 0.259229
        24        25        26        40     9        0.000000        0.088447         1    ;  uncertainty k = 0.118077
        24        25        26        40     9      180.000000        7.757902         2    ;  uncertainty k = 0.350508
        24        25        26        40     9        0.000000        1.478620         3    ;  uncertainty k = 0.245127
        24        25        26        40     9      180.000000        1.826841         4    ;  uncertainty k = 0.156239
        26        17        18        37     9        0.000000        0.352482         1    ;  uncertainty k = 0.339484
        26        17        18        37     9      180.000000        6.361092         2    ;  uncertainty k = 0.726341
        26        17        18        37     9        0.000000        1.436523         3    ;  uncertainty k = 0.297366
        26        17        18        37     9      180.000000        1.632782         4    ;  uncertainty k = 0.226382
        26        25        24        38     9        0.000000        0.045855         1    ;  uncertainty k = 0.139452
        26        25        24        38     9      180.000000        7.634182         2    ;  uncertainty k = 0.325719
        26        25        24        38     9        0.000000        1.429701         3    ;  uncertainty k = 0.294024
        26        25        24        38     9      180.000000        1.813094         4    ;  uncertainty k = 0.105599
        27        15        14        30     9        0.000000       -0.006292         1    ;  uncertainty k = 0.585644
        27        15        14        30     9      180.000000        5.409164         2    ;  uncertainty k = 1.404242
        27        15        14        30     9        0.000000       -0.113620         3    ;  uncertainty k = 0.195163
        27        15        14        30     9      180.000000        1.221279         4    ;  uncertainty k = 0.563245
        27        28        29        30     9        0.000000        0.122912         1    ;  uncertainty k = 0.377650
        27        28        29        30     9      180.000000       16.205381         2    ;  uncertainty k = 0.253453
        27        28        29        30     9        0.000000       -1.374142         3    ;  uncertainty k = 0.567401
        27        28        29        30     9      180.000000        0.764888         4    ;  uncertainty k = 0.233191
        27        28        29        42     9        0.000000        0.109573         1    ;  uncertainty k = 0.140059
        27        28        29        42     9      180.000000       10.004729         2    ;  uncertainty k = 0.564195
        27        28        29        42     9        0.000000        0.906338         3    ;  uncertainty k = 0.280019
        27        28        29        42     9      180.000000        1.603453         4    ;  uncertainty k = 0.128880
        28        29        30        43     9        0.000000       -0.096931         1    ;  uncertainty k = 0.224660
        28        29        30        43     9      180.000000        7.599745         2    ;  uncertainty k = 0.300022
        28        29        30        43     9        0.000000        1.345913         3    ;  uncertainty k = 0.259017
        28        29        30        43     9      180.000000        1.606126         4    ;  uncertainty k = 0.220857
        30        14        13        36     9        0.000000        0.848167         1    ;  uncertainty k = 0.508402
        30        14        13        36     9      180.000000        2.941024         2    ;  uncertainty k = 0.300123
        30        14        13        36     9        0.000000        0.417155         3    ;  uncertainty k = 0.206640
        30        14        13        36     9      180.000000        0.143213         4    ;  uncertainty k = 0.162479
        30        29        28        41     9        0.000000       -0.129492         1    ;  uncertainty k = 0.287891
        30        29        28        41     9      180.000000        6.663214         2    ;  uncertainty k = 0.558015
        30        29        28        41     9        0.000000        1.279160         3    ;  uncertainty k = 0.228439
        30        29        28        41     9      180.000000        1.542370         4    ;  uncertainty k = 0.207679
        31         9         8        34     9        0.000000        0.038247         1    ;  uncertainty k = 0.334797
        31         9         8        34     9      180.000000        6.543790         2    ;  uncertainty k = 0.541573
        31         9         8        34     9        0.000000        1.252640         3    ;  uncertainty k = 0.315042
        31         9         8        34     9      180.000000        1.473359         4    ;  uncertainty k = 0.140433
        31         9        10        35     9        0.000000        0.609454         1    ;  uncertainty k = 0.768027
        31         9        10        35     9      180.000000        3.184666         2    ;  uncertainty k = 0.120824
        31         9        10        35     9        0.000000        0.648685         3    ;  uncertainty k = 0.086545
        31         9        10        35     9      180.000000        0.251451         4    ;  uncertainty k = 0.049693
        32         6         7        33     9        0.000000        0.109480         1    ;  uncertainty k = 0.316025
        32         6         7        33     9      180.000000        6.017946         2    ;  uncertainty k = 0.692810
        32         6         7        33     9        0.000000        1.333810         3    ;  uncertainty k = 0.445710
        32         6         7        33     9      180.000000        1.537059         4    ;  uncertainty k = 0.184711
        33         7         8        34     9        0.000000       -0.099964         1    ;  uncertainty k = 0.341452
        33         7         8        34     9      180.000000        7.892935         2    ;  uncertainty k = 0.331229
        33         7         8        34     9        0.000000       -0.372593         3    ;  uncertainty k = 0.304987
        33         7         8        34     9      180.000000        0.301991         4    ;  uncertainty k = 0.148625
        38        24        25        39     9        0.000000       -0.002551         1    ;  uncertainty k = 0.115730
        38        24        25        39     9      180.000000        7.661892         2    ;  uncertainty k = 0.473727
        38        24        25        39     9        0.000000       -0.390381         3    ;  uncertainty k = 0.286359
        38        24        25        39     9      180.000000        0.068734         4    ;  uncertainty k = 0.168306
        39        25        26        40     9        0.000000       -0.111313         1    ;  uncertainty k = 0.116734
        39        25        26        40     9      180.000000        7.570028         2    ;  uncertainty k = 0.334359
        39        25        26        40     9        0.000000       -0.403022         3    ;  uncertainty k = 0.287477
        39        25        26        40     9      180.000000        0.119544         4    ;  uncertainty k = 0.101292
        41        28        29        42     9        0.000000       -0.176777         1    ;  uncertainty k = 0.222997
        41        28        29        42     9      180.000000        6.567606         2    ;  uncertainty k = 0.260169
        41        28        29        42     9        0.000000       -0.010461         3    ;  uncertainty k = 0.138989
        41        28        29        42     9      180.000000        0.217241         4    ;  uncertainty k = 0.090307
        42        29        30        43     9        0.000000        0.077279         1    ;  uncertainty k = 0.355604
        42        29        30        43     9      180.000000        7.819656         2    ;  uncertainty k = 0.531205
        42        29        30        43     9        0.000000       -0.430593         3    ;  uncertainty k = 0.317162
        42        29        30        43     9      180.000000        0.145196         4    ;  uncertainty k = 0.160605
        44        31        32        45     9        0.000000       -0.099964         1    ;  uncertainty k = 0.341452
        44        31        32        45     9      180.000000        7.892935         2    ;  uncertainty k = 0.331229
        44        31        32        45     9        0.000000       -0.372593         3    ;  uncertainty k = 0.304987
        44        31        32        45     9      180.000000        0.301991         4    ;  uncertainty k = 0.148625

[ dihedrals ] ; impropers
;       ai        aj        ak        al funct           phase               k        pn
         6         5         7        32     4      180.000000       13.379038         2    ;  uncertainty k = 0.127599
         6         7        32         5     4      180.000000       13.379038         2    ;  uncertainty k = 0.127599
         6        32         5         7     4      180.000000       13.379038         2    ;  uncertainty k = 0.127599
         7         6         8        33     4      180.000000        2.786848         2    ;  uncertainty k = 0.316843
         7         8        33         6     4      180.000000        2.786848         2    ;  uncertainty k = 0.316843
         7        33         6         8     4      180.000000        2.786848         2    ;  uncertainty k = 0.316843
         8         7         9        34     4      180.000000        3.194402         2    ;  uncertainty k = 0.232074
         8         9        34         7     4      180.000000        3.194402         2    ;  uncertainty k = 0.232074
         8        34         7         9     4      180.000000        3.194402         2    ;  uncertainty k = 0.232074
         9         8        10        31     4      180.000000       16.857723         2    ;  uncertainty k = 0.110005
         9        10        31         8     4      180.000000       16.857723         2    ;  uncertainty k = 0.110005
         9        31         8        10     4      180.000000       16.857723         2    ;  uncertainty k = 0.110005
        10         9        11        35     4      180.000000        0.553158         2    ;  uncertainty k = 0.626111
        10        11        35         9     4      180.000000        0.553158         2    ;  uncertainty k = 0.626111
        10        35         9        11     4      180.000000        0.553158         2    ;  uncertainty k = 0.626111
        11        10        12        13     4      180.000000       63.229441         2    ;  uncertainty k = 0.059119
        11        12        13        10     4      180.000000       63.229441         2    ;  uncertainty k = 0.059119
        11        13        10        12     4      180.000000       63.229441         2    ;  uncertainty k = 0.059119
        13        11        14        36     4      180.000000        0.392748         2    ;  uncertainty k = 0.562770
        13        14        36        11     4      180.000000        0.392748         2    ;  uncertainty k = 0.562770
        13        36        11        14     4      180.000000        0.392748         2    ;  uncertainty k = 0.562770
        14        13        15        30     4      180.000000       13.075348         2    ;  uncertainty k = 0.235826
        14        15        30        13     4      180.000000       13.075348         2    ;  uncertainty k = 0.235826
        14        30        13        15     4      180.000000       13.075348         2    ;  uncertainty k = 0.235826
        15        14        16        27     4      180.000000       23.632419         2    ;  uncertainty k = 0.090188
        15        16        27        14     4      180.000000       23.632419         2    ;  uncertainty k = 0.090188
        15        27        14        16     4      180.000000       23.632419         2    ;  uncertainty k = 0.090188
        17        16        18        26     4      180.000000       16.372356         2    ;  uncertainty k = 0.070186
        17        18        26        16     4      180.000000       16.372356         2    ;  uncertainty k = 0.070186
        17        26        16        18     4      180.000000       16.372356         2    ;  uncertainty k = 0.070186
        18        17        19        37     4      180.000000        3.523439         2    ;  uncertainty k = 0.117653
        18        19        37        17     4      180.000000        3.523439         2    ;  uncertainty k = 0.117653
        18        37        17        19     4      180.000000        3.523439         2    ;  uncertainty k = 0.117653
        19        18        20        24     4      180.000000        8.646183         2    ;  uncertainty k = 0.131479
        19        20        24        18     4      180.000000        8.646183         2    ;  uncertainty k = 0.131479
        19        24        18        20     4      180.000000        8.646183         2    ;  uncertainty k = 0.131479
        24        19        25        38     4      180.000000        4.036363         2    ;  uncertainty k = 0.083904
        24        25        38        19     4      180.000000        4.036363         2    ;  uncertainty k = 0.083904
        24        38        19        25     4      180.000000        4.036363         2    ;  uncertainty k = 0.083904
        25        24        26        39     4      180.000000        4.325333         2    ;  uncertainty k = 0.198962
        25        26        39        24     4      180.000000        4.325333         2    ;  uncertainty k = 0.198962
        25        39        24        26     4      180.000000        4.325333         2    ;  uncertainty k = 0.198962
        26        17        25        40     4      180.000000        3.153037         2    ;  uncertainty k = 0.114221
        26        25        40        17     4      180.000000        3.153037         2    ;  uncertainty k = 0.114221
        26        40        17        25     4      180.000000        3.153037         2    ;  uncertainty k = 0.114221
        28        27        29        41     4      180.000000       11.532154         2    ;  uncertainty k = 0.089528
        28        29        41        27     4      180.000000       11.532154         2    ;  uncertainty k = 0.089528
        28        41        27        29     4      180.000000       11.532154         2    ;  uncertainty k = 0.089528
        29        28        30        42     4      180.000000        2.219263         2    ;  uncertainty k = 0.396250
        29        30        42        28     4      180.000000        2.219263         2    ;  uncertainty k = 0.396250
        29        42        28        30     4      180.000000        2.219263         2    ;  uncertainty k = 0.396250
        30        14        29        43     4      180.000000        4.523754         2    ;  uncertainty k = 0.211544
        30        29        43        14     4      180.000000        4.523754         2    ;  uncertainty k = 0.211544
        30        43        14        29     4      180.000000        4.523754         2    ;  uncertainty k = 0.211544
        31         9        32        44     4      180.000000        3.194402         2    ;  uncertainty k = 0.232074
        31        32        44         9     4      180.000000        3.194402         2    ;  uncertainty k = 0.232074
        31        44         9        32     4      180.000000        3.194402         2    ;  uncertainty k = 0.232074
        32         6        31        45     4      180.000000        2.786848         2    ;  uncertainty k = 0.316843
        32        31        45         6     4      180.000000        2.786848         2    ;  uncertainty k = 0.316843
        32        45         6        31     4      180.000000        2.786848         2    ;  uncertainty k = 0.316843

[ pairs ]
;       ai        aj funct
         1         6     1
         2         7     1
         2        32     1
         3         6     1
         4         6     1
         5         8     1
         5        31     1
         5        33     1
         5        45     1
         6         9     1
         6        34     1
         6        44     1
         7        10     1
         7        31     1
         7        45     1
         8        11     1
         8        32     1
         8        35     1
         8        44     1
         9        12     1
         9        13     1
         9        33     1
         9        45     1
        10        14     1
        10        32     1
        10        34     1
        10        36     1
        10        44     1
        11        15     1
        11        30     1
        11        31     1
        12        14     1
        12        35     1
        12        36     1
        13        16     1
        13        27     1
        13        29     1
        13        35     1
        13        43     1
        14        17     1
        14        28     1
        14        42     1
        15        18     1
        15        26     1
        15        29     1
        15        36     1
        15        41     1
        15        43     1
        16        19     1
        16        25     1
        16        28     1
        16        30     1
        16        37     1
        16        40     1
        17        20     1
        17        24     1
        17        27     1
        17        39     1
        18        21     1
        18        22     1
        18        23     1
        18        25     1
        18        38     1
        18        40     1
        19        26     1
        19        39     1
        20        25     1
        20        37     1
        20        38     1
        21        24     1
        22        24     1
        23        24     1
        24        37     1
        24        40     1
        26        37     1
        26        38     1
        27        30     1
        27        42     1
        28        43     1
        30        36     1
        30        41     1
        31        34     1
        31        35     1
        32        33     1
        33        34     1
        38        39     1
        39        40     1
        41        42     1
        42        43     1
        44        45     1
