; ITP file created by ByteFF-joint-25, 2025-07-14 11:28:57.680052

[ atomtypes ]
;name           bonded.type        at.num        mass        charge   ptype           sigma         epsilon
 f0bf                                   9      0.0000       0.00000       A     3.03450e-01     3.47875e-01    ;  uncertainty sigma = 0.000008, epsilon = 0.001301
 c1bf                                   6      0.0000       0.00000       A     3.39807e-01     4.50244e-01    ;  uncertainty sigma = 0.000018, epsilon = 0.000749
 f2bf                                   9      0.0000       0.00000       A     3.03450e-01     3.47875e-01    ;  uncertainty sigma = 0.000008, epsilon = 0.001301
 f3bf                                   9      0.0000       0.00000       A     3.03450e-01     3.47875e-01    ;  uncertainty sigma = 0.000008, epsilon = 0.001301
 c4bf                                   6      0.0000       0.00000       A     3.31516e-01     4.13637e-01    ;  uncertainty sigma = 0.000009, epsilon = 0.001109
 c5bf                                   6      0.0000       0.00000       A     3.31514e-01     4.13261e-01    ;  uncertainty sigma = 0.000005, epsilon = 0.000910
 c6bf                                   6      0.0000       0.00000       A     3.31524e-01     4.13769e-01    ;  uncertainty sigma = 0.000014, epsilon = 0.000755
 o7bf                                   8      0.0000       0.00000       A     3.15742e-01     3.04478e-01    ;  uncertainty sigma = 0.000034, epsilon = 0.001935
 c8bf                                   6      0.0000       0.00000       A     3.31577e-01     4.13277e-01    ;  uncertainty sigma = 0.000020, epsilon = 0.000425
 c9bf                                   6      0.0000       0.00000       A     3.31550e-01     4.12934e-01    ;  uncertainty sigma = 0.000036, epsilon = 0.001226
 n10bf                                  7      0.0000       0.00000       A     3.26911e-01     4.90562e-01    ;  uncertainty sigma = 0.000022, epsilon = 0.003078
 c11bf                                  6      0.0000       0.00000       A     3.31430e-01     4.12461e-01    ;  uncertainty sigma = 0.000089, epsilon = 0.001757
 o12bf                                  8      0.0000       0.00000       A     3.04768e-01     6.12506e-01    ;  uncertainty sigma = 0.000026, epsilon = 0.002291
 n13bf                                  7      0.0000       0.00000       A     3.27001e-01     4.89717e-01    ;  uncertainty sigma = 0.000033, epsilon = 0.001946
 c14bf                                  6      0.0000       0.00000       A     3.31540e-01     4.13009e-01    ;  uncertainty sigma = 0.000021, epsilon = 0.000849
 c15bf                                  6      0.0000       0.00000       A     3.31528e-01     4.13536e-01    ;  uncertainty sigma = 0.000004, epsilon = 0.000690
 c16bf                                  6      0.0000       0.00000       A     3.31523e-01     4.13440e-01    ;  uncertainty sigma = 0.000006, epsilon = 0.000463
 c17bf                                  6      0.0000       0.00000       A     3.31523e-01     4.13258e-01    ;  uncertainty sigma = 0.000003, epsilon = 0.000409
 c18bf                                  6      0.0000       0.00000       A     3.31519e-01     4.13274e-01    ;  uncertainty sigma = 0.000007, epsilon = 0.000538
 c19bf                                  6      0.0000       0.00000       A     3.31514e-01     4.13287e-01    ;  uncertainty sigma = 0.000005, epsilon = 0.000643
 c20bf                                  6      0.0000       0.00000       A     3.31520e-01     4.13375e-01    ;  uncertainty sigma = 0.000002, epsilon = 0.000634
 c21bf                                  6      0.0000       0.00000       A     3.31518e-01     4.13340e-01    ;  uncertainty sigma = 0.000003, epsilon = 0.000580
 c22bf                                  6      0.0000       0.00000       A     3.31520e-01     4.13375e-01    ;  uncertainty sigma = 0.000002, epsilon = 0.000634
 c23bf                                  6      0.0000       0.00000       A     3.31514e-01     4.13287e-01    ;  uncertainty sigma = 0.000005, epsilon = 0.000643
 c24bf                                  6      0.0000       0.00000       A     3.31523e-01     4.13440e-01    ;  uncertainty sigma = 0.000006, epsilon = 0.000463
 c25bf                                  6      0.0000       0.00000       A     3.31528e-01     4.13536e-01    ;  uncertainty sigma = 0.000004, epsilon = 0.000690
 c26bf                                  6      0.0000       0.00000       A     3.31539e-01     4.13381e-01    ;  uncertainty sigma = 0.000004, epsilon = 0.001208
 c27bf                                  6      0.0000       0.00000       A     3.31519e-01     4.13136e-01    ;  uncertainty sigma = 0.000006, epsilon = 0.000735
 c28bf                                  6      0.0000       0.00000       A     3.31528e-01     4.13303e-01    ;  uncertainty sigma = 0.000012, epsilon = 0.000565
 n29bf                                  7      0.0000       0.00000       A     3.38387e-01     3.93418e-01    ;  uncertainty sigma = 0.000011, epsilon = 0.000773
 c30bf                                  6      0.0000       0.00000       A     3.31516e-01     4.13581e-01    ;  uncertainty sigma = 0.000006, epsilon = 0.000572
 c31bf                                  6      0.0000       0.00000       A     3.31518e-01     4.13409e-01    ;  uncertainty sigma = 0.000004, epsilon = 0.000593
 c32bf                                  6      0.0000       0.00000       A     3.31514e-01     4.13103e-01    ;  uncertainty sigma = 0.000005, epsilon = 0.000624
 h33bf                                  1      0.0000       0.00000       A     2.62538e-01     6.71611e-02    ;  uncertainty sigma = 0.000012, epsilon = 0.000800
 h34bf                                  1      0.0000       0.00000       A     1.10682e-01     4.19025e-02    ;  uncertainty sigma = 0.000080, epsilon = 0.001074
 h35bf                                  1      0.0000       0.00000       A     1.10658e-01     4.17921e-02    ;  uncertainty sigma = 0.000100, epsilon = 0.000972
 h36bf                                  1      0.0000       0.00000       A     2.62561e-01     6.70749e-02    ;  uncertainty sigma = 0.000014, epsilon = 0.000450
 h37bf                                  1      0.0000       0.00000       A     2.62563e-01     6.70790e-02    ;  uncertainty sigma = 0.000012, epsilon = 0.000512
 h38bf                                  1      0.0000       0.00000       A     2.62562e-01     6.70410e-02    ;  uncertainty sigma = 0.000012, epsilon = 0.000507
 h39bf                                  1      0.0000       0.00000       A     2.62559e-01     6.70250e-02    ;  uncertainty sigma = 0.000010, epsilon = 0.000440
 h40bf                                  1      0.0000       0.00000       A     2.62552e-01     6.70645e-02    ;  uncertainty sigma = 0.000011, epsilon = 0.000453
 h41bf                                  1      0.0000       0.00000       A     2.62559e-01     6.70250e-02    ;  uncertainty sigma = 0.000010, epsilon = 0.000440
 h42bf                                  1      0.0000       0.00000       A     2.62562e-01     6.70410e-02    ;  uncertainty sigma = 0.000012, epsilon = 0.000507
 h43bf                                  1      0.0000       0.00000       A     2.62563e-01     6.70790e-02    ;  uncertainty sigma = 0.000012, epsilon = 0.000512
 h44bf                                  1      0.0000       0.00000       A     2.62561e-01     6.70749e-02    ;  uncertainty sigma = 0.000014, epsilon = 0.000450
 h45bf                                  1      0.0000       0.00000       A     2.62550e-01     6.71051e-02    ;  uncertainty sigma = 0.000018, epsilon = 0.000451
 h46bf                                  1      0.0000       0.00000       A     2.62567e-01     6.71100e-02    ;  uncertainty sigma = 0.000011, epsilon = 0.000575
 h47bf                                  1      0.0000       0.00000       A     2.53636e-01     6.70246e-02    ;  uncertainty sigma = 0.000013, epsilon = 0.000470
 h48bf                                  1      0.0000       0.00000       A     2.62561e-01     6.71298e-02    ;  uncertainty sigma = 0.000006, epsilon = 0.000455
 h49bf                                  1      0.0000       0.00000       A     2.62568e-01     6.69720e-02    ;  uncertainty sigma = 0.000010, epsilon = 0.000464
 h50bf                                  1      0.0000       0.00000       A     2.62557e-01     6.69726e-02    ;  uncertainty sigma = 0.000012, epsilon = 0.000521

[ moleculetype ]
;name             nrexcl
 MOL                   3

[ atoms ]
;       nr            type      resi   res      atom      cgnr      charge          mass ; qtot
         1            f0bf         1   UNL        f0         1    -0.22905       18.9980 ; qtot   -0.229
         2            c1bf         1   UNL        c1         2     0.70937       12.0110 ; qtot    0.480
         3            f2bf         1   UNL        f2         3    -0.22905       18.9980 ; qtot    0.251
         4            f3bf         1   UNL        f3         4    -0.22905       18.9980 ; qtot    0.022
         5            c4bf         1   UNL        c4         5    -0.16749       12.0110 ; qtot   -0.145
         6            c5bf         1   UNL        c5         6    -0.08749       12.0110 ; qtot   -0.233
         7            c6bf         1   UNL        c6         7     0.11385       12.0110 ; qtot   -0.119
         8            o7bf         1   UNL        o7         8    -0.38813       15.9990 ; qtot   -0.507
         9            c8bf         1   UNL        c8         9     0.59681       12.0110 ; qtot    0.090
        10            c9bf         1   UNL        c9        10    -0.04576       12.0110 ; qtot    0.044
        11           n10bf         1   UNL       n10        11    -0.47413       14.0070 ; qtot   -0.430
        12           c11bf         1   UNL       c11        12     0.79866       12.0110 ; qtot    0.369
        13           o12bf         1   UNL       o12        13    -0.59887       15.9990 ; qtot   -0.230
        14           n13bf         1   UNL       n13        14    -0.48875       14.0070 ; qtot   -0.719
        15           c14bf         1   UNL       c14        15     0.08737       12.0110 ; qtot   -0.632
        16           c15bf         1   UNL       c15        16    -0.17417       12.0110 ; qtot   -0.806
        17           c16bf         1   UNL       c16        17    -0.08964       12.0110 ; qtot   -0.896
        18           c17bf         1   UNL       c17        18    -0.06788       12.0110 ; qtot   -0.963
        19           c18bf         1   UNL       c18        19    -0.03798       12.0110 ; qtot   -1.001
        20           c19bf         1   UNL       c19        20    -0.12038       12.0110 ; qtot   -1.122
        21           c20bf         1   UNL       c20        21    -0.13195       12.0110 ; qtot   -1.254
        22           c21bf         1   UNL       c21        22    -0.12215       12.0110 ; qtot   -1.376
        23           c22bf         1   UNL       c22        23    -0.13195       12.0110 ; qtot   -1.508
        24           c23bf         1   UNL       c23        24    -0.12038       12.0110 ; qtot   -1.628
        25           c24bf         1   UNL       c24        25    -0.08964       12.0110 ; qtot   -1.718
        26           c25bf         1   UNL       c25        26    -0.17417       12.0110 ; qtot   -1.892
        27           c26bf         1   UNL       c26        27    -0.10097       12.0110 ; qtot   -1.993
        28           c27bf         1   UNL       c27        28    -0.24092       12.0110 ; qtot   -2.234
        29           c28bf         1   UNL       c28        29     0.39652       12.0110 ; qtot   -1.837
        30           n29bf         1   UNL       n29        30    -0.69921       14.0070 ; qtot   -2.537
        31           c30bf         1   UNL       c30        31    -0.11807       12.0110 ; qtot   -2.655
        32           c31bf         1   UNL       c31        32    -0.11259       12.0110 ; qtot   -2.767
        33           c32bf         1   UNL       c32        33    -0.09679       12.0110 ; qtot   -2.864
        34           h33bf         1   UNL       h33        34     0.16649        1.0080 ; qtot   -2.698
        35           h34bf         1   UNL       h34        35     0.34303        1.0080 ; qtot   -2.355
        36           h35bf         1   UNL       h35        36     0.32276        1.0080 ; qtot   -2.032
        37           h36bf         1   UNL       h36        37     0.15151        1.0080 ; qtot   -1.880
        38           h37bf         1   UNL       h37        38     0.13552        1.0080 ; qtot   -1.745
        39           h38bf         1   UNL       h38        39     0.13422        1.0080 ; qtot   -1.610
        40           h39bf         1   UNL       h39        40     0.13308        1.0080 ; qtot   -1.477
        41           h40bf         1   UNL       h40        41     0.13373        1.0080 ; qtot   -1.344
        42           h41bf         1   UNL       h41        42     0.13308        1.0080 ; qtot   -1.211
        43           h42bf         1   UNL       h42        43     0.13422        1.0080 ; qtot   -1.076
        44           h43bf         1   UNL       h43        44     0.13552        1.0080 ; qtot   -0.941
        45           h44bf         1   UNL       h44        45     0.15151        1.0080 ; qtot   -0.789
        46           h45bf         1   UNL       h45        46     0.17117        1.0080 ; qtot   -0.618
        47           h46bf         1   UNL       h46        47     0.14569        1.0080 ; qtot   -0.472
        48           h47bf         1   UNL       h47        48     0.02625        1.0080 ; qtot   -0.446
        49           h48bf         1   UNL       h48        49     0.15133        1.0080 ; qtot   -0.295
        50           h49bf         1   UNL       h49        50     0.14308        1.0080 ; qtot   -0.152
        51           h50bf         1   UNL       h50        51     0.15184        1.0080 ; qtot    0.000

[ bonds ]
;       ai        aj funct               r               k
         1         2     1        0.135326   286985.907471    ;  uncertainty r = 0.000042, k = 3.079750
         2         3     1        0.135326   286985.907471    ;  uncertainty r = 0.000042, k = 3.079750
         2         4     1        0.135326   286985.907471    ;  uncertainty r = 0.000042, k = 3.079750
         2         5     1        0.149137   215527.840332    ;  uncertainty r = 0.000061, k = 1.127531
         5         6     1        0.138556   347781.567480    ;  uncertainty r = 0.000101, k = 2.673940
         5        33     1        0.138974   350509.007373    ;  uncertainty r = 0.000051, k = 2.268716
         6         7     1        0.139094   353843.464355    ;  uncertainty r = 0.000040, k = 3.656120
         6        34     1        0.108679   332885.490674    ;  uncertainty r = 0.000010, k = 0.906583
         7         8     1        0.138532   314308.648145    ;  uncertainty r = 0.000052, k = 8.971859
         7        31     1        0.139222   354352.674316    ;  uncertainty r = 0.000036, k = 2.697097
         8         9     1        0.137456   295567.576465    ;  uncertainty r = 0.000121, k = 7.043869
         9        10     1        0.140110   355790.847705    ;  uncertainty r = 0.000180, k = 18.434716
         9        30     1        0.131673   342519.850391    ;  uncertainty r = 0.000195, k = 23.816176
        10        11     1        0.140096   339046.216162    ;  uncertainty r = 0.000118, k = 8.055134
        10        27     1        0.139587   350172.658105    ;  uncertainty r = 0.000051, k = 12.669227
        11        12     1        0.139930   382450.287500    ;  uncertainty r = 0.000140, k = 14.422842
        11        35     1        0.101870   417728.195264    ;  uncertainty r = 0.000093, k = 3.473106
        12        13     1        0.124145   784756.188281    ;  uncertainty r = 0.000126, k = 12.841145
        12        14     1        0.139710   394377.190137    ;  uncertainty r = 0.000110, k = 16.822293
        14        15     1        0.141133   327877.791211    ;  uncertainty r = 0.000098, k = 4.276074
        14        36     1        0.101889   423258.869189    ;  uncertainty r = 0.000036, k = 1.970075
        15        16     1        0.140166   356181.054736    ;  uncertainty r = 0.000043, k = 3.499030
        15        26     1        0.140166   356181.054736    ;  uncertainty r = 0.000043, k = 3.499030
        16        17     1        0.139074   360250.316504    ;  uncertainty r = 0.000045, k = 3.638158
        16        37     1        0.108737   335925.351562    ;  uncertainty r = 0.000036, k = 2.037219
        17        18     1        0.140149   348087.297754    ;  uncertainty r = 0.000026, k = 1.528168
        17        38     1        0.108780   333982.947949    ;  uncertainty r = 0.000013, k = 1.135533
        18        19     1        0.148050   273261.856299    ;  uncertainty r = 0.000029, k = 2.785574
        18        25     1        0.140149   348087.297754    ;  uncertainty r = 0.000026, k = 1.528168
        19        20     1        0.140292   344960.508545    ;  uncertainty r = 0.000012, k = 1.865998
        19        24     1        0.140292   344960.508545    ;  uncertainty r = 0.000012, k = 1.865998
        20        21     1        0.139484   366058.068066    ;  uncertainty r = 0.000024, k = 1.586495
        20        39     1        0.108840   334972.868457    ;  uncertainty r = 0.000018, k = 0.816619
        21        22     1        0.139635   371417.694434    ;  uncertainty r = 0.000019, k = 0.651038
        21        40     1        0.108846   333796.322754    ;  uncertainty r = 0.000013, k = 0.671742
        22        23     1        0.139635   371417.694434    ;  uncertainty r = 0.000019, k = 0.651038
        22        41     1        0.108841   334518.895264    ;  uncertainty r = 0.000012, k = 0.635598
        23        24     1        0.139484   366058.068066    ;  uncertainty r = 0.000024, k = 1.586495
        23        42     1        0.108846   333796.322754    ;  uncertainty r = 0.000013, k = 0.671742
        24        43     1        0.108840   334972.868457    ;  uncertainty r = 0.000018, k = 0.816619
        25        26     1        0.139074   360250.316504    ;  uncertainty r = 0.000045, k = 3.638158
        25        44     1        0.108781   333982.947949    ;  uncertainty r = 0.000013, k = 1.135533
        26        45     1        0.108737   335925.300488    ;  uncertainty r = 0.000036, k = 2.037219
        27        28     1        0.139560   376722.211719    ;  uncertainty r = 0.000043, k = 3.130764
        27        46     1        0.108477   334523.798389    ;  uncertainty r = 0.000051, k = 3.409764
        28        29     1        0.139039   373281.443750    ;  uncertainty r = 0.000047, k = 3.782626
        28        47     1        0.108806   337266.713770    ;  uncertainty r = 0.000012, k = 1.595174
        29        30     1        0.134174   386160.574121    ;  uncertainty r = 0.000069, k = 8.080806
        29        48     1        0.108937   336014.271777    ;  uncertainty r = 0.000016, k = 1.810751
        31        32     1        0.139275   372627.234082    ;  uncertainty r = 0.000029, k = 1.736828
        31        49     1        0.108795   335979.132715    ;  uncertainty r = 0.000019, k = 0.979490
        32        33     1        0.139480   367362.018408    ;  uncertainty r = 0.000037, k = 2.422115
        32        50     1        0.108743   333039.530518    ;  uncertainty r = 0.000015, k = 1.385190
        33        51     1        0.108641   332705.811572    ;  uncertainty r = 0.000020, k = 0.826441

[ angles ]
;       ai        aj        ak funct           theta             cth
         1         2         3     1      107.682266      790.161449    ;  uncertainty theta = 0.001820, k = 0.019275
         1         2         4     1      107.682266      790.161449    ;  uncertainty theta = 0.001820, k = 0.019275
         1         2         5     1      112.945602      661.607322    ;  uncertainty theta = 0.002125, k = 0.029098
         2         5         6     1      115.496521      350.324802    ;  uncertainty theta = 0.005914, k = 0.124688
         2         5        33     1      116.478043      341.375162    ;  uncertainty theta = 0.005609, k = 0.113786
         3         2         4     1      107.682266      790.161449    ;  uncertainty theta = 0.001820, k = 0.019275
         3         2         5     1      112.945602      661.607322    ;  uncertainty theta = 0.002125, k = 0.029098
         4         2         5     1      112.945602      661.607322    ;  uncertainty theta = 0.002125, k = 0.029098
         5         6         7     1      118.864952      508.527418    ;  uncertainty theta = 0.002845, k = 0.197951
         5         6        34     1      119.226295      277.135255    ;  uncertainty theta = 0.002912, k = 0.100269
         5        33        32     1      119.255554      512.146537    ;  uncertainty theta = 0.001818, k = 0.042517
         5        33        51     1      118.405869      274.175408    ;  uncertainty theta = 0.002940, k = 0.043008
         6         5        33     1      122.656799      467.566086    ;  uncertainty theta = 0.003025, k = 0.100387
         6         7         8     1      119.209549      406.140145    ;  uncertainty theta = 0.002397, k = 0.063411
         6         7        31     1      121.950890      373.168480    ;  uncertainty theta = 0.004064, k = 0.157753
         7         6        34     1      120.623009      281.233099    ;  uncertainty theta = 0.003246, k = 0.049393
         7         8         9     1      113.059975      473.447729    ;  uncertainty theta = 0.007514, k = 0.198938
         7        31        32     1      117.594139      518.928459    ;  uncertainty theta = 0.002508, k = 0.052964
         7        31        49     1      120.314964      277.616693    ;  uncertainty theta = 0.001021, k = 0.060899
         8         7        31     1      120.049278      419.740666    ;  uncertainty theta = 0.001725, k = 0.093993
         8         9        10     1      116.530540      390.693960    ;  uncertainty theta = 0.012172, k = 0.316589
         8         9        30     1      116.747131      568.431731    ;  uncertainty theta = 0.007457, k = 0.117546
         9        10        11     1      117.092575      491.278569    ;  uncertainty theta = 0.007126, k = 0.229131
         9        10        27     1      117.575417      353.893836    ;  uncertainty theta = 0.008911, k = 0.132789
         9        30        29     1      118.982071      388.605918    ;  uncertainty theta = 0.003083, k = 0.211257
        10         9        30     1      125.653397      515.566722    ;  uncertainty theta = 0.002376, k = 0.153093
        10        11        12     1      118.191467      382.545100    ;  uncertainty theta = 0.006597, k = 0.353697
        10        11        35     1      114.704041      335.957688    ;  uncertainty theta = 0.005639, k = 0.195191
        10        27        28     1      118.664589      535.632314    ;  uncertainty theta = 0.002867, k = 0.172990
        10        27        46     1      117.850075      264.486868    ;  uncertainty theta = 0.003879, k = 0.116474
        11        10        27     1      122.491959      468.987673    ;  uncertainty theta = 0.005717, k = 0.226574
        11        12        13     1      125.188744      728.667579    ;  uncertainty theta = 0.005334, k = 0.101797
        11        12        14     1      111.600075      570.961628    ;  uncertainty theta = 0.006100, k = 0.244009
        12        11        35     1      118.027504      326.505382    ;  uncertainty theta = 0.007877, k = 0.178567
        12        14        15     1      118.651344      400.641239    ;  uncertainty theta = 0.007984, k = 0.085694
        12        14        36     1      116.812332      320.715673    ;  uncertainty theta = 0.007303, k = 0.165146
        13        12        14     1      125.128220      719.646468    ;  uncertainty theta = 0.005098, k = 0.058138
        14        15        16     1      120.261978      531.524702    ;  uncertainty theta = 0.003022, k = 0.079940
        14        15        26     1      120.261978      531.524702    ;  uncertainty theta = 0.003022, k = 0.079940
        15        14        36     1      114.501503      302.544104    ;  uncertainty theta = 0.006583, k = 0.294403
        15        16        17     1      119.882423      500.115622    ;  uncertainty theta = 0.002421, k = 0.055881
        15        16        37     1      118.938431      266.652782    ;  uncertainty theta = 0.001312, k = 0.059370
        15        26        25     1      119.882423      500.115622    ;  uncertainty theta = 0.002421, k = 0.055881
        15        26        45     1      118.938431      266.652782    ;  uncertainty theta = 0.001312, k = 0.059370
        16        15        26     1      118.875473      386.291011    ;  uncertainty theta = 0.007159, k = 0.112908
        16        17        18     1      122.041733      509.982299    ;  uncertainty theta = 0.001939, k = 0.069757
        16        17        38     1      119.420609      282.707037    ;  uncertainty theta = 0.000490, k = 0.044705
        17        16        37     1      120.795609      312.818513    ;  uncertainty theta = 0.001709, k = 0.102356
        17        18        19     1      121.194275      411.875620    ;  uncertainty theta = 0.001271, k = 0.069594
        17        18        25     1      118.918846      426.028637    ;  uncertainty theta = 0.003179, k = 0.086130
        18        17        38     1      119.204819      279.080959    ;  uncertainty theta = 0.001624, k = 0.068599
        18        19        20     1      121.136108      414.137122    ;  uncertainty theta = 0.001730, k = 0.039659
        18        19        24     1      121.136108      414.137122    ;  uncertainty theta = 0.001730, k = 0.039659
        18        25        26     1      122.041733      509.982299    ;  uncertainty theta = 0.001939, k = 0.069757
        18        25        44     1      119.204819      279.080959    ;  uncertainty theta = 0.001624, k = 0.068599
        19        18        25     1      121.194275      411.875620    ;  uncertainty theta = 0.001271, k = 0.069594
        19        20        21     1      120.972778      524.633449    ;  uncertainty theta = 0.001699, k = 0.048379
        19        20        39     1      119.158340      278.968979    ;  uncertainty theta = 0.001689, k = 0.052721
        19        24        23     1      120.972778      524.633449    ;  uncertainty theta = 0.001699, k = 0.048379
        19        24        43     1      119.158340      278.968979    ;  uncertainty theta = 0.001689, k = 0.052721
        20        19        24     1      119.916580      421.028279    ;  uncertainty theta = 0.003135, k = 0.100013
        20        21        22     1      119.768982      515.440601    ;  uncertainty theta = 0.001388, k = 0.012872
        20        21        40     1      120.156349      284.617500    ;  uncertainty theta = 0.001311, k = 0.012512
        21        20        39     1      120.285904      293.080977    ;  uncertainty theta = 0.001071, k = 0.018799
        21        22        23     1      118.290138      528.095260    ;  uncertainty theta = 0.001610, k = 0.009475
        21        22        41     1      120.636986      288.903553    ;  uncertainty theta = 0.001584, k = 0.007453
        22        21        40     1      120.625977      288.164285    ;  uncertainty theta = 0.001231, k = 0.016572
        22        23        24     1      119.768982      515.440601    ;  uncertainty theta = 0.001388, k = 0.012872
        22        23        42     1      120.625977      288.164285    ;  uncertainty theta = 0.001231, k = 0.016572
        23        22        41     1      120.636986      288.903553    ;  uncertainty theta = 0.001584, k = 0.007453
        23        24        43     1      120.285904      293.080977    ;  uncertainty theta = 0.001071, k = 0.018799
        24        23        42     1      120.156349      284.617532    ;  uncertainty theta = 0.001311, k = 0.012512
        25        26        45     1      120.795609      312.818513    ;  uncertainty theta = 0.001709, k = 0.102356
        26        25        44     1      119.420609      282.707037    ;  uncertainty theta = 0.000490, k = 0.044705
        27        28        29     1      116.662033      486.639338    ;  uncertainty theta = 0.002659, k = 0.164042
        27        28        47     1      121.692772      278.904338    ;  uncertainty theta = 0.003629, k = 0.116071
        28        27        46     1      121.491959      306.835200    ;  uncertainty theta = 0.004314, k = 0.137900
        28        29        30     1      122.018677      680.497696    ;  uncertainty theta = 0.002657, k = 0.057695
        28        29        48     1      121.479820      279.479466    ;  uncertainty theta = 0.001106, k = 0.075570
        29        28        47     1      121.531288      284.776501    ;  uncertainty theta = 0.000829, k = 0.071895
        30        29        48     1      116.528870      326.284614    ;  uncertainty theta = 0.003532, k = 0.089660
        31        32        33     1      120.533386      511.752021    ;  uncertainty theta = 0.002153, k = 0.049486
        31        32        50     1      119.824585      284.259310    ;  uncertainty theta = 0.001720, k = 0.029816
        32        31        49     1      121.377441      292.172686    ;  uncertainty theta = 0.001338, k = 0.032523
        32        33        51     1      120.654930      286.912903    ;  uncertainty theta = 0.002806, k = 0.061171
        33        32        50     1      119.962425      281.972845    ;  uncertainty theta = 0.000658, k = 0.030298

[ dihedrals ] ; propers for gromacs 4.5 or higher, use funct 9
;       ai        aj        ak        al funct           phase               k        pn
         1         2         5         6     9        0.000000       -0.828907         1    ;  uncertainty k = 0.452622
         1         2         5         6     9      180.000000        2.803201         2    ;  uncertainty k = 0.128773
         1         2         5         6     9        0.000000        0.701501         3    ;  uncertainty k = 0.032688
         1         2         5         6     9      180.000000        0.136337         4    ;  uncertainty k = 0.047426
         1         2         5        33     9        0.000000       -0.823211         1    ;  uncertainty k = 0.470326
         1         2         5        33     9      180.000000        2.802694         2    ;  uncertainty k = 0.082906
         1         2         5        33     9        0.000000        0.688763         3    ;  uncertainty k = 0.058349
         1         2         5        33     9      180.000000        0.135610         4    ;  uncertainty k = 0.041085
         2         5         6         7     9        0.000000        0.137531         1    ;  uncertainty k = 0.382297
         2         5         6         7     9      180.000000       10.226747         2    ;  uncertainty k = 0.659410
         2         5         6         7     9        0.000000        1.461318         3    ;  uncertainty k = 0.335069
         2         5         6         7     9      180.000000        1.764611         4    ;  uncertainty k = 0.220745
         2         5         6        34     9        0.000000        0.263434         1    ;  uncertainty k = 0.414605
         2         5         6        34     9      180.000000        8.781867         2    ;  uncertainty k = 0.304602
         2         5         6        34     9        0.000000        0.696019         3    ;  uncertainty k = 0.144996
         2         5         6        34     9      180.000000        1.087930         4    ;  uncertainty k = 0.155232
         2         5        33        32     9        0.000000        0.078886         1    ;  uncertainty k = 0.186674
         2         5        33        32     9      180.000000       10.351755         2    ;  uncertainty k = 0.778180
         2         5        33        32     9        0.000000        1.523036         3    ;  uncertainty k = 0.299974
         2         5        33        32     9      180.000000        1.886244         4    ;  uncertainty k = 0.383053
         2         5        33        51     9        0.000000        0.018303         1    ;  uncertainty k = 0.362063
         2         5        33        51     9      180.000000        8.851524         2    ;  uncertainty k = 0.560933
         2         5        33        51     9        0.000000        0.689709         3    ;  uncertainty k = 0.261465
         2         5        33        51     9      180.000000        1.019568         4    ;  uncertainty k = 0.221458
         3         2         5         6     9        0.000000       -0.828907         1    ;  uncertainty k = 0.452622
         3         2         5         6     9      180.000000        2.803201         2    ;  uncertainty k = 0.128773
         3         2         5         6     9        0.000000        0.701501         3    ;  uncertainty k = 0.032688
         3         2         5         6     9      180.000000        0.136337         4    ;  uncertainty k = 0.047426
         3         2         5        33     9        0.000000       -0.823211         1    ;  uncertainty k = 0.470326
         3         2         5        33     9      180.000000        2.802694         2    ;  uncertainty k = 0.082906
         3         2         5        33     9        0.000000        0.688763         3    ;  uncertainty k = 0.058349
         3         2         5        33     9      180.000000        0.135610         4    ;  uncertainty k = 0.041085
         4         2         5         6     9        0.000000       -0.828907         1    ;  uncertainty k = 0.452622
         4         2         5         6     9      180.000000        2.803201         2    ;  uncertainty k = 0.128773
         4         2         5         6     9        0.000000        0.701501         3    ;  uncertainty k = 0.032688
         4         2         5         6     9      180.000000        0.136337         4    ;  uncertainty k = 0.047426
         4         2         5        33     9        0.000000       -0.823211         1    ;  uncertainty k = 0.470326
         4         2         5        33     9      180.000000        2.802694         2    ;  uncertainty k = 0.082906
         4         2         5        33     9        0.000000        0.688763         3    ;  uncertainty k = 0.058349
         4         2         5        33     9      180.000000        0.135610         4    ;  uncertainty k = 0.041085
         5         6         7         8     9        0.000000       -0.054168         1    ;  uncertainty k = 0.319743
         5         6         7         8     9      180.000000       11.162461         2    ;  uncertainty k = 0.228187
         5         6         7         8     9        0.000000        1.352214         3    ;  uncertainty k = 0.202966
         5         6         7         8     9      180.000000        1.594604         4    ;  uncertainty k = 0.163376
         5         6         7        31     9        0.000000       -0.062398         1    ;  uncertainty k = 0.292333
         5         6         7        31     9      180.000000        9.245555         2    ;  uncertainty k = 0.592081
         5         6         7        31     9        0.000000       -0.008936         3    ;  uncertainty k = 0.582500
         5         6         7        31     9      180.000000        1.177935         4    ;  uncertainty k = 0.484619
         5        33        32        31     9        0.000000       -0.243848         1    ;  uncertainty k = 0.189764
         5        33        32        31     9      180.000000       13.673831         2    ;  uncertainty k = 0.341798
         5        33        32        31     9        0.000000       -0.849479         3    ;  uncertainty k = 0.421712
         5        33        32        31     9      180.000000        0.713106         4    ;  uncertainty k = 0.296868
         5        33        32        50     9        0.000000        0.068788         1    ;  uncertainty k = 0.266779
         5        33        32        50     9      180.000000        7.561180         2    ;  uncertainty k = 0.317046
         5        33        32        50     9        0.000000        1.473541         3    ;  uncertainty k = 0.220229
         5        33        32        50     9      180.000000        1.732188         4    ;  uncertainty k = 0.159061
         6         5        33        32     9        0.000000       -0.238113         1    ;  uncertainty k = 0.209093
         6         5        33        32     9      180.000000       12.299165         2    ;  uncertainty k = 0.499371
         6         5        33        32     9        0.000000       -0.649051         3    ;  uncertainty k = 0.413941
         6         5        33        32     9      180.000000        0.809773         4    ;  uncertainty k = 0.356024
         6         5        33        51     9        0.000000        0.220952         1    ;  uncertainty k = 0.223729
         6         5        33        51     9      180.000000        7.534682         2    ;  uncertainty k = 0.440507
         6         5        33        51     9        0.000000        1.373084         3    ;  uncertainty k = 0.455761
         6         5        33        51     9      180.000000        1.631125         4    ;  uncertainty k = 0.232509
         6         7         8         9     9        0.000000        4.111151         1    ;  uncertainty k = 0.463346
         6         7         8         9     9      180.000000        5.444233         2    ;  uncertainty k = 0.180211
         6         7         8         9     9        0.000000        0.337321         3    ;  uncertainty k = 0.385525
         6         7         8         9     9      180.000000        0.284107         4    ;  uncertainty k = 0.144689
         6         7        31        32     9        0.000000       -0.003466         1    ;  uncertainty k = 0.080228
         6         7        31        32     9      180.000000       10.021365         2    ;  uncertainty k = 0.550002
         6         7        31        32     9        0.000000       -0.157711         3    ;  uncertainty k = 0.411351
         6         7        31        32     9      180.000000        1.116828         4    ;  uncertainty k = 0.409266
         6         7        31        49     9        0.000000        0.278178         1    ;  uncertainty k = 0.157174
         6         7        31        49     9      180.000000        6.395045         2    ;  uncertainty k = 0.731884
         6         7        31        49     9        0.000000        1.387907         3    ;  uncertainty k = 0.416133
         6         7        31        49     9      180.000000        1.593558         4    ;  uncertainty k = 0.202098
         7         6         5        33     9        0.000000       -0.251338         1    ;  uncertainty k = 0.225811
         7         6         5        33     9      180.000000       11.882309         2    ;  uncertainty k = 0.212882
         7         6         5        33     9        0.000000       -0.431962         3    ;  uncertainty k = 0.492564
         7         6         5        33     9      180.000000        0.966872         4    ;  uncertainty k = 0.329892
         7         8         9        10     9        0.000000        5.742984         1    ;  uncertainty k = 0.996506
         7         8         9        10     9      180.000000        3.878653         2    ;  uncertainty k = 0.444863
         7         8         9        10     9        0.000000        0.580854         3    ;  uncertainty k = 0.248381
         7         8         9        10     9      180.000000        0.086291         4    ;  uncertainty k = 0.156290
         7         8         9        30     9        0.000000        2.095892         1    ;  uncertainty k = 1.084879
         7         8         9        30     9      180.000000        6.456939         2    ;  uncertainty k = 0.121606
         7         8         9        30     9        0.000000        0.082868         3    ;  uncertainty k = 0.422006
         7         8         9        30     9      180.000000        0.151585         4    ;  uncertainty k = 0.120974
         7        31        32        33     9        0.000000       -0.274443         1    ;  uncertainty k = 0.209994
         7        31        32        33     9      180.000000       14.193549         2    ;  uncertainty k = 0.243702
         7        31        32        33     9        0.000000       -0.825857         3    ;  uncertainty k = 0.472075
         7        31        32        33     9      180.000000        0.811988         4    ;  uncertainty k = 0.227337
         7        31        32        50     9        0.000000        0.030124         1    ;  uncertainty k = 0.066195
         7        31        32        50     9      180.000000        7.830210         2    ;  uncertainty k = 0.232718
         7        31        32        50     9        0.000000        1.358974         3    ;  uncertainty k = 0.159621
         7        31        32        50     9      180.000000        1.757685         4    ;  uncertainty k = 0.144431
         8         7         6        34     9        0.000000        0.246879         1    ;  uncertainty k = 0.126181
         8         7         6        34     9      180.000000        8.724117         2    ;  uncertainty k = 0.255702
         8         7         6        34     9        0.000000        0.898640         3    ;  uncertainty k = 0.304406
         8         7         6        34     9      180.000000        1.116873         4    ;  uncertainty k = 0.210214
         8         7        31        32     9        0.000000       -0.042015         1    ;  uncertainty k = 0.399401
         8         7        31        32     9      180.000000       11.193092         2    ;  uncertainty k = 0.404423
         8         7        31        32     9        0.000000        1.305480         3    ;  uncertainty k = 0.216138
         8         7        31        32     9      180.000000        1.621828         4    ;  uncertainty k = 0.141001
         8         7        31        49     9        0.000000        0.072912         1    ;  uncertainty k = 0.103916
         8         7        31        49     9      180.000000        8.608525         2    ;  uncertainty k = 0.251062
         8         7        31        49     9        0.000000        0.860920         3    ;  uncertainty k = 0.274176
         8         7        31        49     9      180.000000        1.057134         4    ;  uncertainty k = 0.175952
         8         9        10        11     9        0.000000        0.265513         1    ;  uncertainty k = 0.638101
         8         9        10        11     9      180.000000        8.312027         2    ;  uncertainty k = 0.483820
         8         9        10        11     9        0.000000        0.783388         3    ;  uncertainty k = 0.198631
         8         9        10        11     9      180.000000        1.337313         4    ;  uncertainty k = 0.293172
         8         9        10        27     9        0.000000        0.758628         1    ;  uncertainty k = 0.302974
         8         9        10        27     9      180.000000        5.954667         2    ;  uncertainty k = 0.582835
         8         9        10        27     9        0.000000        0.897889         3    ;  uncertainty k = 0.157549
         8         9        10        27     9      180.000000        1.407331         4    ;  uncertainty k = 0.461766
         8         9        30        29     9        0.000000        0.645014         1    ;  uncertainty k = 1.001765
         8         9        30        29     9      180.000000       16.604500         2    ;  uncertainty k = 0.284032
         8         9        30        29     9        0.000000        2.791706         3    ;  uncertainty k = 0.527017
         8         9        30        29     9      180.000000        1.944515         4    ;  uncertainty k = 0.152085
         9         8         7        31     9        0.000000        4.031477         1    ;  uncertainty k = 0.324366
         9         8         7        31     9      180.000000        5.326864         2    ;  uncertainty k = 0.098303
         9         8         7        31     9        0.000000        0.404902         3    ;  uncertainty k = 0.412078
         9         8         7        31     9      180.000000        0.296999         4    ;  uncertainty k = 0.116646
         9        10        11        12     9        0.000000        1.826178         1    ;  uncertainty k = 1.230612
         9        10        11        12     9      180.000000        3.914688         2    ;  uncertainty k = 0.505911
         9        10        11        12     9        0.000000        0.267513         3    ;  uncertainty k = 0.197086
         9        10        11        12     9      180.000000       -0.000673         4    ;  uncertainty k = 0.064722
         9        10        11        35     9        0.000000        1.809919         1    ;  uncertainty k = 1.049578
         9        10        11        35     9      180.000000        2.184103         2    ;  uncertainty k = 0.856980
         9        10        11        35     9        0.000000       -0.055926         3    ;  uncertainty k = 0.368395
         9        10        11        35     9      180.000000       -0.094869         4    ;  uncertainty k = 0.135654
         9        10        27        28     9        0.000000       -0.045324         1    ;  uncertainty k = 0.346307
         9        10        27        28     9      180.000000        9.675692         2    ;  uncertainty k = 0.563612
         9        10        27        28     9        0.000000        0.089574         3    ;  uncertainty k = 0.421919
         9        10        27        28     9      180.000000        1.428809         4    ;  uncertainty k = 0.224622
         9        10        27        46     9        0.000000       -0.056218         1    ;  uncertainty k = 0.336146
         9        10        27        46     9      180.000000        7.154486         2    ;  uncertainty k = 0.386951
         9        10        27        46     9        0.000000        1.228551         3    ;  uncertainty k = 0.135670
         9        10        27        46     9      180.000000        1.474946         4    ;  uncertainty k = 0.079159
         9        30        29        28     9        0.000000       -0.133462         1    ;  uncertainty k = 0.695196
         9        30        29        28     9      180.000000       15.215297         2    ;  uncertainty k = 0.215444
         9        30        29        28     9        0.000000        0.737113         3    ;  uncertainty k = 0.573056
         9        30        29        28     9      180.000000        1.291837         4    ;  uncertainty k = 0.321443
         9        30        29        48     9        0.000000        0.068263         1    ;  uncertainty k = 0.501141
         9        30        29        48     9      180.000000       15.223381         2    ;  uncertainty k = 0.588647
         9        30        29        48     9        0.000000        2.120235         3    ;  uncertainty k = 0.703419
         9        30        29        48     9      180.000000        1.291633         4    ;  uncertainty k = 0.573906
        10         9        30        29     9        0.000000        0.676654         1    ;  uncertainty k = 0.481269
        10         9        30        29     9      180.000000       12.337756         2    ;  uncertainty k = 0.384550
        10         9        30        29     9        0.000000        1.799559         3    ;  uncertainty k = 0.431189
        10         9        30        29     9      180.000000        1.358998         4    ;  uncertainty k = 0.224517
        10        11        12        13     9        0.000000        6.946396         1    ;  uncertainty k = 0.908900
        10        11        12        13     9      180.000000        9.319618         2    ;  uncertainty k = 0.343353
        10        11        12        13     9        0.000000        1.327877         3    ;  uncertainty k = 0.355434
        10        11        12        13     9      180.000000       -0.511188         4    ;  uncertainty k = 0.273827
        10        11        12        14     9        0.000000        8.097415         1    ;  uncertainty k = 0.965587
        10        11        12        14     9      180.000000        6.079945         2    ;  uncertainty k = 0.980608
        10        11        12        14     9        0.000000        0.638673         3    ;  uncertainty k = 0.171911
        10        11        12        14     9      180.000000       -0.161953         4    ;  uncertainty k = 0.445619
        10        27        28        29     9        0.000000       -0.219717         1    ;  uncertainty k = 0.258711
        10        27        28        29     9      180.000000       13.489343         2    ;  uncertainty k = 0.300398
        10        27        28        29     9        0.000000       -1.177534         3    ;  uncertainty k = 0.825067
        10        27        28        29     9      180.000000        0.747942         4    ;  uncertainty k = 0.391509
        10        27        28        47     9        0.000000        0.313279         1    ;  uncertainty k = 0.255485
        10        27        28        47     9      180.000000        7.639764         2    ;  uncertainty k = 0.597194
        10        27        28        47     9        0.000000        1.394864         3    ;  uncertainty k = 0.301687
        10        27        28        47     9      180.000000        1.632044         4    ;  uncertainty k = 0.213681
        11        10         9        30     9        0.000000        0.353474         1    ;  uncertainty k = 0.449760
        11        10         9        30     9      180.000000        6.335181         2    ;  uncertainty k = 0.770062
        11        10         9        30     9        0.000000        0.762700         3    ;  uncertainty k = 0.328523
        11        10         9        30     9      180.000000        1.504660         4    ;  uncertainty k = 0.296384
        11        10        27        28     9        0.000000       -0.104134         1    ;  uncertainty k = 0.141360
        11        10        27        28     9      180.000000       11.628689         2    ;  uncertainty k = 0.794318
        11        10        27        28     9        0.000000        1.107582         3    ;  uncertainty k = 0.487862
        11        10        27        28     9      180.000000        1.611587         4    ;  uncertainty k = 0.361445
        11        10        27        46     9        0.000000       -0.339226         1    ;  uncertainty k = 0.473729
        11        10        27        46     9      180.000000        8.956188         2    ;  uncertainty k = 0.817388
        11        10        27        46     9        0.000000        0.715306         3    ;  uncertainty k = 0.150871
        11        10        27        46     9      180.000000        1.268139         4    ;  uncertainty k = 0.406221
        11        12        14        15     9        0.000000        6.761635         1    ;  uncertainty k = 0.809001
        11        12        14        15     9      180.000000        5.969500         2    ;  uncertainty k = 0.770404
        11        12        14        15     9        0.000000        0.546528         3    ;  uncertainty k = 0.314508
        11        12        14        15     9      180.000000       -0.113285         4    ;  uncertainty k = 0.251324
        11        12        14        36     9        0.000000        2.784093         1    ;  uncertainty k = 0.996555
        11        12        14        36     9      180.000000        4.681545         2    ;  uncertainty k = 1.140006
        11        12        14        36     9        0.000000        0.937857         3    ;  uncertainty k = 0.238446
        11        12        14        36     9      180.000000       -0.387399         4    ;  uncertainty k = 0.267786
        12        11        10        27     9        0.000000        1.590483         1    ;  uncertainty k = 1.223145
        12        11        10        27     9      180.000000        3.933825         2    ;  uncertainty k = 0.529571
        12        11        10        27     9        0.000000        0.641747         3    ;  uncertainty k = 0.289819
        12        11        10        27     9      180.000000        0.355266         4    ;  uncertainty k = 0.131763
        12        14        15        16     9        0.000000        1.292408         1    ;  uncertainty k = 0.440872
        12        14        15        16     9      180.000000        4.744758         2    ;  uncertainty k = 0.264178
        12        14        15        16     9        0.000000        1.004402         3    ;  uncertainty k = 0.219282
        12        14        15        16     9      180.000000        0.261779         4    ;  uncertainty k = 0.105926
        12        14        15        26     9        0.000000        1.292408         1    ;  uncertainty k = 0.440872
        12        14        15        26     9      180.000000        4.744758         2    ;  uncertainty k = 0.264178
        12        14        15        26     9        0.000000        1.004402         3    ;  uncertainty k = 0.219282
        12        14        15        26     9      180.000000        0.261779         4    ;  uncertainty k = 0.105926
        13        12        11        35     9        0.000000        0.648440         1    ;  uncertainty k = 0.303764
        13        12        11        35     9      180.000000        8.524099         2    ;  uncertainty k = 0.415172
        13        12        11        35     9        0.000000        1.856516         3    ;  uncertainty k = 0.251833
        13        12        11        35     9      180.000000       -0.422623         4    ;  uncertainty k = 0.241464
        13        12        14        15     9        0.000000        6.067209         1    ;  uncertainty k = 0.942796
        13        12        14        15     9      180.000000        9.775031         2    ;  uncertainty k = 0.365399
        13        12        14        15     9        0.000000        1.223968         3    ;  uncertainty k = 0.166505
        13        12        14        15     9      180.000000       -0.541648         4    ;  uncertainty k = 0.168327
        13        12        14        36     9        0.000000        0.944309         1    ;  uncertainty k = 0.481747
        13        12        14        36     9      180.000000        9.631720         2    ;  uncertainty k = 0.218444
        13        12        14        36     9        0.000000        2.134539         3    ;  uncertainty k = 0.211371
        13        12        14        36     9      180.000000       -0.270740         4    ;  uncertainty k = 0.205351
        14        12        11        35     9        0.000000        3.140675         1    ;  uncertainty k = 0.997162
        14        12        11        35     9      180.000000        4.606961         2    ;  uncertainty k = 1.129894
        14        12        11        35     9        0.000000        0.781754         3    ;  uncertainty k = 0.203638
        14        12        11        35     9      180.000000       -0.387106         4    ;  uncertainty k = 0.270300
        14        15        16        17     9        0.000000        0.028387         1    ;  uncertainty k = 0.363540
        14        15        16        17     9      180.000000       10.247884         2    ;  uncertainty k = 0.509408
        14        15        16        17     9        0.000000        1.199506         3    ;  uncertainty k = 0.457750
        14        15        16        17     9      180.000000        1.644317         4    ;  uncertainty k = 0.242590
        14        15        16        37     9        0.000000       -0.065611         1    ;  uncertainty k = 0.204914
        14        15        16        37     9      180.000000        8.182738         2    ;  uncertainty k = 0.470934
        14        15        16        37     9        0.000000        0.742382         3    ;  uncertainty k = 0.212445
        14        15        16        37     9      180.000000        1.146765         4    ;  uncertainty k = 0.207747
        14        15        26        25     9        0.000000        0.028387         1    ;  uncertainty k = 0.363540
        14        15        26        25     9      180.000000       10.247884         2    ;  uncertainty k = 0.509408
        14        15        26        25     9        0.000000        1.199506         3    ;  uncertainty k = 0.457750
        14        15        26        25     9      180.000000        1.644317         4    ;  uncertainty k = 0.242590
        14        15        26        45     9        0.000000       -0.065611         1    ;  uncertainty k = 0.204914
        14        15        26        45     9      180.000000        8.182738         2    ;  uncertainty k = 0.470934
        14        15        26        45     9        0.000000        0.742382         3    ;  uncertainty k = 0.212445
        14        15        26        45     9      180.000000        1.146765         4    ;  uncertainty k = 0.207747
        15        16        17        18     9        0.000000       -0.174089         1    ;  uncertainty k = 0.150377
        15        16        17        18     9      180.000000       13.859311         2    ;  uncertainty k = 0.337639
        15        16        17        18     9        0.000000       -0.708157         3    ;  uncertainty k = 0.331564
        15        16        17        18     9      180.000000        0.820024         4    ;  uncertainty k = 0.253554
        15        16        17        38     9        0.000000       -0.112619         1    ;  uncertainty k = 0.302949
        15        16        17        38     9      180.000000        8.378009         2    ;  uncertainty k = 0.477952
        15        16        17        38     9        0.000000        1.260172         3    ;  uncertainty k = 0.322641
        15        16        17        38     9      180.000000        1.688816         4    ;  uncertainty k = 0.147515
        15        26        25        18     9        0.000000       -0.174089         1    ;  uncertainty k = 0.150377
        15        26        25        18     9      180.000000       13.859311         2    ;  uncertainty k = 0.337639
        15        26        25        18     9        0.000000       -0.708157         3    ;  uncertainty k = 0.331564
        15        26        25        18     9      180.000000        0.820024         4    ;  uncertainty k = 0.253554
        15        26        25        44     9        0.000000       -0.112619         1    ;  uncertainty k = 0.302949
        15        26        25        44     9      180.000000        8.378009         2    ;  uncertainty k = 0.477952
        15        26        25        44     9        0.000000        1.260172         3    ;  uncertainty k = 0.322641
        15        26        25        44     9      180.000000        1.688816         4    ;  uncertainty k = 0.147515
        16        15        14        36     9        0.000000        0.543659         1    ;  uncertainty k = 0.735646
        16        15        14        36     9      180.000000        3.819996         2    ;  uncertainty k = 0.118272
        16        15        14        36     9        0.000000        0.689101         3    ;  uncertainty k = 0.139619
        16        15        14        36     9      180.000000        0.193436         4    ;  uncertainty k = 0.036455
        16        15        26        25     9        0.000000       -0.094948         1    ;  uncertainty k = 0.182948
        16        15        26        25     9      180.000000        9.552850         2    ;  uncertainty k = 0.305901
        16        15        26        25     9        0.000000       -0.039913         3    ;  uncertainty k = 0.164426
        16        15        26        25     9      180.000000        1.184920         4    ;  uncertainty k = 0.254548
        16        15        26        45     9        0.000000        0.113138         1    ;  uncertainty k = 0.264345
        16        15        26        45     9      180.000000        6.637287         2    ;  uncertainty k = 0.487498
        16        15        26        45     9        0.000000        1.258939         3    ;  uncertainty k = 0.325000
        16        15        26        45     9      180.000000        1.504807         4    ;  uncertainty k = 0.151449
        16        17        18        19     9        0.000000        0.081213         1    ;  uncertainty k = 0.327953
        16        17        18        19     9      180.000000        8.394872         2    ;  uncertainty k = 0.465828
        16        17        18        19     9        0.000000        1.223668         3    ;  uncertainty k = 0.328011
        16        17        18        19     9      180.000000        1.722607         4    ;  uncertainty k = 0.123448
        16        17        18        25     9        0.000000        0.073680         1    ;  uncertainty k = 0.248685
        16        17        18        25     9      180.000000       11.482048         2    ;  uncertainty k = 0.238365
        16        17        18        25     9        0.000000       -0.520353         3    ;  uncertainty k = 0.217403
        16        17        18        25     9      180.000000        0.854431         4    ;  uncertainty k = 0.219601
        17        16        15        26     9        0.000000       -0.094948         1    ;  uncertainty k = 0.182948
        17        16        15        26     9      180.000000        9.552850         2    ;  uncertainty k = 0.305901
        17        16        15        26     9        0.000000       -0.039913         3    ;  uncertainty k = 0.164426
        17        16        15        26     9      180.000000        1.184920         4    ;  uncertainty k = 0.254548
        17        18        19        20     9        0.000000       -0.431377         1    ;  uncertainty k = 0.367844
        17        18        19        20     9      180.000000        4.017202         2    ;  uncertainty k = 0.064864
        17        18        19        20     9        0.000000        0.329343         3    ;  uncertainty k = 0.140653
        17        18        19        20     9      180.000000       -0.068554         4    ;  uncertainty k = 0.037056
        17        18        19        24     9        0.000000       -0.431377         1    ;  uncertainty k = 0.367844
        17        18        19        24     9      180.000000        4.017202         2    ;  uncertainty k = 0.064864
        17        18        19        24     9        0.000000        0.329343         3    ;  uncertainty k = 0.140653
        17        18        19        24     9      180.000000       -0.068554         4    ;  uncertainty k = 0.037056
        17        18        25        26     9        0.000000        0.073680         1    ;  uncertainty k = 0.248685
        17        18        25        26     9      180.000000       11.482048         2    ;  uncertainty k = 0.238365
        17        18        25        26     9        0.000000       -0.520353         3    ;  uncertainty k = 0.217403
        17        18        25        26     9      180.000000        0.854431         4    ;  uncertainty k = 0.219601
        17        18        25        44     9        0.000000       -0.018679         1    ;  uncertainty k = 0.193213
        17        18        25        44     9      180.000000        6.781428         2    ;  uncertainty k = 0.587029
        17        18        25        44     9        0.000000        1.358557         3    ;  uncertainty k = 0.271838
        17        18        25        44     9      180.000000        1.550241         4    ;  uncertainty k = 0.230004
        18        17        16        37     9        0.000000       -0.061661         1    ;  uncertainty k = 0.247899
        18        17        16        37     9      180.000000        8.462541         2    ;  uncertainty k = 0.355499
        18        17        16        37     9        0.000000        1.311560         3    ;  uncertainty k = 0.302724
        18        17        16        37     9      180.000000        1.850088         4    ;  uncertainty k = 0.216695
        18        19        20        21     9        0.000000        0.005840         1    ;  uncertainty k = 0.244712
        18        19        20        21     9      180.000000        8.774321         2    ;  uncertainty k = 0.545637
        18        19        20        21     9        0.000000        1.199876         3    ;  uncertainty k = 0.407963
        18        19        20        21     9      180.000000        1.741654         4    ;  uncertainty k = 0.169805
        18        19        20        39     9        0.000000       -0.182567         1    ;  uncertainty k = 0.287572
        18        19        20        39     9      180.000000        6.973739         2    ;  uncertainty k = 0.411548
        18        19        20        39     9        0.000000        0.857993         3    ;  uncertainty k = 0.171793
        18        19        20        39     9      180.000000        1.176300         4    ;  uncertainty k = 0.226941
        18        19        24        23     9        0.000000        0.005840         1    ;  uncertainty k = 0.244712
        18        19        24        23     9      180.000000        8.774321         2    ;  uncertainty k = 0.545637
        18        19        24        23     9        0.000000        1.199876         3    ;  uncertainty k = 0.407963
        18        19        24        23     9      180.000000        1.741654         4    ;  uncertainty k = 0.169805
        18        19        24        43     9        0.000000       -0.182567         1    ;  uncertainty k = 0.287572
        18        19        24        43     9      180.000000        6.973739         2    ;  uncertainty k = 0.411548
        18        19        24        43     9        0.000000        0.857993         3    ;  uncertainty k = 0.171793
        18        19        24        43     9      180.000000        1.176300         4    ;  uncertainty k = 0.226941
        18        25        26        45     9        0.000000       -0.061661         1    ;  uncertainty k = 0.247899
        18        25        26        45     9      180.000000        8.462541         2    ;  uncertainty k = 0.355499
        18        25        26        45     9        0.000000        1.311560         3    ;  uncertainty k = 0.302724
        18        25        26        45     9      180.000000        1.850088         4    ;  uncertainty k = 0.216695
        19        18        17        38     9        0.000000       -0.345110         1    ;  uncertainty k = 0.450784
        19        18        17        38     9      180.000000        6.973735         2    ;  uncertainty k = 0.439692
        19        18        17        38     9        0.000000        0.816005         3    ;  uncertainty k = 0.148203
        19        18        17        38     9      180.000000        1.105083         4    ;  uncertainty k = 0.205008
        19        18        25        26     9        0.000000        0.081213         1    ;  uncertainty k = 0.327953
        19        18        25        26     9      180.000000        8.394872         2    ;  uncertainty k = 0.465828
        19        18        25        26     9        0.000000        1.223668         3    ;  uncertainty k = 0.328011
        19        18        25        26     9      180.000000        1.722607         4    ;  uncertainty k = 0.123448
        19        18        25        44     9        0.000000       -0.345110         1    ;  uncertainty k = 0.450784
        19        18        25        44     9      180.000000        6.973735         2    ;  uncertainty k = 0.439692
        19        18        25        44     9        0.000000        0.816005         3    ;  uncertainty k = 0.148203
        19        18        25        44     9      180.000000        1.105083         4    ;  uncertainty k = 0.205008
        19        20        21        22     9        0.000000       -0.008488         1    ;  uncertainty k = 0.168205
        19        20        21        22     9      180.000000       14.295059         2    ;  uncertainty k = 0.191770
        19        20        21        22     9        0.000000       -0.884186         3    ;  uncertainty k = 0.447445
        19        20        21        22     9      180.000000        0.676382         4    ;  uncertainty k = 0.254016
        19        20        21        40     9        0.000000        0.016651         1    ;  uncertainty k = 0.241262
        19        20        21        40     9      180.000000        7.812951         2    ;  uncertainty k = 0.335549
        19        20        21        40     9        0.000000        1.362463         3    ;  uncertainty k = 0.261851
        19        20        21        40     9      180.000000        1.845654         4    ;  uncertainty k = 0.174471
        19        24        23        22     9        0.000000       -0.008488         1    ;  uncertainty k = 0.168205
        19        24        23        22     9      180.000000       14.295059         2    ;  uncertainty k = 0.191770
        19        24        23        22     9        0.000000       -0.884186         3    ;  uncertainty k = 0.447445
        19        24        23        22     9      180.000000        0.676382         4    ;  uncertainty k = 0.254016
        19        24        23        42     9        0.000000        0.016651         1    ;  uncertainty k = 0.241262
        19        24        23        42     9      180.000000        7.812951         2    ;  uncertainty k = 0.335549
        19        24        23        42     9        0.000000        1.362463         3    ;  uncertainty k = 0.261851
        19        24        23        42     9      180.000000        1.845654         4    ;  uncertainty k = 0.174471
        20        19        18        25     9        0.000000       -0.431377         1    ;  uncertainty k = 0.367844
        20        19        18        25     9      180.000000        4.017202         2    ;  uncertainty k = 0.064864
        20        19        18        25     9        0.000000        0.329343         3    ;  uncertainty k = 0.140653
        20        19        18        25     9      180.000000       -0.068554         4    ;  uncertainty k = 0.037056
        20        19        24        23     9        0.000000        0.054280         1    ;  uncertainty k = 0.070958
        20        19        24        23     9      180.000000       11.323589         2    ;  uncertainty k = 0.255219
        20        19        24        23     9        0.000000       -0.398648         3    ;  uncertainty k = 0.295855
        20        19        24        23     9      180.000000        0.856070         4    ;  uncertainty k = 0.274274
        20        19        24        43     9        0.000000        0.144733         1    ;  uncertainty k = 0.146288
        20        19        24        43     9      180.000000        6.916498         2    ;  uncertainty k = 0.541843
        20        19        24        43     9        0.000000        1.443876         3    ;  uncertainty k = 0.238855
        20        19        24        43     9      180.000000        1.627736         4    ;  uncertainty k = 0.238020
        20        21        22        23     9        0.000000       -0.005915         1    ;  uncertainty k = 0.081665
        20        21        22        23     9      180.000000       14.937442         2    ;  uncertainty k = 0.274385
        20        21        22        23     9        0.000000       -1.174651         3    ;  uncertainty k = 0.514660
        20        21        22        23     9      180.000000        0.534622         4    ;  uncertainty k = 0.278896
        20        21        22        41     9        0.000000        0.090794         1    ;  uncertainty k = 0.050551
        20        21        22        41     9      180.000000        7.485184         2    ;  uncertainty k = 0.324122
        20        21        22        41     9        0.000000        1.472307         3    ;  uncertainty k = 0.284918
        20        21        22        41     9      180.000000        1.797932         4    ;  uncertainty k = 0.141422
        21        20        19        24     9        0.000000        0.054280         1    ;  uncertainty k = 0.070958
        21        20        19        24     9      180.000000       11.323589         2    ;  uncertainty k = 0.255219
        21        20        19        24     9        0.000000       -0.398648         3    ;  uncertainty k = 0.295855
        21        20        19        24     9      180.000000        0.856070         4    ;  uncertainty k = 0.274274
        21        22        23        24     9        0.000000       -0.005915         1    ;  uncertainty k = 0.081665
        21        22        23        24     9      180.000000       14.937442         2    ;  uncertainty k = 0.274385
        21        22        23        24     9        0.000000       -1.174651         3    ;  uncertainty k = 0.514660
        21        22        23        24     9      180.000000        0.534622         4    ;  uncertainty k = 0.278896
        21        22        23        42     9        0.000000        0.072466         1    ;  uncertainty k = 0.048534
        21        22        23        42     9      180.000000        7.567595         2    ;  uncertainty k = 0.302858
        21        22        23        42     9        0.000000        1.437008         3    ;  uncertainty k = 0.328858
        21        22        23        42     9      180.000000        1.801943         4    ;  uncertainty k = 0.135711
        22        21        20        39     9        0.000000        0.070258         1    ;  uncertainty k = 0.104109
        22        21        20        39     9      180.000000        7.941234         2    ;  uncertainty k = 0.249051
        22        21        20        39     9        0.000000        1.423809         3    ;  uncertainty k = 0.295934
        22        21        20        39     9      180.000000        1.855021         4    ;  uncertainty k = 0.191857
        22        23        24        43     9        0.000000        0.070258         1    ;  uncertainty k = 0.104109
        22        23        24        43     9      180.000000        7.941234         2    ;  uncertainty k = 0.249051
        22        23        24        43     9        0.000000        1.423809         3    ;  uncertainty k = 0.295934
        22        23        24        43     9      180.000000        1.855021         4    ;  uncertainty k = 0.191857
        23        22        21        40     9        0.000000        0.072466         1    ;  uncertainty k = 0.048534
        23        22        21        40     9      180.000000        7.567595         2    ;  uncertainty k = 0.302858
        23        22        21        40     9        0.000000        1.437008         3    ;  uncertainty k = 0.328858
        23        22        21        40     9      180.000000        1.801943         4    ;  uncertainty k = 0.135711
        24        19        18        25     9        0.000000       -0.431377         1    ;  uncertainty k = 0.367844
        24        19        18        25     9      180.000000        4.017202         2    ;  uncertainty k = 0.064864
        24        19        18        25     9        0.000000        0.329343         3    ;  uncertainty k = 0.140653
        24        19        18        25     9      180.000000       -0.068554         4    ;  uncertainty k = 0.037056
        24        19        20        39     9        0.000000        0.144733         1    ;  uncertainty k = 0.146288
        24        19        20        39     9      180.000000        6.916498         2    ;  uncertainty k = 0.541843
        24        19        20        39     9        0.000000        1.443876         3    ;  uncertainty k = 0.238855
        24        19        20        39     9      180.000000        1.627736         4    ;  uncertainty k = 0.238020
        24        23        22        41     9        0.000000        0.090794         1    ;  uncertainty k = 0.050551
        24        23        22        41     9      180.000000        7.485184         2    ;  uncertainty k = 0.324122
        24        23        22        41     9        0.000000        1.472307         3    ;  uncertainty k = 0.284918
        24        23        22        41     9      180.000000        1.797932         4    ;  uncertainty k = 0.141422
        25        18        17        38     9        0.000000       -0.018679         1    ;  uncertainty k = 0.193213
        25        18        17        38     9      180.000000        6.781428         2    ;  uncertainty k = 0.587029
        25        18        17        38     9        0.000000        1.358557         3    ;  uncertainty k = 0.271838
        25        18        17        38     9      180.000000        1.550241         4    ;  uncertainty k = 0.230004
        26        15        14        36     9        0.000000        0.543659         1    ;  uncertainty k = 0.735646
        26        15        14        36     9      180.000000        3.819996         2    ;  uncertainty k = 0.118272
        26        15        14        36     9        0.000000        0.689101         3    ;  uncertainty k = 0.139619
        26        15        14        36     9      180.000000        0.193436         4    ;  uncertainty k = 0.036455
        26        15        16        37     9        0.000000        0.113138         1    ;  uncertainty k = 0.264345
        26        15        16        37     9      180.000000        6.637287         2    ;  uncertainty k = 0.487498
        26        15        16        37     9        0.000000        1.258939         3    ;  uncertainty k = 0.325000
        26        15        16        37     9      180.000000        1.504807         4    ;  uncertainty k = 0.151449
        27        10         9        30     9        0.000000       -0.006292         1    ;  uncertainty k = 0.585644
        27        10         9        30     9      180.000000        5.409164         2    ;  uncertainty k = 1.404242
        27        10         9        30     9        0.000000       -0.113620         3    ;  uncertainty k = 0.195163
        27        10         9        30     9      180.000000        1.221279         4    ;  uncertainty k = 0.563245
        27        10        11        35     9        0.000000        0.848167         1    ;  uncertainty k = 0.508402
        27        10        11        35     9      180.000000        2.941024         2    ;  uncertainty k = 0.300123
        27        10        11        35     9        0.000000        0.417155         3    ;  uncertainty k = 0.206640
        27        10        11        35     9      180.000000        0.143213         4    ;  uncertainty k = 0.162479
        27        28        29        30     9        0.000000        0.122912         1    ;  uncertainty k = 0.377650
        27        28        29        30     9      180.000000       16.205381         2    ;  uncertainty k = 0.253453
        27        28        29        30     9        0.000000       -1.374142         3    ;  uncertainty k = 0.567401
        27        28        29        30     9      180.000000        0.764888         4    ;  uncertainty k = 0.233191
        27        28        29        48     9        0.000000       -0.129492         1    ;  uncertainty k = 0.287891
        27        28        29        48     9      180.000000        6.663214         2    ;  uncertainty k = 0.558015
        27        28        29        48     9        0.000000        1.279160         3    ;  uncertainty k = 0.228439
        27        28        29        48     9      180.000000        1.542370         4    ;  uncertainty k = 0.207679
        29        28        27        46     9        0.000000       -0.096931         1    ;  uncertainty k = 0.224660
        29        28        27        46     9      180.000000        7.599745         2    ;  uncertainty k = 0.300022
        29        28        27        46     9        0.000000        1.345913         3    ;  uncertainty k = 0.259017
        29        28        27        46     9      180.000000        1.606126         4    ;  uncertainty k = 0.220857
        30        29        28        47     9        0.000000        0.109573         1    ;  uncertainty k = 0.140059
        30        29        28        47     9      180.000000       10.004729         2    ;  uncertainty k = 0.564195
        30        29        28        47     9        0.000000        0.906338         3    ;  uncertainty k = 0.280019
        30        29        28        47     9      180.000000        1.603453         4    ;  uncertainty k = 0.128880
        31         7         6        34     9        0.000000        0.352483         1    ;  uncertainty k = 0.339484
        31         7         6        34     9      180.000000        6.361093         2    ;  uncertainty k = 0.726341
        31         7         6        34     9        0.000000        1.436523         3    ;  uncertainty k = 0.297367
        31         7         6        34     9      180.000000        1.632782         4    ;  uncertainty k = 0.226382
        31        32        33        51     9        0.000000        0.045855         1    ;  uncertainty k = 0.139452
        31        32        33        51     9      180.000000        7.634182         2    ;  uncertainty k = 0.325719
        31        32        33        51     9        0.000000        1.429700         3    ;  uncertainty k = 0.294025
        31        32        33        51     9      180.000000        1.813094         4    ;  uncertainty k = 0.105599
        33         5         6        34     9        0.000000        0.268151         1    ;  uncertainty k = 0.190038
        33         5         6        34     9      180.000000        7.491647         2    ;  uncertainty k = 0.392990
        33         5         6        34     9        0.000000        1.431311         3    ;  uncertainty k = 0.350125
        33         5         6        34     9      180.000000        1.713380         4    ;  uncertainty k = 0.259230
        33        32        31        49     9        0.000000        0.088445         1    ;  uncertainty k = 0.118077
        33        32        31        49     9      180.000000        7.757901         2    ;  uncertainty k = 0.350509
        33        32        31        49     9        0.000000        1.478620         3    ;  uncertainty k = 0.245127
        33        32        31        49     9      180.000000        1.826841         4    ;  uncertainty k = 0.156239
        37        16        17        38     9        0.000000       -0.090240         1    ;  uncertainty k = 0.357103
        37        16        17        38     9      180.000000        8.121724         2    ;  uncertainty k = 0.452206
        37        16        17        38     9        0.000000       -0.424798         3    ;  uncertainty k = 0.290628
        37        16        17        38     9      180.000000        0.319246         4    ;  uncertainty k = 0.198921
        39        20        21        40     9        0.000000       -0.084537         1    ;  uncertainty k = 0.118206
        39        20        21        40     9      180.000000        7.802507         2    ;  uncertainty k = 0.311318
        39        20        21        40     9        0.000000       -0.481914         3    ;  uncertainty k = 0.277163
        39        20        21        40     9      180.000000        0.132435         4    ;  uncertainty k = 0.122308
        40        21        22        41     9        0.000000       -0.054066         1    ;  uncertainty k = 0.098599
        40        21        22        41     9      180.000000        7.627307         2    ;  uncertainty k = 0.408951
        40        21        22        41     9        0.000000       -0.419010         3    ;  uncertainty k = 0.294816
        40        21        22        41     9      180.000000        0.038054         4    ;  uncertainty k = 0.143388
        41        22        23        42     9        0.000000       -0.054066         1    ;  uncertainty k = 0.098599
        41        22        23        42     9      180.000000        7.627307         2    ;  uncertainty k = 0.408951
        41        22        23        42     9        0.000000       -0.419010         3    ;  uncertainty k = 0.294816
        41        22        23        42     9      180.000000        0.038054         4    ;  uncertainty k = 0.143388
        42        23        24        43     9        0.000000       -0.084537         1    ;  uncertainty k = 0.118206
        42        23        24        43     9      180.000000        7.802507         2    ;  uncertainty k = 0.311318
        42        23        24        43     9        0.000000       -0.481914         3    ;  uncertainty k = 0.277163
        42        23        24        43     9      180.000000        0.132435         4    ;  uncertainty k = 0.122308
        44        25        26        45     9        0.000000       -0.090240         1    ;  uncertainty k = 0.357103
        44        25        26        45     9      180.000000        8.121724         2    ;  uncertainty k = 0.452206
        44        25        26        45     9        0.000000       -0.424798         3    ;  uncertainty k = 0.290628
        44        25        26        45     9      180.000000        0.319246         4    ;  uncertainty k = 0.198921
        46        27        28        47     9        0.000000        0.077279         1    ;  uncertainty k = 0.355604
        46        27        28        47     9      180.000000        7.819656         2    ;  uncertainty k = 0.531205
        46        27        28        47     9        0.000000       -0.430593         3    ;  uncertainty k = 0.317162
        46        27        28        47     9      180.000000        0.145196         4    ;  uncertainty k = 0.160605
        47        28        29        48     9        0.000000       -0.176777         1    ;  uncertainty k = 0.222997
        47        28        29        48     9      180.000000        6.567606         2    ;  uncertainty k = 0.260169
        47        28        29        48     9        0.000000       -0.010461         3    ;  uncertainty k = 0.138989
        47        28        29        48     9      180.000000        0.217241         4    ;  uncertainty k = 0.090307
        49        31        32        50     9        0.000000       -0.111312         1    ;  uncertainty k = 0.116733
        49        31        32        50     9      180.000000        7.570028         2    ;  uncertainty k = 0.334358
        49        31        32        50     9        0.000000       -0.403022         3    ;  uncertainty k = 0.287478
        49        31        32        50     9      180.000000        0.119544         4    ;  uncertainty k = 0.101293
        50        32        33        51     9        0.000000       -0.002553         1    ;  uncertainty k = 0.115730
        50        32        33        51     9      180.000000        7.661892         2    ;  uncertainty k = 0.473726
        50        32        33        51     9        0.000000       -0.390381         3    ;  uncertainty k = 0.286358
        50        32        33        51     9      180.000000        0.068734         4    ;  uncertainty k = 0.168306

[ dihedrals ] ; impropers
;       ai        aj        ak        al funct           phase               k        pn
         5         2         6        33     4      180.000000        8.646184         2    ;  uncertainty k = 0.131479
         5         6        33         2     4      180.000000        8.646184         2    ;  uncertainty k = 0.131479
         5        33         2         6     4      180.000000        8.646184         2    ;  uncertainty k = 0.131479
         6         5         7        34     4      180.000000        3.523441         2    ;  uncertainty k = 0.117653
         6         7        34         5     4      180.000000        3.523441         2    ;  uncertainty k = 0.117653
         6        34         5         7     4      180.000000        3.523441         2    ;  uncertainty k = 0.117653
         7         6         8        31     4      180.000000       16.372354         2    ;  uncertainty k = 0.070186
         7         8        31         6     4      180.000000       16.372354         2    ;  uncertainty k = 0.070186
         7        31         6         8     4      180.000000       16.372354         2    ;  uncertainty k = 0.070186
         9         8        10        30     4      180.000000       23.632419         2    ;  uncertainty k = 0.090188
         9        10        30         8     4      180.000000       23.632419         2    ;  uncertainty k = 0.090188
         9        30         8        10     4      180.000000       23.632419         2    ;  uncertainty k = 0.090188
        10         9        11        27     4      180.000000       13.075348         2    ;  uncertainty k = 0.235826
        10        11        27         9     4      180.000000       13.075348         2    ;  uncertainty k = 0.235826
        10        27         9        11     4      180.000000       13.075348         2    ;  uncertainty k = 0.235826
        11        10        12        35     4      180.000000        0.392747         2    ;  uncertainty k = 0.562768
        11        12        35        10     4      180.000000        0.392747         2    ;  uncertainty k = 0.562768
        11        35        10        12     4      180.000000        0.392747         2    ;  uncertainty k = 0.562768
        12        11        13        14     4      180.000000       63.229436         2    ;  uncertainty k = 0.059119
        12        13        14        11     4      180.000000       63.229436         2    ;  uncertainty k = 0.059119
        12        14        11        13     4      180.000000       63.229436         2    ;  uncertainty k = 0.059119
        14        12        15        36     4      180.000000        0.550419         2    ;  uncertainty k = 0.610137
        14        15        36        12     4      180.000000        0.550419         2    ;  uncertainty k = 0.610137
        14        36        12        15     4      180.000000        0.550419         2    ;  uncertainty k = 0.610137
        15        14        16        26     4      180.000000       18.236330         2    ;  uncertainty k = 0.096427
        15        16        26        14     4      180.000000       18.236330         2    ;  uncertainty k = 0.096427
        15        26        14        16     4      180.000000       18.236330         2    ;  uncertainty k = 0.096427
        16        15        17        37     4      180.000000        2.659981         2    ;  uncertainty k = 0.306072
        16        17        37        15     4      180.000000        2.659981         2    ;  uncertainty k = 0.306072
        16        37        15        17     4      180.000000        2.659981         2    ;  uncertainty k = 0.306072
        17        16        18        38     4      180.000000        3.593665         2    ;  uncertainty k = 0.096243
        17        18        38        16     4      180.000000        3.593665         2    ;  uncertainty k = 0.096243
        17        38        16        18     4      180.000000        3.593665         2    ;  uncertainty k = 0.096243
        18        17        19        25     4      180.000000       12.786186         2    ;  uncertainty k = 0.052851
        18        19        25        17     4      180.000000       12.786186         2    ;  uncertainty k = 0.052851
        18        25        17        19     4      180.000000       12.786186         2    ;  uncertainty k = 0.052851
        19        18        20        24     4      180.000000       14.579853         2    ;  uncertainty k = 0.076963
        19        20        24        18     4      180.000000       14.579853         2    ;  uncertainty k = 0.076963
        19        24        18        20     4      180.000000       14.579853         2    ;  uncertainty k = 0.076963
        20        19        21        39     4      180.000000        3.853594         2    ;  uncertainty k = 0.082165
        20        21        39        19     4      180.000000        3.853594         2    ;  uncertainty k = 0.082165
        20        39        19        21     4      180.000000        3.853594         2    ;  uncertainty k = 0.082165
        21        20        22        40     4      180.000000        4.126556         2    ;  uncertainty k = 0.085647
        21        22        40        20     4      180.000000        4.126556         2    ;  uncertainty k = 0.085647
        21        40        20        22     4      180.000000        4.126556         2    ;  uncertainty k = 0.085647
        22        21        23        41     4      180.000000        4.364183         2    ;  uncertainty k = 0.168223
        22        23        41        21     4      180.000000        4.364183         2    ;  uncertainty k = 0.168223
        22        41        21        23     4      180.000000        4.364183         2    ;  uncertainty k = 0.168223
        23        22        24        42     4      180.000000        4.126556         2    ;  uncertainty k = 0.085647
        23        24        42        22     4      180.000000        4.126556         2    ;  uncertainty k = 0.085647
        23        42        22        24     4      180.000000        4.126556         2    ;  uncertainty k = 0.085647
        24        19        23        43     4      180.000000        3.853594         2    ;  uncertainty k = 0.082165
        24        23        43        19     4      180.000000        3.853594         2    ;  uncertainty k = 0.082165
        24        43        19        23     4      180.000000        3.853594         2    ;  uncertainty k = 0.082165
        25        18        26        44     4      180.000000        3.593665         2    ;  uncertainty k = 0.096243
        25        26        44        18     4      180.000000        3.593665         2    ;  uncertainty k = 0.096243
        25        44        18        26     4      180.000000        3.593665         2    ;  uncertainty k = 0.096243
        26        15        25        45     4      180.000000        2.659981         2    ;  uncertainty k = 0.306072
        26        25        45        15     4      180.000000        2.659981         2    ;  uncertainty k = 0.306072
        26        45        15        25     4      180.000000        2.659981         2    ;  uncertainty k = 0.306072
        27        10        28        46     4      180.000000        4.523754         2    ;  uncertainty k = 0.211544
        27        28        46        10     4      180.000000        4.523754         2    ;  uncertainty k = 0.211544
        27        46        10        28     4      180.000000        4.523754         2    ;  uncertainty k = 0.211544
        28        27        29        47     4      180.000000        2.219263         2    ;  uncertainty k = 0.396250
        28        29        47        27     4      180.000000        2.219263         2    ;  uncertainty k = 0.396250
        28        47        27        29     4      180.000000        2.219263         2    ;  uncertainty k = 0.396250
        29        28        30        48     4      180.000000       11.532154         2    ;  uncertainty k = 0.089528
        29        30        48        28     4      180.000000       11.532154         2    ;  uncertainty k = 0.089528
        29        48        28        30     4      180.000000       11.532154         2    ;  uncertainty k = 0.089528
        31         7        32        49     4      180.000000        3.153034         2    ;  uncertainty k = 0.114221
        31        32        49         7     4      180.000000        3.153034         2    ;  uncertainty k = 0.114221
        31        49         7        32     4      180.000000        3.153034         2    ;  uncertainty k = 0.114221
        32        31        33        50     4      180.000000        4.325330         2    ;  uncertainty k = 0.198960
        32        33        50        31     4      180.000000        4.325330         2    ;  uncertainty k = 0.198960
        32        50        31        33     4      180.000000        4.325330         2    ;  uncertainty k = 0.198960
        33         5        32        51     4      180.000000        4.036363         2    ;  uncertainty k = 0.083904
        33        32        51         5     4      180.000000        4.036363         2    ;  uncertainty k = 0.083904
        33        51         5        32     4      180.000000        4.036363         2    ;  uncertainty k = 0.083904

[ pairs ]
;       ai        aj funct
         1         6     1
         1        33     1
         2         7     1
         2        32     1
         2        34     1
         2        51     1
         3         6     1
         3        33     1
         4         6     1
         4        33     1
         5         8     1
         5        31     1
         5        50     1
         6         9     1
         6        32     1
         6        49     1
         6        51     1
         7        10     1
         7        30     1
         7        33     1
         7        50     1
         8        11     1
         8        27     1
         8        29     1
         8        32     1
         8        34     1
         8        49     1
         9        12     1
         9        28     1
         9        31     1
         9        35     1
         9        46     1
         9        48     1
        10        13     1
        10        14     1
        10        29     1
        10        47     1
        11        15     1
        11        28     1
        11        30     1
        11        36     1
        11        46     1
        12        16     1
        12        26     1
        12        27     1
        13        15     1
        13        35     1
        13        36     1
        14        17     1
        14        25     1
        14        35     1
        14        37     1
        14        45     1
        15        18     1
        15        38     1
        15        44     1
        16        19     1
        16        25     1
        16        36     1
        16        45     1
        17        20     1
        17        24     1
        17        26     1
        17        44     1
        18        21     1
        18        23     1
        18        37     1
        18        39     1
        18        43     1
        18        45     1
        19        22     1
        19        26     1
        19        38     1
        19        40     1
        19        42     1
        19        44     1
        20        23     1
        20        25     1
        20        41     1
        20        43     1
        21        24     1
        21        42     1
        22        39     1
        22        43     1
        23        40     1
        24        25     1
        24        39     1
        24        41     1
        25        38     1
        26        36     1
        26        37     1
        27        30     1
        27        35     1
        27        48     1
        29        46     1
        30        47     1
        31        34     1
        31        51     1
        33        34     1
        33        49     1
        37        38     1
        39        40     1
        40        41     1
        41        42     1
        42        43     1
        44        45     1
        46        47     1
        47        48     1
        49        50     1
        50        51     1
