; ITP file created by ByteFF-joint-25, 2025-07-14 11:28:58.782837

[ atomtypes ]
;name           bonded.type        at.num        mass        charge   ptype           sigma         epsilon
 cl0bf                                 17      0.0000       0.00000       A     3.46613e-01     1.10426e+00    ;  uncertainty sigma = 0.000016, epsilon = 0.001548
 c1bf                                   6      0.0000       0.00000       A     3.31512e-01     4.13196e-01    ;  uncertainty sigma = 0.000004, epsilon = 0.000653
 c2bf                                   6      0.0000       0.00000       A     3.31526e-01     4.13407e-01    ;  uncertainty sigma = 0.000004, epsilon = 0.000619
 cl3bf                                 17      0.0000       0.00000       A     3.46651e-01     1.10491e+00    ;  uncertainty sigma = 0.000014, epsilon = 0.001348
 c4bf                                   6      0.0000       0.00000       A     3.31521e-01     4.13345e-01    ;  uncertainty sigma = 0.000006, epsilon = 0.000730
 c5bf                                   6      0.0000       0.00000       A     3.31529e-01     4.13460e-01    ;  uncertainty sigma = 0.000005, epsilon = 0.000544
 c6bf                                   6      0.0000       0.00000       A     3.31543e-01     4.13090e-01    ;  uncertainty sigma = 0.000016, epsilon = 0.000937
 n7bf                                   7      0.0000       0.00000       A     3.27011e-01     4.89809e-01    ;  uncertainty sigma = 0.000035, epsilon = 0.001876
 c8bf                                   6      0.0000       0.00000       A     3.31430e-01     4.12461e-01    ;  uncertainty sigma = 0.000089, epsilon = 0.001757
 o9bf                                   8      0.0000       0.00000       A     3.04768e-01     6.12506e-01    ;  uncertainty sigma = 0.000026, epsilon = 0.002291
 n10bf                                  7      0.0000       0.00000       A     3.26911e-01     4.90562e-01    ;  uncertainty sigma = 0.000022, epsilon = 0.003078
 c11bf                                  6      0.0000       0.00000       A     3.31550e-01     4.12934e-01    ;  uncertainty sigma = 0.000036, epsilon = 0.001226
 c12bf                                  6      0.0000       0.00000       A     3.31577e-01     4.13277e-01    ;  uncertainty sigma = 0.000020, epsilon = 0.000425
 o13bf                                  8      0.0000       0.00000       A     3.15742e-01     3.04478e-01    ;  uncertainty sigma = 0.000034, epsilon = 0.001935
 c14bf                                  6      0.0000       0.00000       A     3.31524e-01     4.13769e-01    ;  uncertainty sigma = 0.000014, epsilon = 0.000755
 c15bf                                  6      0.0000       0.00000       A     3.31514e-01     4.13260e-01    ;  uncertainty sigma = 0.000005, epsilon = 0.000910
 c16bf                                  6      0.0000       0.00000       A     3.31516e-01     4.13636e-01    ;  uncertainty sigma = 0.000009, epsilon = 0.001109
 c17bf                                  6      0.0000       0.00000       A     3.39807e-01     4.50244e-01    ;  uncertainty sigma = 0.000018, epsilon = 0.000749
 f18bf                                  9      0.0000       0.00000       A     3.03450e-01     3.47874e-01    ;  uncertainty sigma = 0.000008, epsilon = 0.001301
 f19bf                                  9      0.0000       0.00000       A     3.03450e-01     3.47874e-01    ;  uncertainty sigma = 0.000008, epsilon = 0.001301
 f20bf                                  9      0.0000       0.00000       A     3.03450e-01     3.47874e-01    ;  uncertainty sigma = 0.000008, epsilon = 0.001301
 c21bf                                  6      0.0000       0.00000       A     3.31514e-01     4.13103e-01    ;  uncertainty sigma = 0.000005, epsilon = 0.000624
 c22bf                                  6      0.0000       0.00000       A     3.31518e-01     4.13409e-01    ;  uncertainty sigma = 0.000004, epsilon = 0.000593
 c23bf                                  6      0.0000       0.00000       A     3.31516e-01     4.13581e-01    ;  uncertainty sigma = 0.000006, epsilon = 0.000572
 n24bf                                  7      0.0000       0.00000       A     3.38387e-01     3.93418e-01    ;  uncertainty sigma = 0.000011, epsilon = 0.000773
 c25bf                                  6      0.0000       0.00000       A     3.31528e-01     4.13303e-01    ;  uncertainty sigma = 0.000012, epsilon = 0.000565
 c26bf                                  6      0.0000       0.00000       A     3.31519e-01     4.13136e-01    ;  uncertainty sigma = 0.000006, epsilon = 0.000735
 c27bf                                  6      0.0000       0.00000       A     3.31539e-01     4.13381e-01    ;  uncertainty sigma = 0.000004, epsilon = 0.001208
 c28bf                                  6      0.0000       0.00000       A     3.31525e-01     4.13252e-01    ;  uncertainty sigma = 0.000007, epsilon = 0.000510
 h29bf                                  1      0.0000       0.00000       A     2.62558e-01     6.69954e-02    ;  uncertainty sigma = 0.000010, epsilon = 0.000606
 h30bf                                  1      0.0000       0.00000       A     2.62559e-01     6.70083e-02    ;  uncertainty sigma = 0.000010, epsilon = 0.000434
 h31bf                                  1      0.0000       0.00000       A     1.10658e-01     4.17921e-02    ;  uncertainty sigma = 0.000100, epsilon = 0.000972
 h32bf                                  1      0.0000       0.00000       A     1.10682e-01     4.19025e-02    ;  uncertainty sigma = 0.000080, epsilon = 0.001074
 h33bf                                  1      0.0000       0.00000       A     2.62538e-01     6.71612e-02    ;  uncertainty sigma = 0.000012, epsilon = 0.000800
 h34bf                                  1      0.0000       0.00000       A     2.62557e-01     6.69727e-02    ;  uncertainty sigma = 0.000012, epsilon = 0.000520
 h35bf                                  1      0.0000       0.00000       A     2.62568e-01     6.69722e-02    ;  uncertainty sigma = 0.000010, epsilon = 0.000464
 h36bf                                  1      0.0000       0.00000       A     2.62561e-01     6.71298e-02    ;  uncertainty sigma = 0.000006, epsilon = 0.000455
 h37bf                                  1      0.0000       0.00000       A     2.53636e-01     6.70246e-02    ;  uncertainty sigma = 0.000013, epsilon = 0.000470
 h38bf                                  1      0.0000       0.00000       A     2.62567e-01     6.71100e-02    ;  uncertainty sigma = 0.000011, epsilon = 0.000575
 h39bf                                  1      0.0000       0.00000       A     2.62550e-01     6.71051e-02    ;  uncertainty sigma = 0.000018, epsilon = 0.000451
 h40bf                                  1      0.0000       0.00000       A     2.62565e-01     6.70299e-02    ;  uncertainty sigma = 0.000009, epsilon = 0.000534

[ moleculetype ]
;name             nrexcl
 MOL                   3

[ atoms ]
;       nr            type      resi   res      atom      cgnr      charge          mass ; qtot
         1           cl0bf         1   UNL       cl0         1    -0.08459       35.4530 ; qtot   -0.085
         2            c1bf         1   UNL        c1         2     0.06489       12.0110 ; qtot   -0.020
         3            c2bf         1   UNL        c2         3     0.00273       12.0110 ; qtot   -0.017
         4           cl3bf         1   UNL       cl3         4    -0.08561       35.4530 ; qtot   -0.103
         5            c4bf         1   UNL        c4         5    -0.08303       12.0110 ; qtot   -0.186
         6            c5bf         1   UNL        c5         6    -0.16428       12.0110 ; qtot   -0.350
         7            c6bf         1   UNL        c6         7     0.09532       12.0110 ; qtot   -0.255
         8            n7bf         1   UNL        n7         8    -0.48880       14.0070 ; qtot   -0.743
         9            c8bf         1   UNL        c8         9     0.80040       12.0110 ; qtot    0.057
        10            o9bf         1   UNL        o9        10    -0.59887       15.9990 ; qtot   -0.542
        11           n10bf         1   UNL       n10        11    -0.47413       14.0070 ; qtot   -1.016
        12           c11bf         1   UNL       c11        12    -0.04576       12.0110 ; qtot   -1.062
        13           c12bf         1   UNL       c12        13     0.59681       12.0110 ; qtot   -0.465
        14           o13bf         1   UNL       o13        14    -0.38813       15.9990 ; qtot   -0.853
        15           c14bf         1   UNL       c14        15     0.11385       12.0110 ; qtot   -0.739
        16           c15bf         1   UNL       c15        16    -0.08749       12.0110 ; qtot   -0.827
        17           c16bf         1   UNL       c16        17    -0.16749       12.0110 ; qtot   -0.994
        18           c17bf         1   UNL       c17        18     0.70937       12.0110 ; qtot   -0.285
        19           f18bf         1   UNL       f18        19    -0.22905       18.9980 ; qtot   -0.514
        20           f19bf         1   UNL       f19        20    -0.22905       18.9980 ; qtot   -0.743
        21           f20bf         1   UNL       f20        21    -0.22905       18.9980 ; qtot   -0.972
        22           c21bf         1   UNL       c21        22    -0.09679       12.0110 ; qtot   -1.069
        23           c22bf         1   UNL       c22        23    -0.11259       12.0110 ; qtot   -1.181
        24           c23bf         1   UNL       c23        24    -0.11807       12.0110 ; qtot   -1.299
        25           n24bf         1   UNL       n24        25    -0.69921       14.0070 ; qtot   -1.999
        26           c25bf         1   UNL       c25        26     0.39652       12.0110 ; qtot   -1.602
        27           c26bf         1   UNL       c26        27    -0.24092       12.0110 ; qtot   -1.843
        28           c27bf         1   UNL       c27        28    -0.10097       12.0110 ; qtot   -1.944
        29           c28bf         1   UNL       c28        29    -0.16367       12.0110 ; qtot   -2.108
        30           h29bf         1   UNL       h29        30     0.15409        1.0080 ; qtot   -1.954
        31           h30bf         1   UNL       h30        31     0.15976        1.0080 ; qtot   -1.794
        32           h31bf         1   UNL       h31        32     0.32512        1.0080 ; qtot   -1.469
        33           h32bf         1   UNL       h32        33     0.34303        1.0080 ; qtot   -1.126
        34           h33bf         1   UNL       h33        34     0.16649        1.0080 ; qtot   -0.959
        35           h34bf         1   UNL       h34        35     0.15186        1.0080 ; qtot   -0.807
        36           h35bf         1   UNL       h35        36     0.14308        1.0080 ; qtot   -0.664
        37           h36bf         1   UNL       h36        37     0.15133        1.0080 ; qtot   -0.513
        38           h37bf         1   UNL       h37        38     0.02625        1.0080 ; qtot   -0.487
        39           h38bf         1   UNL       h38        39     0.14569        1.0080 ; qtot   -0.341
        40           h39bf         1   UNL       h39        40     0.17117        1.0080 ; qtot   -0.170
        41           h40bf         1   UNL       h40        41     0.16979        1.0080 ; qtot   -0.000

[ bonds ]
;       ai        aj funct               r               k
         1         2     1        0.174642   193277.995361    ;  uncertainty r = 0.000038, k = 2.915019
         2         3     1        0.139919   349742.102441    ;  uncertainty r = 0.000018, k = 3.285813
         2        29     1        0.139333   358149.531738    ;  uncertainty r = 0.000027, k = 5.071128
         3         4     1        0.174736   192520.615771    ;  uncertainty r = 0.000038, k = 3.749267
         3         5     1        0.139638   363003.957471    ;  uncertainty r = 0.000026, k = 1.101019
         5         6     1        0.139014   372116.542969    ;  uncertainty r = 0.000015, k = 2.053336
         5        30     1        0.108643   334839.258301    ;  uncertainty r = 0.000018, k = 0.961617
         6         7     1        0.140214   355191.287451    ;  uncertainty r = 0.000049, k = 3.294295
         6        31     1        0.108643   336044.456641    ;  uncertainty r = 0.000012, k = 2.485012
         7         8     1        0.140816   328998.002051    ;  uncertainty r = 0.000106, k = 8.899869
         7        29     1        0.140097   358777.182812    ;  uncertainty r = 0.000068, k = 5.394710
         8         9     1        0.139924   394444.276123    ;  uncertainty r = 0.000126, k = 16.404391
         8        32     1        0.101903   422577.207129    ;  uncertainty r = 0.000035, k = 2.696912
         9        10     1        0.124145   784756.086133    ;  uncertainty r = 0.000126, k = 12.841139
         9        11     1        0.139930   382450.287500    ;  uncertainty r = 0.000140, k = 14.422871
        11        12     1        0.140096   339046.216162    ;  uncertainty r = 0.000118, k = 8.055134
        11        33     1        0.101870   417728.195264    ;  uncertainty r = 0.000093, k = 3.473106
        12        13     1        0.140110   355790.847705    ;  uncertainty r = 0.000180, k = 18.434716
        12        28     1        0.139587   350172.658105    ;  uncertainty r = 0.000051, k = 12.669227
        13        14     1        0.137456   295567.576465    ;  uncertainty r = 0.000121, k = 7.043869
        13        25     1        0.131673   342519.850391    ;  uncertainty r = 0.000195, k = 23.816176
        14        15     1        0.138532   314308.673682    ;  uncertainty r = 0.000052, k = 8.971879
        15        16     1        0.139094   353843.413281    ;  uncertainty r = 0.000040, k = 3.656161
        15        24     1        0.139222   354352.674316    ;  uncertainty r = 0.000036, k = 2.697108
        16        17     1        0.138556   347781.567480    ;  uncertainty r = 0.000101, k = 2.673954
        16        34     1        0.108679   332885.490674    ;  uncertainty r = 0.000010, k = 0.906594
        17        18     1        0.149137   215527.840332    ;  uncertainty r = 0.000061, k = 1.127544
        17        22     1        0.138974   350508.956299    ;  uncertainty r = 0.000051, k = 2.268711
        18        19     1        0.135326   286985.958545    ;  uncertainty r = 0.000042, k = 3.079748
        18        20     1        0.135326   286985.958545    ;  uncertainty r = 0.000042, k = 3.079748
        18        21     1        0.135326   286985.958545    ;  uncertainty r = 0.000042, k = 3.079748
        22        23     1        0.139480   367362.069482    ;  uncertainty r = 0.000037, k = 2.422113
        22        35     1        0.108641   332705.811572    ;  uncertainty r = 0.000020, k = 0.826440
        23        24     1        0.139275   372627.234082    ;  uncertainty r = 0.000029, k = 1.736824
        23        36     1        0.108743   333039.504980    ;  uncertainty r = 0.000015, k = 1.385174
        24        37     1        0.108795   335979.132715    ;  uncertainty r = 0.000019, k = 0.979490
        25        26     1        0.134174   386160.574121    ;  uncertainty r = 0.000069, k = 8.080806
        26        27     1        0.139039   373281.443750    ;  uncertainty r = 0.000047, k = 3.782626
        26        38     1        0.108937   336014.271777    ;  uncertainty r = 0.000016, k = 1.810751
        27        28     1        0.139560   376722.211719    ;  uncertainty r = 0.000043, k = 3.130764
        27        39     1        0.108806   337266.713770    ;  uncertainty r = 0.000012, k = 1.595175
        28        40     1        0.108477   334523.798389    ;  uncertainty r = 0.000051, k = 3.409754
        29        41     1        0.108643   337479.795410    ;  uncertainty r = 0.000044, k = 2.258254

[ angles ]
;       ai        aj        ak funct           theta             cth
         1         2         3     1      121.173302      440.554911    ;  uncertainty theta = 0.001243, k = 0.060535
         1         2        29     1      119.885338      452.001888    ;  uncertainty theta = 0.002772, k = 0.153977
         2         3         4     1      121.137924      436.946230    ;  uncertainty theta = 0.002160, k = 0.081226
         2         3         5     1      119.910690      355.512251    ;  uncertainty theta = 0.002614, k = 0.143620
         2        29         7     1      119.760986      493.304619    ;  uncertainty theta = 0.002598, k = 0.084130
         2        29        41     1      120.724075      295.080214    ;  uncertainty theta = 0.002217, k = 0.134798
         3         2        29     1      121.672531      353.890900    ;  uncertainty theta = 0.001853, k = 0.139319
         3         5         6     1      121.213745      486.349141    ;  uncertainty theta = 0.000920, k = 0.058859
         3         5        30     1      119.857948      283.127442    ;  uncertainty theta = 0.001748, k = 0.055481
         4         3         5     1      120.408058      452.524729    ;  uncertainty theta = 0.001839, k = 0.039041
         5         6         7     1      119.296249      500.384847    ;  uncertainty theta = 0.001513, k = 0.084424
         5         6        31     1      120.447220      314.551270    ;  uncertainty theta = 0.001578, k = 0.140959
         6         5        30     1      120.269264      271.315954    ;  uncertainty theta = 0.002657, k = 0.063011
         6         7         8     1      120.178879      537.956063    ;  uncertainty theta = 0.004159, k = 0.090846
         6         7        29     1      119.459030      386.884015    ;  uncertainty theta = 0.006781, k = 0.132563
         7         6        31     1      119.066734      264.283896    ;  uncertainty theta = 0.000906, k = 0.063688
         7         8         9     1      118.214355      401.591826    ;  uncertainty theta = 0.007201, k = 0.060208
         7         8        32     1      114.284401      302.447159    ;  uncertainty theta = 0.006859, k = 0.363664
         7        29        41     1      119.555298      262.087130    ;  uncertainty theta = 0.001273, k = 0.043568
         8         7        29     1      119.489456      530.956789    ;  uncertainty theta = 0.003861, k = 0.113278
         8         9        10     1      125.129623      717.873682    ;  uncertainty theta = 0.004690, k = 0.062166
         8         9        11     1      111.567566      572.111053    ;  uncertainty theta = 0.005894, k = 0.243003
         9         8        32     1      117.007896      319.527399    ;  uncertainty theta = 0.007153, k = 0.162437
         9        11        12     1      118.191467      382.545068    ;  uncertainty theta = 0.006597, k = 0.353697
         9        11        33     1      118.027504      326.505382    ;  uncertainty theta = 0.007877, k = 0.178566
        10         9        11     1      125.188744      728.667516    ;  uncertainty theta = 0.005334, k = 0.101797
        11        12        13     1      117.092575      491.278569    ;  uncertainty theta = 0.007126, k = 0.229131
        11        12        28     1      122.491959      468.987673    ;  uncertainty theta = 0.005717, k = 0.226574
        12        11        33     1      114.704041      335.957688    ;  uncertainty theta = 0.005639, k = 0.195191
        12        13        14     1      116.530540      390.693960    ;  uncertainty theta = 0.012172, k = 0.316589
        12        13        25     1      125.653397      515.566722    ;  uncertainty theta = 0.002376, k = 0.153093
        12        28        27     1      118.664589      535.632314    ;  uncertainty theta = 0.002867, k = 0.172990
        12        28        40     1      117.850075      264.486868    ;  uncertainty theta = 0.003879, k = 0.116474
        13        12        28     1      117.575417      353.893836    ;  uncertainty theta = 0.008911, k = 0.132789
        13        14        15     1      113.059975      473.447729    ;  uncertainty theta = 0.007514, k = 0.198938
        13        25        26     1      118.982071      388.605918    ;  uncertainty theta = 0.003083, k = 0.211257
        14        13        25     1      116.747131      568.431731    ;  uncertainty theta = 0.007457, k = 0.117546
        14        15        16     1      119.209549      406.140145    ;  uncertainty theta = 0.002397, k = 0.063411
        14        15        24     1      120.049278      419.740666    ;  uncertainty theta = 0.001725, k = 0.093993
        15        16        17     1      118.864952      508.527450    ;  uncertainty theta = 0.002845, k = 0.197951
        15        16        34     1      120.623009      281.233099    ;  uncertainty theta = 0.003246, k = 0.049393
        15        24        23     1      117.594139      518.928427    ;  uncertainty theta = 0.002508, k = 0.052964
        15        24        37     1      120.314964      277.616661    ;  uncertainty theta = 0.001021, k = 0.060898
        16        15        24     1      121.950890      373.168512    ;  uncertainty theta = 0.004064, k = 0.157752
        16        17        18     1      115.496521      350.324770    ;  uncertainty theta = 0.005914, k = 0.124689
        16        17        22     1      122.656799      467.566022    ;  uncertainty theta = 0.003025, k = 0.100386
        17        16        34     1      119.226295      277.135287    ;  uncertainty theta = 0.002912, k = 0.100269
        17        18        19     1      112.945602      661.607385    ;  uncertainty theta = 0.002125, k = 0.029099
        17        18        20     1      112.945602      661.607385    ;  uncertainty theta = 0.002125, k = 0.029099
        17        18        21     1      112.945602      661.607385    ;  uncertainty theta = 0.002125, k = 0.029099
        17        22        23     1      119.255554      512.146569    ;  uncertainty theta = 0.001818, k = 0.042517
        17        22        35     1      118.405869      274.175408    ;  uncertainty theta = 0.002940, k = 0.043008
        18        17        22     1      116.478043      341.375130    ;  uncertainty theta = 0.005609, k = 0.113786
        19        18        20     1      107.682266      790.161449    ;  uncertainty theta = 0.001820, k = 0.019275
        19        18        21     1      107.682266      790.161449    ;  uncertainty theta = 0.001820, k = 0.019275
        20        18        21     1      107.682266      790.161449    ;  uncertainty theta = 0.001820, k = 0.019275
        22        23        24     1      120.533386      511.752021    ;  uncertainty theta = 0.002153, k = 0.049486
        22        23        36     1      119.962425      281.972813    ;  uncertainty theta = 0.000658, k = 0.030297
        23        22        35     1      120.654930      286.912935    ;  uncertainty theta = 0.002806, k = 0.061171
        23        24        37     1      121.377441      292.172718    ;  uncertainty theta = 0.001338, k = 0.032523
        24        23        36     1      119.824585      284.259342    ;  uncertainty theta = 0.001720, k = 0.029816
        25        26        27     1      122.018661      680.497696    ;  uncertainty theta = 0.002657, k = 0.057695
        25        26        38     1      116.528885      326.284582    ;  uncertainty theta = 0.003532, k = 0.089660
        26        27        28     1      116.662033      486.639338    ;  uncertainty theta = 0.002659, k = 0.164042
        26        27        39     1      121.531288      284.776501    ;  uncertainty theta = 0.000829, k = 0.071895
        27        26        38     1      121.479820      279.479466    ;  uncertainty theta = 0.001106, k = 0.075570
        27        28        40     1      121.491959      306.835200    ;  uncertainty theta = 0.004314, k = 0.137900
        28        27        39     1      121.692772      278.904338    ;  uncertainty theta = 0.003629, k = 0.116071

[ dihedrals ] ; propers for gromacs 4.5 or higher, use funct 9
;       ai        aj        ak        al funct           phase               k        pn
         1         2         3         4     9        0.000000       -0.043508         1    ;  uncertainty k = 0.741723
         1         2         3         4     9      180.000000        6.954374         2    ;  uncertainty k = 0.240190
         1         2         3         4     9        0.000000        1.273713         3    ;  uncertainty k = 0.336426
         1         2         3         4     9      180.000000        1.317559         4    ;  uncertainty k = 0.203055
         1         2         3         5     9        0.000000        0.233657         1    ;  uncertainty k = 0.152519
         1         2         3         5     9      180.000000        7.036032         2    ;  uncertainty k = 0.405133
         1         2         3         5     9        0.000000        1.456842         3    ;  uncertainty k = 0.220854
         1         2         3         5     9      180.000000        1.637529         4    ;  uncertainty k = 0.108142
         1         2        29         7     9        0.000000        0.181043         1    ;  uncertainty k = 0.221117
         1         2        29         7     9      180.000000        9.280837         2    ;  uncertainty k = 0.548273
         1         2        29         7     9        0.000000        1.588520         3    ;  uncertainty k = 0.377312
         1         2        29         7     9      180.000000        1.692446         4    ;  uncertainty k = 0.138685
         1         2        29        41     9        0.000000       -0.224625         1    ;  uncertainty k = 0.449584
         1         2        29        41     9      180.000000        7.678570         2    ;  uncertainty k = 0.409681
         1         2        29        41     9        0.000000        0.646585         3    ;  uncertainty k = 0.243468
         1         2        29        41     9      180.000000        1.103880         4    ;  uncertainty k = 0.217407
         2         3         5         6     9        0.000000       -0.130332         1    ;  uncertainty k = 0.129011
         2         3         5         6     9      180.000000        9.635782         2    ;  uncertainty k = 0.415945
         2         3         5         6     9        0.000000        0.050739         3    ;  uncertainty k = 0.390861
         2         3         5         6     9      180.000000        1.253830         4    ;  uncertainty k = 0.208420
         2         3         5        30     9        0.000000       -0.055405         1    ;  uncertainty k = 0.197928
         2         3         5        30     9      180.000000        6.097901         2    ;  uncertainty k = 0.568495
         2         3         5        30     9        0.000000        1.408449         3    ;  uncertainty k = 0.336265
         2         3         5        30     9      180.000000        1.520323         4    ;  uncertainty k = 0.184798
         2        29         7         6     9        0.000000       -0.185721         1    ;  uncertainty k = 0.158513
         2        29         7         6     9      180.000000        9.227693         2    ;  uncertainty k = 0.390352
         2        29         7         6     9        0.000000        0.036191         3    ;  uncertainty k = 0.216384
         2        29         7         6     9      180.000000        1.274955         4    ;  uncertainty k = 0.188181
         2        29         7         8     9        0.000000       -0.085229         1    ;  uncertainty k = 0.229869
         2        29         7         8     9      180.000000       10.147327         2    ;  uncertainty k = 0.454539
         2        29         7         8     9        0.000000        1.153317         3    ;  uncertainty k = 0.303285
         2        29         7         8     9      180.000000        1.679342         4    ;  uncertainty k = 0.276714
         3         2        29         7     9        0.000000       -0.033847         1    ;  uncertainty k = 0.377018
         3         2        29         7     9      180.000000        9.271451         2    ;  uncertainty k = 0.559414
         3         2        29         7     9        0.000000        0.226069         3    ;  uncertainty k = 0.400125
         3         2        29         7     9      180.000000        1.281449         4    ;  uncertainty k = 0.352354
         3         2        29        41     9        0.000000        0.177232         1    ;  uncertainty k = 0.124477
         3         2        29        41     9      180.000000        6.751821         2    ;  uncertainty k = 0.539499
         3         2        29        41     9        0.000000        1.570502         3    ;  uncertainty k = 0.364941
         3         2        29        41     9      180.000000        1.664544         4    ;  uncertainty k = 0.109912
         3         5         6         7     9        0.000000       -0.162810         1    ;  uncertainty k = 0.227289
         3         5         6         7     9      180.000000       13.743064         2    ;  uncertainty k = 0.271726
         3         5         6         7     9        0.000000       -0.600595         3    ;  uncertainty k = 0.469856
         3         5         6         7     9      180.000000        0.928986         4    ;  uncertainty k = 0.234123
         3         5         6        31     9        0.000000       -0.000560         1    ;  uncertainty k = 0.192482
         3         5         6        31     9      180.000000        8.192725         2    ;  uncertainty k = 0.356606
         3         5         6        31     9        0.000000        1.486791         3    ;  uncertainty k = 0.246811
         3         5         6        31     9      180.000000        1.916055         4    ;  uncertainty k = 0.165470
         4         3         2        29     9        0.000000        0.115293         1    ;  uncertainty k = 0.304748
         4         3         2        29     9      180.000000        7.021371         2    ;  uncertainty k = 0.352419
         4         3         2        29     9        0.000000        1.508320         3    ;  uncertainty k = 0.316404
         4         3         2        29     9      180.000000        1.644746         4    ;  uncertainty k = 0.149103
         4         3         5         6     9        0.000000        0.004258         1    ;  uncertainty k = 0.242801
         4         3         5         6     9      180.000000        9.262691         2    ;  uncertainty k = 0.491997
         4         3         5         6     9        0.000000        1.496210         3    ;  uncertainty k = 0.464257
         4         3         5         6     9      180.000000        1.755130         4    ;  uncertainty k = 0.179426
         4         3         5        30     9        0.000000       -0.222340         1    ;  uncertainty k = 0.323974
         4         3         5        30     9      180.000000        7.268112         2    ;  uncertainty k = 0.348247
         4         3         5        30     9        0.000000        0.623430         3    ;  uncertainty k = 0.325696
         4         3         5        30     9      180.000000        1.011136         4    ;  uncertainty k = 0.189871
         5         3         2        29     9        0.000000       -0.256406         1    ;  uncertainty k = 0.297006
         5         3         2        29     9      180.000000        6.874010         2    ;  uncertainty k = 0.877758
         5         3         2        29     9        0.000000        0.251612         3    ;  uncertainty k = 0.439847
         5         3         2        29     9      180.000000        1.227711         4    ;  uncertainty k = 0.411440
         5         6         7         8     9        0.000000       -0.001650         1    ;  uncertainty k = 0.297702
         5         6         7         8     9      180.000000       10.380040         2    ;  uncertainty k = 0.484674
         5         6         7         8     9        0.000000        1.146333         3    ;  uncertainty k = 0.449134
         5         6         7         8     9      180.000000        1.656318         4    ;  uncertainty k = 0.237242
         5         6         7        29     9        0.000000       -0.216461         1    ;  uncertainty k = 0.254938
         5         6         7        29     9      180.000000        9.656988         2    ;  uncertainty k = 0.300548
         5         6         7        29     9        0.000000       -0.016465         3    ;  uncertainty k = 0.072440
         5         6         7        29     9      180.000000        1.214983         4    ;  uncertainty k = 0.203389
         6         7         8         9     9        0.000000        1.200185         1    ;  uncertainty k = 0.752807
         6         7         8         9     9      180.000000        4.734239         2    ;  uncertainty k = 0.205617
         6         7         8         9     9        0.000000        1.004431         3    ;  uncertainty k = 0.209915
         6         7         8         9     9      180.000000        0.299195         4    ;  uncertainty k = 0.082481
         6         7         8        32     9        0.000000        0.695161         1    ;  uncertainty k = 1.041384
         6         7         8        32     9      180.000000        3.877718         2    ;  uncertainty k = 0.168303
         6         7         8        32     9        0.000000        0.643988         3    ;  uncertainty k = 0.173601
         6         7         8        32     9      180.000000        0.187947         4    ;  uncertainty k = 0.067979
         6         7        29        41     9        0.000000        0.211171         1    ;  uncertainty k = 0.349231
         6         7        29        41     9      180.000000        6.615990         2    ;  uncertainty k = 0.406843
         6         7        29        41     9        0.000000        1.326003         3    ;  uncertainty k = 0.272036
         6         7        29        41     9      180.000000        1.543742         4    ;  uncertainty k = 0.176976
         7         6         5        30     9        0.000000       -0.037728         1    ;  uncertainty k = 0.190125
         7         6         5        30     9      180.000000        8.159619         2    ;  uncertainty k = 0.454013
         7         6         5        30     9        0.000000        1.329038         3    ;  uncertainty k = 0.282342
         7         6         5        30     9      180.000000        1.731256         4    ;  uncertainty k = 0.113006
         7         8         9        10     9        0.000000        6.458445         1    ;  uncertainty k = 0.932442
         7         8         9        10     9      180.000000        9.612816         2    ;  uncertainty k = 0.334461
         7         8         9        10     9        0.000000        1.206188         3    ;  uncertainty k = 0.173430
         7         8         9        10     9      180.000000       -0.501170         4    ;  uncertainty k = 0.152067
         7         8         9        11     9        0.000000        6.706476         1    ;  uncertainty k = 0.908539
         7         8         9        11     9      180.000000        5.991172         2    ;  uncertainty k = 0.794585
         7         8         9        11     9        0.000000        0.546120         3    ;  uncertainty k = 0.309321
         7         8         9        11     9      180.000000       -0.123443         4    ;  uncertainty k = 0.266727
         8         7         6        31     9        0.000000       -0.093790         1    ;  uncertainty k = 0.207038
         8         7         6        31     9      180.000000        8.101424         2    ;  uncertainty k = 0.516382
         8         7         6        31     9        0.000000        0.772474         3    ;  uncertainty k = 0.214817
         8         7         6        31     9      180.000000        1.181530         4    ;  uncertainty k = 0.254126
         8         7        29        41     9        0.000000       -0.085919         1    ;  uncertainty k = 0.163990
         8         7        29        41     9      180.000000        8.102156         2    ;  uncertainty k = 0.534418
         8         7        29        41     9        0.000000        0.725064         3    ;  uncertainty k = 0.152739
         8         7        29        41     9      180.000000        1.175359         4    ;  uncertainty k = 0.258715
         8         9        11        12     9        0.000000        8.110687         1    ;  uncertainty k = 0.960807
         8         9        11        12     9      180.000000        6.186240         2    ;  uncertainty k = 0.993279
         8         9        11        12     9        0.000000        0.647438         3    ;  uncertainty k = 0.160674
         8         9        11        12     9      180.000000       -0.175802         4    ;  uncertainty k = 0.442917
         8         9        11        33     9        0.000000        3.034431         1    ;  uncertainty k = 0.970010
         8         9        11        33     9      180.000000        4.695459         2    ;  uncertainty k = 1.113818
         8         9        11        33     9        0.000000        0.827129         3    ;  uncertainty k = 0.230931
         8         9        11        33     9      180.000000       -0.386951         4    ;  uncertainty k = 0.276494
         9         8         7        29     9        0.000000        0.957410         1    ;  uncertainty k = 0.633000
         9         8         7        29     9      180.000000        4.548621         2    ;  uncertainty k = 0.201377
         9         8         7        29     9        0.000000        0.969663         3    ;  uncertainty k = 0.202548
         9         8         7        29     9      180.000000        0.351351         4    ;  uncertainty k = 0.056056
         9        11        12        13     9        0.000000        1.826178         1    ;  uncertainty k = 1.230613
         9        11        12        13     9      180.000000        3.914690         2    ;  uncertainty k = 0.505910
         9        11        12        13     9        0.000000        0.267512         3    ;  uncertainty k = 0.197085
         9        11        12        13     9      180.000000       -0.000673         4    ;  uncertainty k = 0.064722
         9        11        12        28     9        0.000000        1.590482         1    ;  uncertainty k = 1.223146
         9        11        12        28     9      180.000000        3.933824         2    ;  uncertainty k = 0.529571
         9        11        12        28     9        0.000000        0.641748         3    ;  uncertainty k = 0.289819
         9        11        12        28     9      180.000000        0.355266         4    ;  uncertainty k = 0.131762
        10         9         8        32     9        0.000000        0.878667         1    ;  uncertainty k = 0.467620
        10         9         8        32     9      180.000000        9.408177         2    ;  uncertainty k = 0.198948
        10         9         8        32     9        0.000000        2.111122         3    ;  uncertainty k = 0.186173
        10         9         8        32     9      180.000000       -0.257251         4    ;  uncertainty k = 0.201403
        10         9        11        12     9        0.000000        6.946396         1    ;  uncertainty k = 0.908899
        10         9        11        12     9      180.000000        9.319620         2    ;  uncertainty k = 0.343354
        10         9        11        12     9        0.000000        1.327876         3    ;  uncertainty k = 0.355434
        10         9        11        12     9      180.000000       -0.511188         4    ;  uncertainty k = 0.273827
        10         9        11        33     9        0.000000        0.648440         1    ;  uncertainty k = 0.303764
        10         9        11        33     9      180.000000        8.524098         2    ;  uncertainty k = 0.415172
        10         9        11        33     9        0.000000        1.856515         3    ;  uncertainty k = 0.251832
        10         9        11        33     9      180.000000       -0.422622         4    ;  uncertainty k = 0.241464
        11         9         8        32     9        0.000000        2.795722         1    ;  uncertainty k = 1.020215
        11         9         8        32     9      180.000000        4.644729         2    ;  uncertainty k = 1.168991
        11         9         8        32     9        0.000000        0.903794         3    ;  uncertainty k = 0.241484
        11         9         8        32     9      180.000000       -0.380601         4    ;  uncertainty k = 0.244240
        11        12        13        14     9        0.000000        0.265513         1    ;  uncertainty k = 0.638101
        11        12        13        14     9      180.000000        8.312027         2    ;  uncertainty k = 0.483820
        11        12        13        14     9        0.000000        0.783388         3    ;  uncertainty k = 0.198631
        11        12        13        14     9      180.000000        1.337313         4    ;  uncertainty k = 0.293172
        11        12        13        25     9        0.000000        0.353474         1    ;  uncertainty k = 0.449760
        11        12        13        25     9      180.000000        6.335181         2    ;  uncertainty k = 0.770062
        11        12        13        25     9        0.000000        0.762700         3    ;  uncertainty k = 0.328523
        11        12        13        25     9      180.000000        1.504660         4    ;  uncertainty k = 0.296384
        11        12        28        27     9        0.000000       -0.104134         1    ;  uncertainty k = 0.141360
        11        12        28        27     9      180.000000       11.628689         2    ;  uncertainty k = 0.794318
        11        12        28        27     9        0.000000        1.107582         3    ;  uncertainty k = 0.487862
        11        12        28        27     9      180.000000        1.611587         4    ;  uncertainty k = 0.361445
        11        12        28        40     9        0.000000       -0.339226         1    ;  uncertainty k = 0.473729
        11        12        28        40     9      180.000000        8.956188         2    ;  uncertainty k = 0.817388
        11        12        28        40     9        0.000000        0.715306         3    ;  uncertainty k = 0.150871
        11        12        28        40     9      180.000000        1.268139         4    ;  uncertainty k = 0.406221
        12        13        14        15     9        0.000000        5.742982         1    ;  uncertainty k = 0.996505
        12        13        14        15     9      180.000000        3.878653         2    ;  uncertainty k = 0.444863
        12        13        14        15     9        0.000000        0.580855         3    ;  uncertainty k = 0.248381
        12        13        14        15     9      180.000000        0.086291         4    ;  uncertainty k = 0.156289
        12        13        25        26     9        0.000000        0.676654         1    ;  uncertainty k = 0.481269
        12        13        25        26     9      180.000000       12.337756         2    ;  uncertainty k = 0.384550
        12        13        25        26     9        0.000000        1.799559         3    ;  uncertainty k = 0.431189
        12        13        25        26     9      180.000000        1.358998         4    ;  uncertainty k = 0.224517
        12        28        27        26     9        0.000000       -0.219717         1    ;  uncertainty k = 0.258711
        12        28        27        26     9      180.000000       13.489343         2    ;  uncertainty k = 0.300398
        12        28        27        26     9        0.000000       -1.177534         3    ;  uncertainty k = 0.825067
        12        28        27        26     9      180.000000        0.747942         4    ;  uncertainty k = 0.391509
        12        28        27        39     9        0.000000        0.313279         1    ;  uncertainty k = 0.255485
        12        28        27        39     9      180.000000        7.639764         2    ;  uncertainty k = 0.597194
        12        28        27        39     9        0.000000        1.394864         3    ;  uncertainty k = 0.301687
        12        28        27        39     9      180.000000        1.632044         4    ;  uncertainty k = 0.213681
        13        12        11        33     9        0.000000        1.809919         1    ;  uncertainty k = 1.049578
        13        12        11        33     9      180.000000        2.184103         2    ;  uncertainty k = 0.856980
        13        12        11        33     9        0.000000       -0.055926         3    ;  uncertainty k = 0.368395
        13        12        11        33     9      180.000000       -0.094869         4    ;  uncertainty k = 0.135654
        13        12        28        27     9        0.000000       -0.045324         1    ;  uncertainty k = 0.346307
        13        12        28        27     9      180.000000        9.675692         2    ;  uncertainty k = 0.563612
        13        12        28        27     9        0.000000        0.089574         3    ;  uncertainty k = 0.421919
        13        12        28        27     9      180.000000        1.428809         4    ;  uncertainty k = 0.224622
        13        12        28        40     9        0.000000       -0.056218         1    ;  uncertainty k = 0.336146
        13        12        28        40     9      180.000000        7.154486         2    ;  uncertainty k = 0.386951
        13        12        28        40     9        0.000000        1.228551         3    ;  uncertainty k = 0.135670
        13        12        28        40     9      180.000000        1.474946         4    ;  uncertainty k = 0.079159
        13        14        15        16     9        0.000000        4.111153         1    ;  uncertainty k = 0.463348
        13        14        15        16     9      180.000000        5.444235         2    ;  uncertainty k = 0.180214
        13        14        15        16     9        0.000000        0.337321         3    ;  uncertainty k = 0.385525
        13        14        15        16     9      180.000000        0.284107         4    ;  uncertainty k = 0.144689
        13        14        15        24     9        0.000000        4.031478         1    ;  uncertainty k = 0.324367
        13        14        15        24     9      180.000000        5.326864         2    ;  uncertainty k = 0.098304
        13        14        15        24     9        0.000000        0.404902         3    ;  uncertainty k = 0.412078
        13        14        15        24     9      180.000000        0.296999         4    ;  uncertainty k = 0.116646
        13        25        26        27     9        0.000000       -0.133462         1    ;  uncertainty k = 0.695196
        13        25        26        27     9      180.000000       15.215297         2    ;  uncertainty k = 0.215444
        13        25        26        27     9        0.000000        0.737113         3    ;  uncertainty k = 0.573056
        13        25        26        27     9      180.000000        1.291837         4    ;  uncertainty k = 0.321443
        13        25        26        38     9        0.000000        0.068263         1    ;  uncertainty k = 0.501141
        13        25        26        38     9      180.000000       15.223381         2    ;  uncertainty k = 0.588647
        13        25        26        38     9        0.000000        2.120235         3    ;  uncertainty k = 0.703419
        13        25        26        38     9      180.000000        1.291633         4    ;  uncertainty k = 0.573906
        14        13        12        28     9        0.000000        0.758628         1    ;  uncertainty k = 0.302974
        14        13        12        28     9      180.000000        5.954667         2    ;  uncertainty k = 0.582835
        14        13        12        28     9        0.000000        0.897889         3    ;  uncertainty k = 0.157549
        14        13        12        28     9      180.000000        1.407331         4    ;  uncertainty k = 0.461766
        14        13        25        26     9        0.000000        0.645014         1    ;  uncertainty k = 1.001765
        14        13        25        26     9      180.000000       16.604500         2    ;  uncertainty k = 0.284032
        14        13        25        26     9        0.000000        2.791706         3    ;  uncertainty k = 0.527017
        14        13        25        26     9      180.000000        1.944515         4    ;  uncertainty k = 0.152085
        14        15        16        17     9        0.000000       -0.054166         1    ;  uncertainty k = 0.319745
        14        15        16        17     9      180.000000       11.162460         2    ;  uncertainty k = 0.228187
        14        15        16        17     9        0.000000        1.352213         3    ;  uncertainty k = 0.202966
        14        15        16        17     9      180.000000        1.594604         4    ;  uncertainty k = 0.163375
        14        15        16        34     9        0.000000        0.246878         1    ;  uncertainty k = 0.126179
        14        15        16        34     9      180.000000        8.724117         2    ;  uncertainty k = 0.255701
        14        15        16        34     9        0.000000        0.898640         3    ;  uncertainty k = 0.304407
        14        15        16        34     9      180.000000        1.116873         4    ;  uncertainty k = 0.210214
        14        15        24        23     9        0.000000       -0.042015         1    ;  uncertainty k = 0.399401
        14        15        24        23     9      180.000000       11.193089         2    ;  uncertainty k = 0.404423
        14        15        24        23     9        0.000000        1.305480         3    ;  uncertainty k = 0.216137
        14        15        24        23     9      180.000000        1.621828         4    ;  uncertainty k = 0.141002
        14        15        24        37     9        0.000000        0.072912         1    ;  uncertainty k = 0.103915
        14        15        24        37     9      180.000000        8.608526         2    ;  uncertainty k = 0.251063
        14        15        24        37     9        0.000000        0.860920         3    ;  uncertainty k = 0.274177
        14        15        24        37     9      180.000000        1.057134         4    ;  uncertainty k = 0.175952
        15        14        13        25     9        0.000000        2.095893         1    ;  uncertainty k = 1.084880
        15        14        13        25     9      180.000000        6.456938         2    ;  uncertainty k = 0.121607
        15        14        13        25     9        0.000000        0.082868         3    ;  uncertainty k = 0.422005
        15        14        13        25     9      180.000000        0.151585         4    ;  uncertainty k = 0.120974
        15        16        17        18     9        0.000000        0.137530         1    ;  uncertainty k = 0.382295
        15        16        17        18     9      180.000000       10.226747         2    ;  uncertainty k = 0.659410
        15        16        17        18     9        0.000000        1.461318         3    ;  uncertainty k = 0.335069
        15        16        17        18     9      180.000000        1.764611         4    ;  uncertainty k = 0.220745
        15        16        17        22     9        0.000000       -0.251339         1    ;  uncertainty k = 0.225812
        15        16        17        22     9      180.000000       11.882309         2    ;  uncertainty k = 0.212881
        15        16        17        22     9        0.000000       -0.431963         3    ;  uncertainty k = 0.492563
        15        16        17        22     9      180.000000        0.966872         4    ;  uncertainty k = 0.329892
        15        24        23        22     9        0.000000       -0.274443         1    ;  uncertainty k = 0.209993
        15        24        23        22     9      180.000000       14.193547         2    ;  uncertainty k = 0.243702
        15        24        23        22     9        0.000000       -0.825857         3    ;  uncertainty k = 0.472075
        15        24        23        22     9      180.000000        0.811988         4    ;  uncertainty k = 0.227337
        15        24        23        36     9        0.000000        0.030124         1    ;  uncertainty k = 0.066196
        15        24        23        36     9      180.000000        7.830210         2    ;  uncertainty k = 0.232717
        15        24        23        36     9        0.000000        1.358974         3    ;  uncertainty k = 0.159620
        15        24        23        36     9      180.000000        1.757686         4    ;  uncertainty k = 0.144431
        16        15        24        23     9        0.000000       -0.003467         1    ;  uncertainty k = 0.080228
        16        15        24        23     9      180.000000       10.021364         2    ;  uncertainty k = 0.550002
        16        15        24        23     9        0.000000       -0.157712         3    ;  uncertainty k = 0.411351
        16        15        24        23     9      180.000000        1.116828         4    ;  uncertainty k = 0.409267
        16        15        24        37     9        0.000000        0.278178         1    ;  uncertainty k = 0.157173
        16        15        24        37     9      180.000000        6.395045         2    ;  uncertainty k = 0.731884
        16        15        24        37     9        0.000000        1.387906         3    ;  uncertainty k = 0.416133
        16        15        24        37     9      180.000000        1.593558         4    ;  uncertainty k = 0.202098
        16        17        18        19     9        0.000000       -0.828907         1    ;  uncertainty k = 0.452622
        16        17        18        19     9      180.000000        2.803200         2    ;  uncertainty k = 0.128772
        16        17        18        19     9        0.000000        0.701501         3    ;  uncertainty k = 0.032688
        16        17        18        19     9      180.000000        0.136337         4    ;  uncertainty k = 0.047427
        16        17        18        20     9        0.000000       -0.828907         1    ;  uncertainty k = 0.452622
        16        17        18        20     9      180.000000        2.803200         2    ;  uncertainty k = 0.128772
        16        17        18        20     9        0.000000        0.701501         3    ;  uncertainty k = 0.032688
        16        17        18        20     9      180.000000        0.136337         4    ;  uncertainty k = 0.047427
        16        17        18        21     9        0.000000       -0.828907         1    ;  uncertainty k = 0.452622
        16        17        18        21     9      180.000000        2.803200         2    ;  uncertainty k = 0.128772
        16        17        18        21     9        0.000000        0.701501         3    ;  uncertainty k = 0.032688
        16        17        18        21     9      180.000000        0.136337         4    ;  uncertainty k = 0.047427
        16        17        22        23     9        0.000000       -0.238116         1    ;  uncertainty k = 0.209093
        16        17        22        23     9      180.000000       12.299164         2    ;  uncertainty k = 0.499372
        16        17        22        23     9        0.000000       -0.649051         3    ;  uncertainty k = 0.413941
        16        17        22        23     9      180.000000        0.809773         4    ;  uncertainty k = 0.356024
        16        17        22        35     9        0.000000        0.220952         1    ;  uncertainty k = 0.223730
        16        17        22        35     9      180.000000        7.534679         2    ;  uncertainty k = 0.440509
        16        17        22        35     9        0.000000        1.373084         3    ;  uncertainty k = 0.455762
        16        17        22        35     9      180.000000        1.631125         4    ;  uncertainty k = 0.232510
        17        16        15        24     9        0.000000       -0.062398         1    ;  uncertainty k = 0.292331
        17        16        15        24     9      180.000000        9.245553         2    ;  uncertainty k = 0.592081
        17        16        15        24     9        0.000000       -0.008936         3    ;  uncertainty k = 0.582499
        17        16        15        24     9      180.000000        1.177935         4    ;  uncertainty k = 0.484619
        17        22        23        24     9        0.000000       -0.243850         1    ;  uncertainty k = 0.189763
        17        22        23        24     9      180.000000       13.673829         2    ;  uncertainty k = 0.341799
        17        22        23        24     9        0.000000       -0.849479         3    ;  uncertainty k = 0.421712
        17        22        23        24     9      180.000000        0.713106         4    ;  uncertainty k = 0.296868
        17        22        23        36     9        0.000000        0.068788         1    ;  uncertainty k = 0.266778
        17        22        23        36     9      180.000000        7.561180         2    ;  uncertainty k = 0.317046
        17        22        23        36     9        0.000000        1.473540         3    ;  uncertainty k = 0.220229
        17        22        23        36     9      180.000000        1.732188         4    ;  uncertainty k = 0.159060
        18        17        16        34     9        0.000000        0.263433         1    ;  uncertainty k = 0.414604
        18        17        16        34     9      180.000000        8.781868         2    ;  uncertainty k = 0.304602
        18        17        16        34     9        0.000000        0.696019         3    ;  uncertainty k = 0.144996
        18        17        16        34     9      180.000000        1.087930         4    ;  uncertainty k = 0.155232
        18        17        22        23     9        0.000000        0.078885         1    ;  uncertainty k = 0.186673
        18        17        22        23     9      180.000000       10.351753         2    ;  uncertainty k = 0.778178
        18        17        22        23     9        0.000000        1.523036         3    ;  uncertainty k = 0.299974
        18        17        22        23     9      180.000000        1.886244         4    ;  uncertainty k = 0.383052
        18        17        22        35     9        0.000000        0.018304         1    ;  uncertainty k = 0.362064
        18        17        22        35     9      180.000000        8.851526         2    ;  uncertainty k = 0.560934
        18        17        22        35     9        0.000000        0.689709         3    ;  uncertainty k = 0.261465
        18        17        22        35     9      180.000000        1.019568         4    ;  uncertainty k = 0.221458
        19        18        17        22     9        0.000000       -0.823211         1    ;  uncertainty k = 0.470326
        19        18        17        22     9      180.000000        2.802694         2    ;  uncertainty k = 0.082905
        19        18        17        22     9        0.000000        0.688763         3    ;  uncertainty k = 0.058349
        19        18        17        22     9      180.000000        0.135610         4    ;  uncertainty k = 0.041085
        20        18        17        22     9        0.000000       -0.823211         1    ;  uncertainty k = 0.470326
        20        18        17        22     9      180.000000        2.802694         2    ;  uncertainty k = 0.082905
        20        18        17        22     9        0.000000        0.688763         3    ;  uncertainty k = 0.058349
        20        18        17        22     9      180.000000        0.135610         4    ;  uncertainty k = 0.041085
        21        18        17        22     9        0.000000       -0.823211         1    ;  uncertainty k = 0.470326
        21        18        17        22     9      180.000000        2.802694         2    ;  uncertainty k = 0.082905
        21        18        17        22     9        0.000000        0.688763         3    ;  uncertainty k = 0.058349
        21        18        17        22     9      180.000000        0.135610         4    ;  uncertainty k = 0.041085
        22        17        16        34     9        0.000000        0.268151         1    ;  uncertainty k = 0.190039
        22        17        16        34     9      180.000000        7.491648         2    ;  uncertainty k = 0.392990
        22        17        16        34     9        0.000000        1.431311         3    ;  uncertainty k = 0.350124
        22        17        16        34     9      180.000000        1.713380         4    ;  uncertainty k = 0.259229
        22        23        24        37     9        0.000000        0.088447         1    ;  uncertainty k = 0.118077
        22        23        24        37     9      180.000000        7.757902         2    ;  uncertainty k = 0.350508
        22        23        24        37     9        0.000000        1.478620         3    ;  uncertainty k = 0.245127
        22        23        24        37     9      180.000000        1.826841         4    ;  uncertainty k = 0.156239
        24        15        16        34     9        0.000000        0.352482         1    ;  uncertainty k = 0.339484
        24        15        16        34     9      180.000000        6.361092         2    ;  uncertainty k = 0.726341
        24        15        16        34     9        0.000000        1.436523         3    ;  uncertainty k = 0.297366
        24        15        16        34     9      180.000000        1.632782         4    ;  uncertainty k = 0.226382
        24        23        22        35     9        0.000000        0.045855         1    ;  uncertainty k = 0.139452
        24        23        22        35     9      180.000000        7.634182         2    ;  uncertainty k = 0.325719
        24        23        22        35     9        0.000000        1.429701         3    ;  uncertainty k = 0.294024
        24        23        22        35     9      180.000000        1.813094         4    ;  uncertainty k = 0.105599
        25        13        12        28     9        0.000000       -0.006292         1    ;  uncertainty k = 0.585644
        25        13        12        28     9      180.000000        5.409164         2    ;  uncertainty k = 1.404242
        25        13        12        28     9        0.000000       -0.113620         3    ;  uncertainty k = 0.195163
        25        13        12        28     9      180.000000        1.221279         4    ;  uncertainty k = 0.563245
        25        26        27        28     9        0.000000        0.122912         1    ;  uncertainty k = 0.377650
        25        26        27        28     9      180.000000       16.205381         2    ;  uncertainty k = 0.253453
        25        26        27        28     9        0.000000       -1.374142         3    ;  uncertainty k = 0.567401
        25        26        27        28     9      180.000000        0.764888         4    ;  uncertainty k = 0.233191
        25        26        27        39     9        0.000000        0.109573         1    ;  uncertainty k = 0.140059
        25        26        27        39     9      180.000000       10.004729         2    ;  uncertainty k = 0.564195
        25        26        27        39     9        0.000000        0.906338         3    ;  uncertainty k = 0.280019
        25        26        27        39     9      180.000000        1.603453         4    ;  uncertainty k = 0.128880
        26        27        28        40     9        0.000000       -0.096931         1    ;  uncertainty k = 0.224660
        26        27        28        40     9      180.000000        7.599745         2    ;  uncertainty k = 0.300022
        26        27        28        40     9        0.000000        1.345913         3    ;  uncertainty k = 0.259017
        26        27        28        40     9      180.000000        1.606126         4    ;  uncertainty k = 0.220857
        28        12        11        33     9        0.000000        0.848167         1    ;  uncertainty k = 0.508402
        28        12        11        33     9      180.000000        2.941024         2    ;  uncertainty k = 0.300123
        28        12        11        33     9        0.000000        0.417155         3    ;  uncertainty k = 0.206640
        28        12        11        33     9      180.000000        0.143213         4    ;  uncertainty k = 0.162479
        28        27        26        38     9        0.000000       -0.129492         1    ;  uncertainty k = 0.287891
        28        27        26        38     9      180.000000        6.663214         2    ;  uncertainty k = 0.558015
        28        27        26        38     9        0.000000        1.279160         3    ;  uncertainty k = 0.228439
        28        27        26        38     9      180.000000        1.542370         4    ;  uncertainty k = 0.207679
        29         7         6        31     9        0.000000        0.129764         1    ;  uncertainty k = 0.430204
        29         7         6        31     9      180.000000        6.776835         2    ;  uncertainty k = 0.497236
        29         7         6        31     9        0.000000        1.328647         3    ;  uncertainty k = 0.341582
        29         7         6        31     9      180.000000        1.534141         4    ;  uncertainty k = 0.137011
        29         7         8        32     9        0.000000        0.981216         1    ;  uncertainty k = 0.831032
        29         7         8        32     9      180.000000        3.727652         2    ;  uncertainty k = 0.235078
        29         7         8        32     9        0.000000        0.696309         3    ;  uncertainty k = 0.166171
        29         7         8        32     9      180.000000        0.203253         4    ;  uncertainty k = 0.057815
        30         5         6        31     9        0.000000       -0.114112         1    ;  uncertainty k = 0.374507
        30         5         6        31     9      180.000000        8.174017         2    ;  uncertainty k = 0.396985
        30         5         6        31     9        0.000000       -0.395768         3    ;  uncertainty k = 0.202645
        30         5         6        31     9      180.000000        0.195716         4    ;  uncertainty k = 0.170186
        35        22        23        36     9        0.000000       -0.002551         1    ;  uncertainty k = 0.115730
        35        22        23        36     9      180.000000        7.661892         2    ;  uncertainty k = 0.473727
        35        22        23        36     9        0.000000       -0.390381         3    ;  uncertainty k = 0.286359
        35        22        23        36     9      180.000000        0.068734         4    ;  uncertainty k = 0.168306
        36        23        24        37     9        0.000000       -0.111313         1    ;  uncertainty k = 0.116734
        36        23        24        37     9      180.000000        7.570028         2    ;  uncertainty k = 0.334359
        36        23        24        37     9        0.000000       -0.403022         3    ;  uncertainty k = 0.287477
        36        23        24        37     9      180.000000        0.119544         4    ;  uncertainty k = 0.101292
        38        26        27        39     9        0.000000       -0.176777         1    ;  uncertainty k = 0.222997
        38        26        27        39     9      180.000000        6.567606         2    ;  uncertainty k = 0.260169
        38        26        27        39     9        0.000000       -0.010461         3    ;  uncertainty k = 0.138989
        38        26        27        39     9      180.000000        0.217241         4    ;  uncertainty k = 0.090307
        39        27        28        40     9        0.000000        0.077279         1    ;  uncertainty k = 0.355604
        39        27        28        40     9      180.000000        7.819656         2    ;  uncertainty k = 0.531205
        39        27        28        40     9        0.000000       -0.430593         3    ;  uncertainty k = 0.317162
        39        27        28        40     9      180.000000        0.145196         4    ;  uncertainty k = 0.160605

[ dihedrals ] ; impropers
;       ai        aj        ak        al funct           phase               k        pn
         2         1         3        29     4      180.000000       13.115944         2    ;  uncertainty k = 0.099905
         2         3        29         1     4      180.000000       13.115944         2    ;  uncertainty k = 0.099905
         2        29         1         3     4      180.000000       13.115944         2    ;  uncertainty k = 0.099905
         3         2         4         5     4      180.000000       11.624238         2    ;  uncertainty k = 0.018331
         3         4         5         2     4      180.000000       11.624238         2    ;  uncertainty k = 0.018331
         3         5         2         4     4      180.000000       11.624238         2    ;  uncertainty k = 0.018331
         5         3         6        30     4      180.000000        3.596609         2    ;  uncertainty k = 0.284417
         5         6        30         3     4      180.000000        3.596609         2    ;  uncertainty k = 0.284417
         5        30         3         6     4      180.000000        3.596609         2    ;  uncertainty k = 0.284417
         6         5         7        31     4      180.000000        2.837301         2    ;  uncertainty k = 0.323275
         6         7        31         5     4      180.000000        2.837301         2    ;  uncertainty k = 0.323275
         6        31         5         7     4      180.000000        2.837301         2    ;  uncertainty k = 0.323275
         7         6         8        29     4      180.000000       18.310303         2    ;  uncertainty k = 0.089850
         7         8        29         6     4      180.000000       18.310303         2    ;  uncertainty k = 0.089850
         7        29         6         8     4      180.000000       18.310303         2    ;  uncertainty k = 0.089850
         8         7         9        32     4      180.000000        0.636552         2    ;  uncertainty k = 0.768362
         8         9        32         7     4      180.000000        0.636552         2    ;  uncertainty k = 0.768362
         8        32         7         9     4      180.000000        0.636552         2    ;  uncertainty k = 0.768362
         9         8        10        11     4      180.000000       63.343124         2    ;  uncertainty k = 0.060651
         9        10        11         8     4      180.000000       63.343124         2    ;  uncertainty k = 0.060651
         9        11         8        10     4      180.000000       63.343124         2    ;  uncertainty k = 0.060651
        11         9        12        33     4      180.000000        0.392748         2    ;  uncertainty k = 0.562770
        11        12        33         9     4      180.000000        0.392748         2    ;  uncertainty k = 0.562770
        11        33         9        12     4      180.000000        0.392748         2    ;  uncertainty k = 0.562770
        12        11        13        28     4      180.000000       13.075348         2    ;  uncertainty k = 0.235826
        12        13        28        11     4      180.000000       13.075348         2    ;  uncertainty k = 0.235826
        12        28        11        13     4      180.000000       13.075348         2    ;  uncertainty k = 0.235826
        13        12        14        25     4      180.000000       23.632419         2    ;  uncertainty k = 0.090188
        13        14        25        12     4      180.000000       23.632419         2    ;  uncertainty k = 0.090188
        13        25        12        14     4      180.000000       23.632419         2    ;  uncertainty k = 0.090188
        15        14        16        24     4      180.000000       16.372356         2    ;  uncertainty k = 0.070186
        15        16        24        14     4      180.000000       16.372356         2    ;  uncertainty k = 0.070186
        15        24        14        16     4      180.000000       16.372356         2    ;  uncertainty k = 0.070186
        16        15        17        34     4      180.000000        3.523439         2    ;  uncertainty k = 0.117653
        16        17        34        15     4      180.000000        3.523439         2    ;  uncertainty k = 0.117653
        16        34        15        17     4      180.000000        3.523439         2    ;  uncertainty k = 0.117653
        17        16        18        22     4      180.000000        8.646183         2    ;  uncertainty k = 0.131479
        17        18        22        16     4      180.000000        8.646183         2    ;  uncertainty k = 0.131479
        17        22        16        18     4      180.000000        8.646183         2    ;  uncertainty k = 0.131479
        22        17        23        35     4      180.000000        4.036363         2    ;  uncertainty k = 0.083904
        22        23        35        17     4      180.000000        4.036363         2    ;  uncertainty k = 0.083904
        22        35        17        23     4      180.000000        4.036363         2    ;  uncertainty k = 0.083904
        23        22        24        36     4      180.000000        4.325333         2    ;  uncertainty k = 0.198962
        23        24        36        22     4      180.000000        4.325333         2    ;  uncertainty k = 0.198962
        23        36        22        24     4      180.000000        4.325333         2    ;  uncertainty k = 0.198962
        24        15        23        37     4      180.000000        3.153037         2    ;  uncertainty k = 0.114221
        24        23        37        15     4      180.000000        3.153037         2    ;  uncertainty k = 0.114221
        24        37        15        23     4      180.000000        3.153037         2    ;  uncertainty k = 0.114221
        26        25        27        38     4      180.000000       11.532154         2    ;  uncertainty k = 0.089528
        26        27        38        25     4      180.000000       11.532154         2    ;  uncertainty k = 0.089528
        26        38        25        27     4      180.000000       11.532154         2    ;  uncertainty k = 0.089528
        27        26        28        39     4      180.000000        2.219263         2    ;  uncertainty k = 0.396250
        27        28        39        26     4      180.000000        2.219263         2    ;  uncertainty k = 0.396250
        27        39        26        28     4      180.000000        2.219263         2    ;  uncertainty k = 0.396250
        28        12        27        40     4      180.000000        4.523754         2    ;  uncertainty k = 0.211544
        28        27        40        12     4      180.000000        4.523754         2    ;  uncertainty k = 0.211544
        28        40        12        27     4      180.000000        4.523754         2    ;  uncertainty k = 0.211544
        29         2         7        41     4      180.000000        2.362276         2    ;  uncertainty k = 0.514728
        29         7        41         2     4      180.000000        2.362276         2    ;  uncertainty k = 0.514728
        29        41         2         7     4      180.000000        2.362276         2    ;  uncertainty k = 0.514728

[ pairs ]
;       ai        aj funct
         1         4     1
         1         5     1
         1         7     1
         1        41     1
         2         6     1
         2         8     1
         2        30     1
         3         7     1
         3        31     1
         3        41     1
         4         6     1
         4        29     1
         4        30     1
         5         8     1
         5        29     1
         6         9     1
         6        32     1
         6        41     1
         7        10     1
         7        11     1
         7        30     1
         8        12     1
         8        31     1
         8        33     1
         8        41     1
         9        13     1
         9        28     1
         9        29     1
        10        12     1
        10        32     1
        10        33     1
        11        14     1
        11        25     1
        11        27     1
        11        32     1
        11        40     1
        12        15     1
        12        26     1
        12        39     1
        13        16     1
        13        24     1
        13        27     1
        13        33     1
        13        38     1
        13        40     1
        14        17     1
        14        23     1
        14        26     1
        14        28     1
        14        34     1
        14        37     1
        15        18     1
        15        22     1
        15        25     1
        15        36     1
        16        19     1
        16        20     1
        16        21     1
        16        23     1
        16        35     1
        16        37     1
        17        24     1
        17        36     1
        18        23     1
        18        34     1
        18        35     1
        19        22     1
        20        22     1
        21        22     1
        22        34     1
        22        37     1
        24        34     1
        24        35     1
        25        28     1
        25        39     1
        26        40     1
        28        33     1
        28        38     1
        29        31     1
        29        32     1
        30        31     1
        35        36     1
        36        37     1
        38        39     1
        39        40     1
