; ITP file created by ByteFF-joint-25, 2025-07-14 11:27:41.062852

[ atomtypes ]
;name           bonded.type        at.num        mass        charge   ptype           sigma         epsilon
 s0bf                                  16      0.0000       0.00000       A     3.53305e-01     1.18079e+00    ;  uncertainty sigma = 0.000005, epsilon = 0.003176
 c1bf                                   6      0.0000       0.00000       A     3.31571e-01     4.13849e-01    ;  uncertainty sigma = 0.000024, epsilon = 0.002595
 n2bf                                   7      0.0000       0.00000       A     3.38384e-01     3.93472e-01    ;  uncertainty sigma = 0.000030, epsilon = 0.001273
 c3bf                                   6      0.0000       0.00000       A     3.39754e-01     4.51049e-01    ;  uncertainty sigma = 0.000009, epsilon = 0.001145
 c4bf                                   6      0.0000       0.00000       A     3.39763e-01     4.51325e-01    ;  uncertainty sigma = 0.000013, epsilon = 0.001711
 c5bf                                   6      0.0000       0.00000       A     3.39772e-01     4.50951e-01    ;  uncertainty sigma = 0.000012, epsilon = 0.001104
 c6bf                                   6      0.0000       0.00000       A     3.39773e-01     4.50762e-01    ;  uncertainty sigma = 0.000007, epsilon = 0.000586
 h7bf                                   1      0.0000       0.00000       A     2.42189e-01     8.65553e-02    ;  uncertainty sigma = 0.000031, epsilon = 0.001047
 h8bf                                   1      0.0000       0.00000       A     2.42189e-01     8.65553e-02    ;  uncertainty sigma = 0.000031, epsilon = 0.001047
 h9bf                                   1      0.0000       0.00000       A     2.42185e-01     8.66499e-02    ;  uncertainty sigma = 0.000026, epsilon = 0.000772
 h10bf                                  1      0.0000       0.00000       A     2.42185e-01     8.66499e-02    ;  uncertainty sigma = 0.000026, epsilon = 0.000772
 h11bf                                  1      0.0000       0.00000       A     2.60051e-01     8.69974e-02    ;  uncertainty sigma = 0.000022, epsilon = 0.001024
 h12bf                                  1      0.0000       0.00000       A     2.60035e-01     8.66183e-02    ;  uncertainty sigma = 0.000012, epsilon = 0.000728
 h13bf                                  1      0.0000       0.00000       A     2.60035e-01     8.66183e-02    ;  uncertainty sigma = 0.000012, epsilon = 0.000728
 h14bf                                  1      0.0000       0.00000       A     2.60035e-01     8.66183e-02    ;  uncertainty sigma = 0.000012, epsilon = 0.000728
 h15bf                                  1      0.0000       0.00000       A     2.60051e-01     8.69974e-02    ;  uncertainty sigma = 0.000022, epsilon = 0.001024

[ moleculetype ]
;name             nrexcl
 MOL                   3

[ atoms ]
;       nr            type      resi   res      atom      cgnr      charge          mass ; qtot
         1            s0bf         1   UNL        s0         1    -0.35801       32.0670 ; qtot   -0.358
         2            c1bf         1   UNL        c1         2     0.48478       12.0110 ; qtot    0.127
         3            n2bf         1   UNL        n2         3    -0.57694       14.0070 ; qtot   -0.450
         4            c3bf         1   UNL        c3         4     0.09277       12.0110 ; qtot   -0.357
         5            c4bf         1   UNL        c4         5    -0.00993       12.0110 ; qtot   -0.367
         6            c5bf         1   UNL        c5         6    -0.11229       12.0110 ; qtot   -0.480
         7            c6bf         1   UNL        c6         7    -0.08934       12.0110 ; qtot   -0.569
         8            h7bf         1   UNL        h7         8     0.07360        1.0080 ; qtot   -0.495
         9            h8bf         1   UNL        h8         9     0.07360        1.0080 ; qtot   -0.422
        10            h9bf         1   UNL        h9        10     0.08006        1.0080 ; qtot   -0.342
        11           h10bf         1   UNL       h10        11     0.08006        1.0080 ; qtot   -0.262
        12           h11bf         1   UNL       h11        12     0.06549        1.0080 ; qtot   -0.196
        13           h12bf         1   UNL       h12        13     0.04354        1.0080 ; qtot   -0.153
        14           h13bf         1   UNL       h13        14     0.04354        1.0080 ; qtot   -0.109
        15           h14bf         1   UNL       h14        15     0.04354        1.0080 ; qtot   -0.066
        16           h15bf         1   UNL       h15        16     0.06553        1.0080 ; qtot    0.000

[ bonds ]
;       ai        aj funct               r               k
         1         2     1        0.180428   164746.110864    ;  uncertainty r = 0.000354, k = 24.954278
         1         5     1        0.183553   150970.615186    ;  uncertainty r = 0.000090, k = 6.638332
         2         3     1        0.127217   459436.142871    ;  uncertainty r = 0.000080, k = 15.530324
         2         6     1        0.150173   241557.483936    ;  uncertainty r = 0.000113, k = 3.982762
         3         4     1        0.146247   224241.204199    ;  uncertainty r = 0.000114, k = 12.192483
         4         5     1        0.154918   236789.731152    ;  uncertainty r = 0.000066, k = 10.915041
         4         8     1        0.109661   305303.982471    ;  uncertainty r = 0.000053, k = 2.928352
         4         9     1        0.109661   305303.982471    ;  uncertainty r = 0.000053, k = 2.928352
         5        10     1        0.109370   308378.190771    ;  uncertainty r = 0.000040, k = 2.214666
         5        11     1        0.109370   308378.190771    ;  uncertainty r = 0.000040, k = 2.214666
         6         7     1        0.153782   225725.855127    ;  uncertainty r = 0.000069, k = 5.953914
         6        12     1        0.109630   310203.685498    ;  uncertainty r = 0.000026, k = 1.397125
         6        16     1        0.109630   310203.685498    ;  uncertainty r = 0.000026, k = 1.397125
         7        13     1        0.109507   310363.037061    ;  uncertainty r = 0.000028, k = 0.878988
         7        14     1        0.109507   310363.037061    ;  uncertainty r = 0.000028, k = 0.878988
         7        15     1        0.109507   310363.037061    ;  uncertainty r = 0.000028, k = 0.878988

[ angles ]
;       ai        aj        ak funct           theta             cth
         1         2         3     1      121.201706      664.790458    ;  uncertainty theta = 0.005453, k = 0.238824
         1         2         6     1      118.137558      364.944382    ;  uncertainty theta = 0.004225, k = 0.231295
         1         5         4     1      105.181313      750.431198    ;  uncertainty theta = 0.003720, k = 0.191064
         1         5        10     1      107.495590      397.461390    ;  uncertainty theta = 0.003644, k = 0.140281
         1         5        11     1      107.495590      397.461390    ;  uncertainty theta = 0.003644, k = 0.140281
         2         1         5     1       91.091759      854.018013    ;  uncertainty theta = 0.002935, k = 0.101590
         2         3         4     1      111.796547      616.575949    ;  uncertainty theta = 0.005817, k = 0.271630
         2         6         7     1      110.044815      527.196354    ;  uncertainty theta = 0.002870, k = 0.157748
         2         6        12     1      106.354553      381.803854    ;  uncertainty theta = 0.002494, k = 0.068630
         2         6        16     1      106.354553      381.803854    ;  uncertainty theta = 0.002494, k = 0.068630
         3         2         6     1      124.659897      437.869492    ;  uncertainty theta = 0.001410, k = 0.189664
         3         4         5     1      110.185547      770.403388    ;  uncertainty theta = 0.003024, k = 0.133555
         3         4         8     1      107.282120      444.863085    ;  uncertainty theta = 0.002445, k = 0.061020
         3         4         9     1      107.282120      444.863085    ;  uncertainty theta = 0.002445, k = 0.061020
         4         5        10     1      110.760437      392.443220    ;  uncertainty theta = 0.002400, k = 0.085989
         4         5        11     1      110.760437      392.443220    ;  uncertainty theta = 0.002400, k = 0.085989
         5         4         8     1      109.248207      399.984360    ;  uncertainty theta = 0.003230, k = 0.171945
         5         4         9     1      109.248207      399.984360    ;  uncertainty theta = 0.003230, k = 0.171945
         6         7        13     1      108.091408      411.270199    ;  uncertainty theta = 0.002131, k = 0.045389
         6         7        14     1      108.091408      411.270199    ;  uncertainty theta = 0.002131, k = 0.045389
         6         7        15     1      108.091408      411.270199    ;  uncertainty theta = 0.002131, k = 0.045389
         7         6        12     1      108.693565      405.783583    ;  uncertainty theta = 0.001342, k = 0.039422
         7         6        16     1      108.693565      405.783583    ;  uncertainty theta = 0.001342, k = 0.039422
         8         4         9     1      105.730789      308.452529    ;  uncertainty theta = 0.001845, k = 0.122547
        10         5        11     1      106.657936      309.034807    ;  uncertainty theta = 0.001717, k = 0.046699
        12         6        16     1      104.951538      312.022968    ;  uncertainty theta = 0.003360, k = 0.038777
        13         7        14     1      105.283890      316.307425    ;  uncertainty theta = 0.001837, k = 0.014635
        13         7        15     1      105.283890      316.307425    ;  uncertainty theta = 0.001837, k = 0.014635
        14         7        15     1      105.283890      316.307425    ;  uncertainty theta = 0.001837, k = 0.014635

[ dihedrals ] ; propers for gromacs 4.5 or higher, use funct 9
;       ai        aj        ak        al funct           phase               k        pn
         1         2         3         4     9        0.000000        0.327008         1    ;  uncertainty k = 1.473126
         1         2         3         4     9      180.000000       29.345119         2    ;  uncertainty k = 0.182483
         1         2         3         4     9        0.000000        0.208313         3    ;  uncertainty k = 0.910948
         1         2         3         4     9      180.000000        0.909861         4    ;  uncertainty k = 0.333415
         1         2         6         7     9        0.000000       -1.468375         1    ;  uncertainty k = 0.750180
         1         2         6         7     9      180.000000        1.824941         2    ;  uncertainty k = 0.578858
         1         2         6         7     9        0.000000        0.462124         3    ;  uncertainty k = 0.143071
         1         2         6         7     9      180.000000        0.168293         4    ;  uncertainty k = 0.069962
         1         2         6        12     9        0.000000        0.203442         1    ;  uncertainty k = 0.548225
         1         2         6        12     9      180.000000        1.811802         2    ;  uncertainty k = 0.397119
         1         2         6        12     9        0.000000        0.689124         3    ;  uncertainty k = 0.132085
         1         2         6        12     9      180.000000        0.173440         4    ;  uncertainty k = 0.072306
         1         2         6        16     9        0.000000        0.203442         1    ;  uncertainty k = 0.548225
         1         2         6        16     9      180.000000        1.811802         2    ;  uncertainty k = 0.397119
         1         2         6        16     9        0.000000        0.689124         3    ;  uncertainty k = 0.132085
         1         2         6        16     9      180.000000        0.173440         4    ;  uncertainty k = 0.072306
         1         5         4         3     9        0.000000        1.624029         1    ;  uncertainty k = 0.910774
         1         5         4         3     9      180.000000       -2.769733         2    ;  uncertainty k = 0.587172
         1         5         4         3     9        0.000000        1.657105         3    ;  uncertainty k = 0.519156
         1         5         4         3     9      180.000000       -1.390650         4    ;  uncertainty k = 0.396145
         1         5         4         8     9        0.000000        0.581912         1    ;  uncertainty k = 0.320129
         1         5         4         8     9      180.000000       -1.602072         2    ;  uncertainty k = 0.657102
         1         5         4         8     9        0.000000        0.785803         3    ;  uncertainty k = 0.233313
         1         5         4         8     9      180.000000       -0.010122         4    ;  uncertainty k = 0.136377
         1         5         4         9     9        0.000000        0.581912         1    ;  uncertainty k = 0.320129
         1         5         4         9     9      180.000000       -1.602072         2    ;  uncertainty k = 0.657102
         1         5         4         9     9        0.000000        0.785803         3    ;  uncertainty k = 0.233313
         1         5         4         9     9      180.000000       -0.010122         4    ;  uncertainty k = 0.136377
         2         1         5         4     9        0.000000        1.621884         1    ;  uncertainty k = 1.953427
         2         1         5         4     9      180.000000        4.995660         2    ;  uncertainty k = 1.308237
         2         1         5         4     9        0.000000        0.059448         3    ;  uncertainty k = 0.741121
         2         1         5         4     9      180.000000       -1.703287         4    ;  uncertainty k = 0.737775
         2         1         5        10     9        0.000000        0.770735         1    ;  uncertainty k = 0.602283
         2         1         5        10     9      180.000000       -1.316368         2    ;  uncertainty k = 0.399152
         2         1         5        10     9        0.000000        0.593530         3    ;  uncertainty k = 0.209487
         2         1         5        10     9      180.000000        0.198386         4    ;  uncertainty k = 0.084983
         2         1         5        11     9        0.000000        0.770735         1    ;  uncertainty k = 0.602283
         2         1         5        11     9      180.000000       -1.316368         2    ;  uncertainty k = 0.399152
         2         1         5        11     9        0.000000        0.593530         3    ;  uncertainty k = 0.209487
         2         1         5        11     9      180.000000        0.198386         4    ;  uncertainty k = 0.084983
         2         3         4         5     9        0.000000       -1.546578         1    ;  uncertainty k = 2.997404
         2         3         4         5     9      180.000000        8.625266         2    ;  uncertainty k = 0.788700
         2         3         4         5     9        0.000000       -1.086390         3    ;  uncertainty k = 0.295984
         2         3         4         5     9      180.000000       -0.105013         4    ;  uncertainty k = 0.440002
         2         3         4         8     9        0.000000       -1.610614         1    ;  uncertainty k = 2.063901
         2         3         4         8     9      180.000000        2.164618         2    ;  uncertainty k = 0.508680
         2         3         4         8     9        0.000000        0.532818         3    ;  uncertainty k = 0.247505
         2         3         4         8     9      180.000000        0.126707         4    ;  uncertainty k = 0.123862
         2         3         4         9     9        0.000000       -1.610614         1    ;  uncertainty k = 2.063901
         2         3         4         9     9      180.000000        2.164618         2    ;  uncertainty k = 0.508680
         2         3         4         9     9        0.000000        0.532818         3    ;  uncertainty k = 0.247505
         2         3         4         9     9      180.000000        0.126707         4    ;  uncertainty k = 0.123862
         2         6         7        13     9        0.000000        0.259956         1    ;  uncertainty k = 0.295063
         2         6         7        13     9      180.000000       -0.808381         2    ;  uncertainty k = 0.219331
         2         6         7        13     9        0.000000        1.258155         3    ;  uncertainty k = 0.171525
         2         6         7        13     9      180.000000       -0.004308         4    ;  uncertainty k = 0.099620
         2         6         7        14     9        0.000000        0.259956         1    ;  uncertainty k = 0.295063
         2         6         7        14     9      180.000000       -0.808381         2    ;  uncertainty k = 0.219331
         2         6         7        14     9        0.000000        1.258155         3    ;  uncertainty k = 0.171525
         2         6         7        14     9      180.000000       -0.004308         4    ;  uncertainty k = 0.099620
         2         6         7        15     9        0.000000        0.259956         1    ;  uncertainty k = 0.295063
         2         6         7        15     9      180.000000       -0.808381         2    ;  uncertainty k = 0.219331
         2         6         7        15     9        0.000000        1.258155         3    ;  uncertainty k = 0.171525
         2         6         7        15     9      180.000000       -0.004308         4    ;  uncertainty k = 0.099620
         3         2         1         5     9        0.000000       -1.471129         1    ;  uncertainty k = 3.011136
         3         2         1         5     9      180.000000       19.875951         2    ;  uncertainty k = 0.480066
         3         2         1         5     9        0.000000       -1.699534         3    ;  uncertainty k = 0.722398
         3         2         1         5     9      180.000000       -1.390994         4    ;  uncertainty k = 0.479786
         3         2         6         7     9        0.000000        0.230350         1    ;  uncertainty k = 0.700926
         3         2         6         7     9      180.000000        3.669704         2    ;  uncertainty k = 0.498735
         3         2         6         7     9        0.000000       -0.106105         3    ;  uncertainty k = 0.221468
         3         2         6         7     9      180.000000        0.204789         4    ;  uncertainty k = 0.088096
         3         2         6        12     9        0.000000        2.464409         1    ;  uncertainty k = 0.478834
         3         2         6        12     9      180.000000        3.497235         2    ;  uncertainty k = 0.440686
         3         2         6        12     9        0.000000        0.120859         3    ;  uncertainty k = 0.152669
         3         2         6        12     9      180.000000        0.172237         4    ;  uncertainty k = 0.034937
         3         2         6        16     9        0.000000        2.464409         1    ;  uncertainty k = 0.478834
         3         2         6        16     9      180.000000        3.497235         2    ;  uncertainty k = 0.440686
         3         2         6        16     9        0.000000        0.120859         3    ;  uncertainty k = 0.152669
         3         2         6        16     9      180.000000        0.172237         4    ;  uncertainty k = 0.034937
         3         4         5        10     9        0.000000       -0.401251         1    ;  uncertainty k = 0.229746
         3         4         5        10     9      180.000000        0.016550         2    ;  uncertainty k = 0.476499
         3         4         5        10     9        0.000000        0.959265         3    ;  uncertainty k = 0.226485
         3         4         5        10     9      180.000000        0.020313         4    ;  uncertainty k = 0.052211
         3         4         5        11     9        0.000000       -0.401251         1    ;  uncertainty k = 0.229746
         3         4         5        11     9      180.000000        0.016550         2    ;  uncertainty k = 0.476499
         3         4         5        11     9        0.000000        0.959265         3    ;  uncertainty k = 0.226485
         3         4         5        11     9      180.000000        0.020313         4    ;  uncertainty k = 0.052211
         4         3         2         6     9        0.000000       -0.187487         1    ;  uncertainty k = 0.951362
         4         3         2         6     9      180.000000       26.121634         2    ;  uncertainty k = 0.613064
         4         3         2         6     9        0.000000        2.406290         3    ;  uncertainty k = 0.765674
         4         3         2         6     9      180.000000        0.862885         4    ;  uncertainty k = 0.862870
         5         1         2         6     9        0.000000        1.349290         1    ;  uncertainty k = 2.524815
         5         1         2         6     9      180.000000        7.319528         2    ;  uncertainty k = 1.203682
         5         1         2         6     9        0.000000        1.329601         3    ;  uncertainty k = 0.370191
         5         1         2         6     9      180.000000        0.005425         4    ;  uncertainty k = 0.384306
         8         4         5        10     9        0.000000       -0.061506         1    ;  uncertainty k = 0.302134
         8         4         5        10     9      180.000000       -0.127144         2    ;  uncertainty k = 0.300727
         8         4         5        10     9        0.000000        0.232029         3    ;  uncertainty k = 0.176728
         8         4         5        10     9      180.000000       -0.010401         4    ;  uncertainty k = 0.065290
         8         4         5        11     9        0.000000       -0.061506         1    ;  uncertainty k = 0.302134
         8         4         5        11     9      180.000000       -0.127144         2    ;  uncertainty k = 0.300727
         8         4         5        11     9        0.000000        0.232029         3    ;  uncertainty k = 0.176728
         8         4         5        11     9      180.000000       -0.010401         4    ;  uncertainty k = 0.065290
         9         4         5        10     9        0.000000       -0.061506         1    ;  uncertainty k = 0.302134
         9         4         5        10     9      180.000000       -0.127144         2    ;  uncertainty k = 0.300727
         9         4         5        10     9        0.000000        0.232029         3    ;  uncertainty k = 0.176728
         9         4         5        10     9      180.000000       -0.010401         4    ;  uncertainty k = 0.065290
         9         4         5        11     9        0.000000       -0.061506         1    ;  uncertainty k = 0.302134
         9         4         5        11     9      180.000000       -0.127144         2    ;  uncertainty k = 0.300727
         9         4         5        11     9        0.000000        0.232029         3    ;  uncertainty k = 0.176728
         9         4         5        11     9      180.000000       -0.010401         4    ;  uncertainty k = 0.065290
        12         6         7        13     9        0.000000        0.453964         1    ;  uncertainty k = 0.347193
        12         6         7        13     9      180.000000       -0.419457         2    ;  uncertainty k = 0.228289
        12         6         7        13     9        0.000000        0.678263         3    ;  uncertainty k = 0.035688
        12         6         7        13     9      180.000000       -0.016624         4    ;  uncertainty k = 0.034638
        12         6         7        14     9        0.000000        0.453964         1    ;  uncertainty k = 0.347193
        12         6         7        14     9      180.000000       -0.419457         2    ;  uncertainty k = 0.228289
        12         6         7        14     9        0.000000        0.678263         3    ;  uncertainty k = 0.035688
        12         6         7        14     9      180.000000       -0.016624         4    ;  uncertainty k = 0.034638
        12         6         7        15     9        0.000000        0.453964         1    ;  uncertainty k = 0.347193
        12         6         7        15     9      180.000000       -0.419457         2    ;  uncertainty k = 0.228289
        12         6         7        15     9        0.000000        0.678263         3    ;  uncertainty k = 0.035688
        12         6         7        15     9      180.000000       -0.016624         4    ;  uncertainty k = 0.034638
        13         7         6        16     9        0.000000        0.453964         1    ;  uncertainty k = 0.347193
        13         7         6        16     9      180.000000       -0.419457         2    ;  uncertainty k = 0.228289
        13         7         6        16     9        0.000000        0.678263         3    ;  uncertainty k = 0.035688
        13         7         6        16     9      180.000000       -0.016624         4    ;  uncertainty k = 0.034638
        14         7         6        16     9        0.000000        0.453964         1    ;  uncertainty k = 0.347193
        14         7         6        16     9      180.000000       -0.419457         2    ;  uncertainty k = 0.228289
        14         7         6        16     9        0.000000        0.678263         3    ;  uncertainty k = 0.035688
        14         7         6        16     9      180.000000       -0.016624         4    ;  uncertainty k = 0.034638
        15         7         6        16     9        0.000000        0.453964         1    ;  uncertainty k = 0.347193
        15         7         6        16     9      180.000000       -0.419457         2    ;  uncertainty k = 0.228289
        15         7         6        16     9        0.000000        0.678263         3    ;  uncertainty k = 0.035688
        15         7         6        16     9      180.000000       -0.016624         4    ;  uncertainty k = 0.034638

[ dihedrals ] ; impropers
;       ai        aj        ak        al funct           phase               k        pn
         2         1         3         6     4      180.000000       20.818823         2    ;  uncertainty k = 0.091699
         2         3         6         1     4      180.000000       20.818823         2    ;  uncertainty k = 0.091699
         2         6         1         3     4      180.000000       20.818823         2    ;  uncertainty k = 0.091699

[ pairs ]
;       ai        aj funct
         1         7     1
         1         8     1
         1         9     1
         1        12     1
         1        16     1
         2         8     1
         2         9     1
         2        10     1
         2        11     1
         2        13     1
         2        14     1
         2        15     1
         3         7     1
         3        10     1
         3        11     1
         3        12     1
         3        16     1
         4         6     1
         5         6     1
         8        10     1
         8        11     1
         9        10     1
         9        11     1
        12        13     1
        12        14     1
        12        15     1
        13        16     1
        14        16     1
        15        16     1
