; ITP file created by ByteFF-joint-25, 2025-07-14 11:27:41.722103

[ atomtypes ]
;name           bonded.type        at.num        mass        charge   ptype           sigma         epsilon
 s0bf                                  16      0.0000       0.00000       A     3.53298e-01     1.18112e+00    ;  uncertainty sigma = 0.000010, epsilon = 0.003241
 c1bf                                   6      0.0000       0.00000       A     3.31562e-01     4.13527e-01    ;  uncertainty sigma = 0.000024, epsilon = 0.002470
 n2bf                                   7      0.0000       0.00000       A     3.38385e-01     3.93636e-01    ;  uncertainty sigma = 0.000027, epsilon = 0.001387
 c3bf                                   6      0.0000       0.00000       A     3.39754e-01     4.51049e-01    ;  uncertainty sigma = 0.000009, epsilon = 0.001145
 c4bf                                   6      0.0000       0.00000       A     3.39763e-01     4.51325e-01    ;  uncertainty sigma = 0.000013, epsilon = 0.001711
 c5bf                                   6      0.0000       0.00000       A     3.39779e-01     4.50684e-01    ;  uncertainty sigma = 0.000014, epsilon = 0.001179
 c6bf                                   6      0.0000       0.00000       A     3.39762e-01     4.50924e-01    ;  uncertainty sigma = 0.000009, epsilon = 0.000881
 c7bf                                   6      0.0000       0.00000       A     3.39771e-01     4.50872e-01    ;  uncertainty sigma = 0.000004, epsilon = 0.000581
 h8bf                                   1      0.0000       0.00000       A     2.42189e-01     8.65553e-02    ;  uncertainty sigma = 0.000031, epsilon = 0.001047
 h9bf                                   1      0.0000       0.00000       A     2.42189e-01     8.65553e-02    ;  uncertainty sigma = 0.000031, epsilon = 0.001047
 h10bf                                  1      0.0000       0.00000       A     2.42185e-01     8.66499e-02    ;  uncertainty sigma = 0.000026, epsilon = 0.000772
 h11bf                                  1      0.0000       0.00000       A     2.42185e-01     8.66499e-02    ;  uncertainty sigma = 0.000026, epsilon = 0.000772
 h12bf                                  1      0.0000       0.00000       A     2.60056e-01     8.70936e-02    ;  uncertainty sigma = 0.000012, epsilon = 0.000860
 h13bf                                  1      0.0000       0.00000       A     2.60040e-01     8.68294e-02    ;  uncertainty sigma = 0.000023, epsilon = 0.000973
 h14bf                                  1      0.0000       0.00000       A     2.60016e-01     8.66667e-02    ;  uncertainty sigma = 0.000012, epsilon = 0.000526
 h15bf                                  1      0.0000       0.00000       A     2.60016e-01     8.66667e-02    ;  uncertainty sigma = 0.000012, epsilon = 0.000526
 h16bf                                  1      0.0000       0.00000       A     2.60016e-01     8.66667e-02    ;  uncertainty sigma = 0.000012, epsilon = 0.000526
 h17bf                                  1      0.0000       0.00000       A     2.60056e-01     8.70936e-02    ;  uncertainty sigma = 0.000012, epsilon = 0.000860
 c18bf                                  6      0.0000       0.00000       A     3.39771e-01     4.50872e-01    ;  uncertainty sigma = 0.000004, epsilon = 0.000581
 h19bf                                  1      0.0000       0.00000       A     2.60016e-01     8.66667e-02    ;  uncertainty sigma = 0.000012, epsilon = 0.000526
 h20bf                                  1      0.0000       0.00000       A     2.60016e-01     8.66668e-02    ;  uncertainty sigma = 0.000012, epsilon = 0.000526
 h21bf                                  1      0.0000       0.00000       A     2.60016e-01     8.66666e-02    ;  uncertainty sigma = 0.000012, epsilon = 0.000526

[ moleculetype ]
;name             nrexcl
 MOL                   3

[ atoms ]
;       nr            type      resi   res      atom      cgnr      charge          mass ; qtot
         1            s0bf         1   UNL        s0         1    -0.35272       32.0670 ; qtot   -0.353
         2            c1bf         1   UNL        c1         2     0.48935       12.0110 ; qtot    0.137
         3            n2bf         1   UNL        n2         3    -0.57943       14.0070 ; qtot   -0.443
         4            c3bf         1   UNL        c3         4     0.09346       12.0110 ; qtot   -0.349
         5            c4bf         1   UNL        c4         5    -0.01039       12.0110 ; qtot   -0.360
         6            c5bf         1   UNL        c5         6    -0.11234       12.0110 ; qtot   -0.472
         7            c6bf         1   UNL        c6         7    -0.05560       12.0110 ; qtot   -0.528
         8            c7bf         1   UNL        c7         8    -0.09279       12.0110 ; qtot   -0.620
         9            h8bf         1   UNL        h8         9     0.07360        1.0080 ; qtot   -0.547
        10            h9bf         1   UNL        h9        10     0.07360        1.0080 ; qtot   -0.473
        11           h10bf         1   UNL       h10        11     0.08006        1.0080 ; qtot   -0.393
        12           h11bf         1   UNL       h11        12     0.08006        1.0080 ; qtot   -0.313
        13           h12bf         1   UNL       h12        13     0.06812        1.0080 ; qtot   -0.245
        14           h13bf         1   UNL       h13        14     0.05369        1.0080 ; qtot   -0.191
        15           h14bf         1   UNL       h14        15     0.03600        1.0080 ; qtot   -0.155
        16           h15bf         1   UNL       h15        16     0.03600        1.0080 ; qtot   -0.119
        17           h16bf         1   UNL       h16        17     0.03600        1.0080 ; qtot   -0.083
        18           h17bf         1   UNL       h17        18     0.06812        1.0080 ; qtot   -0.015
        19           c18bf         1   UNL       c18        19    -0.09279       12.0110 ; qtot   -0.108
        20           h19bf         1   UNL       h19        20     0.03600        1.0080 ; qtot   -0.072
        21           h20bf         1   UNL       h20        21     0.03600        1.0080 ; qtot   -0.036
        22           h21bf         1   UNL       h21        22     0.03600        1.0080 ; qtot    0.000

[ bonds ]
;       ai        aj funct               r               k
         1         2     1        0.180293   163857.930200    ;  uncertainty r = 0.000345, k = 23.518616
         1         5     1        0.183568   151026.413770    ;  uncertainty r = 0.000080, k = 7.234712
         2         3     1        0.127289   462215.244336    ;  uncertainty r = 0.000079, k = 14.418086
         2         6     1        0.150171   238391.444189    ;  uncertainty r = 0.000122, k = 4.954248
         3         4     1        0.146247   223364.259863    ;  uncertainty r = 0.000118, k = 12.422851
         4         5     1        0.154918   236789.731152    ;  uncertainty r = 0.000066, k = 10.915041
         4         9     1        0.109661   305303.982471    ;  uncertainty r = 0.000053, k = 2.928352
         4        10     1        0.109661   305303.982471    ;  uncertainty r = 0.000053, k = 2.928352
         5        11     1        0.109370   308378.190771    ;  uncertainty r = 0.000040, k = 2.214666
         5        12     1        0.109370   308378.190771    ;  uncertainty r = 0.000040, k = 2.214666
         6         7     1        0.153465   196003.724268    ;  uncertainty r = 0.000115, k = 4.723561
         6        13     1        0.109680   309901.913477    ;  uncertainty r = 0.000016, k = 2.701942
         6        18     1        0.109680   309901.913477    ;  uncertainty r = 0.000016, k = 2.701942
         7         8     1        0.153181   211114.938452    ;  uncertainty r = 0.000011, k = 3.295486
         7        14     1        0.109690   304058.716406    ;  uncertainty r = 0.000022, k = 2.060477
         7        19     1        0.153181   211114.938452    ;  uncertainty r = 0.000011, k = 3.295486
         8        15     1        0.109688   309781.940137    ;  uncertainty r = 0.000013, k = 1.202865
         8        16     1        0.109688   309781.940137    ;  uncertainty r = 0.000013, k = 1.202865
         8        17     1        0.109688   309781.940137    ;  uncertainty r = 0.000013, k = 1.202865
        19        20     1        0.109688   309781.940137    ;  uncertainty r = 0.000013, k = 1.202865
        19        21     1        0.109688   309781.940137    ;  uncertainty r = 0.000013, k = 1.202875
        19        22     1        0.109688   309781.940137    ;  uncertainty r = 0.000013, k = 1.202875

[ angles ]
;       ai        aj        ak funct           theta             cth
         1         2         3     1      121.147705      662.880219    ;  uncertainty theta = 0.006101, k = 0.219360
         1         2         6     1      118.244064      355.857385    ;  uncertainty theta = 0.004788, k = 0.163232
         1         5         4     1      105.198021      749.111185    ;  uncertainty theta = 0.003561, k = 0.216292
         1         5        11     1      107.478966      397.445365    ;  uncertainty theta = 0.003545, k = 0.127164
         1         5        12     1      107.478966      397.445365    ;  uncertainty theta = 0.003545, k = 0.127164
         2         1         5     1       91.092842      853.466731    ;  uncertainty theta = 0.003814, k = 0.106601
         2         3         4     1      111.789001      619.557279    ;  uncertainty theta = 0.006117, k = 0.243090
         2         6         7     1      109.883034      509.046779    ;  uncertainty theta = 0.003957, k = 0.138454
         2         6        13     1      106.556984      389.707078    ;  uncertainty theta = 0.001928, k = 0.061735
         2         6        18     1      106.556984      389.707078    ;  uncertainty theta = 0.001928, k = 0.061735
         3         2         6     1      124.677467      443.403448    ;  uncertainty theta = 0.002599, k = 0.162063
         3         4         5     1      110.161575      770.720303    ;  uncertainty theta = 0.002886, k = 0.128782
         3         4         9     1      107.263100      443.169879    ;  uncertainty theta = 0.002454, k = 0.058738
         3         4        10     1      107.263100      443.169879    ;  uncertainty theta = 0.002454, k = 0.058738
         4         5        11     1      110.760452      392.443220    ;  uncertainty theta = 0.002400, k = 0.085989
         4         5        12     1      110.760452      392.443220    ;  uncertainty theta = 0.002400, k = 0.085989
         5         4         9     1      109.248192      399.984360    ;  uncertainty theta = 0.003230, k = 0.171945
         5         4        10     1      109.248192      399.984360    ;  uncertainty theta = 0.003230, k = 0.171945
         6         7         8     1      108.884789      536.660630    ;  uncertainty theta = 0.001080, k = 0.070131
         6         7        14     1      105.047531      379.165807    ;  uncertainty theta = 0.002637, k = 0.040552
         6         7        19     1      108.884789      536.660630    ;  uncertainty theta = 0.001080, k = 0.070131
         7         6        13     1      107.828941      384.829874    ;  uncertainty theta = 0.001796, k = 0.019340
         7         6        18     1      107.828941      384.829874    ;  uncertainty theta = 0.001796, k = 0.019340
         7         8        15     1      107.836647      395.609694    ;  uncertainty theta = 0.001684, k = 0.017563
         7         8        16     1      107.836647      395.609694    ;  uncertainty theta = 0.001684, k = 0.017563
         7         8        17     1      107.836647      395.609694    ;  uncertainty theta = 0.001684, k = 0.017563
         7        19        20     1      107.836647      395.609694    ;  uncertainty theta = 0.001684, k = 0.017563
         7        19        21     1      107.836647      395.609694    ;  uncertainty theta = 0.001684, k = 0.017563
         7        19        22     1      107.836647      395.609694    ;  uncertainty theta = 0.001684, k = 0.017563
         8         7        14     1      106.954910      401.780896    ;  uncertainty theta = 0.001516, k = 0.012981
         8         7        19     1      110.197098      609.155887    ;  uncertainty theta = 0.000832, k = 0.053551
         9         4        10     1      105.730789      308.452529    ;  uncertainty theta = 0.001845, k = 0.122547
        11         5        12     1      106.657936      309.034807    ;  uncertainty theta = 0.001717, k = 0.046699
        13         6        18     1      105.405113      319.548467    ;  uncertainty theta = 0.002247, k = 0.039474
        14         7        19     1      106.954910      401.780864    ;  uncertainty theta = 0.001516, k = 0.012981
        15         8        16     1      105.101402      317.765339    ;  uncertainty theta = 0.001667, k = 0.016252
        15         8        17     1      105.101402      317.765339    ;  uncertainty theta = 0.001667, k = 0.016252
        16         8        17     1      105.101402      317.765339    ;  uncertainty theta = 0.001667, k = 0.016252
        20        19        21     1      105.101402      317.765339    ;  uncertainty theta = 0.001667, k = 0.016252
        20        19        22     1      105.101402      317.765339    ;  uncertainty theta = 0.001667, k = 0.016252
        21        19        22     1      105.101402      317.765339    ;  uncertainty theta = 0.001667, k = 0.016252

[ dihedrals ] ; propers for gromacs 4.5 or higher, use funct 9
;       ai        aj        ak        al funct           phase               k        pn
         1         2         3         4     9        0.000000        0.310358         1    ;  uncertainty k = 1.563056
         1         2         3         4     9      180.000000       29.662649         2    ;  uncertainty k = 0.197644
         1         2         3         4     9        0.000000        0.194618         3    ;  uncertainty k = 0.979404
         1         2         3         4     9      180.000000        0.944572         4    ;  uncertainty k = 0.350573
         1         2         6         7     9        0.000000       -1.887374         1    ;  uncertainty k = 1.142459
         1         2         6         7     9      180.000000        2.037250         2    ;  uncertainty k = 0.542651
         1         2         6         7     9        0.000000        0.419475         3    ;  uncertainty k = 0.113097
         1         2         6         7     9      180.000000        0.106989         4    ;  uncertainty k = 0.101698
         1         2         6        13     9        0.000000        0.070503         1    ;  uncertainty k = 0.638252
         1         2         6        13     9      180.000000        1.957280         2    ;  uncertainty k = 0.342350
         1         2         6        13     9        0.000000        0.752234         3    ;  uncertainty k = 0.139452
         1         2         6        13     9      180.000000        0.185605         4    ;  uncertainty k = 0.054224
         1         2         6        18     9        0.000000        0.070503         1    ;  uncertainty k = 0.638252
         1         2         6        18     9      180.000000        1.957280         2    ;  uncertainty k = 0.342350
         1         2         6        18     9        0.000000        0.752234         3    ;  uncertainty k = 0.139452
         1         2         6        18     9      180.000000        0.185605         4    ;  uncertainty k = 0.054224
         1         5         4         3     9        0.000000        1.602715         1    ;  uncertainty k = 0.782916
         1         5         4         3     9      180.000000       -2.701092         2    ;  uncertainty k = 0.551291
         1         5         4         3     9        0.000000        1.645471         3    ;  uncertainty k = 0.521831
         1         5         4         3     9      180.000000       -1.429198         4    ;  uncertainty k = 0.398246
         1         5         4         9     9        0.000000        0.589721         1    ;  uncertainty k = 0.292884
         1         5         4         9     9      180.000000       -1.594749         2    ;  uncertainty k = 0.646212
         1         5         4         9     9        0.000000        0.789427         3    ;  uncertainty k = 0.227584
         1         5         4         9     9      180.000000       -0.008688         4    ;  uncertainty k = 0.131606
         1         5         4        10     9        0.000000        0.589721         1    ;  uncertainty k = 0.292884
         1         5         4        10     9      180.000000       -1.594749         2    ;  uncertainty k = 0.646212
         1         5         4        10     9        0.000000        0.789427         3    ;  uncertainty k = 0.227584
         1         5         4        10     9      180.000000       -0.008688         4    ;  uncertainty k = 0.131606
         2         1         5         4     9        0.000000        1.593251         1    ;  uncertainty k = 1.975871
         2         1         5         4     9      180.000000        5.149348         2    ;  uncertainty k = 1.175454
         2         1         5         4     9        0.000000        0.056895         3    ;  uncertainty k = 0.739683
         2         1         5         4     9      180.000000       -1.738065         4    ;  uncertainty k = 0.725775
         2         1         5        11     9        0.000000        0.774100         1    ;  uncertainty k = 0.663177
         2         1         5        11     9      180.000000       -1.367491         2    ;  uncertainty k = 0.340460
         2         1         5        11     9        0.000000        0.599395         3    ;  uncertainty k = 0.213494
         2         1         5        11     9      180.000000        0.207160         4    ;  uncertainty k = 0.095938
         2         1         5        12     9        0.000000        0.774100         1    ;  uncertainty k = 0.663177
         2         1         5        12     9      180.000000       -1.367491         2    ;  uncertainty k = 0.340460
         2         1         5        12     9        0.000000        0.599395         3    ;  uncertainty k = 0.213494
         2         1         5        12     9      180.000000        0.207160         4    ;  uncertainty k = 0.095938
         2         3         4         5     9        0.000000       -1.560322         1    ;  uncertainty k = 2.988292
         2         3         4         5     9      180.000000        8.781593         2    ;  uncertainty k = 0.829405
         2         3         4         5     9        0.000000       -1.085479         3    ;  uncertainty k = 0.287386
         2         3         4         5     9      180.000000       -0.122676         4    ;  uncertainty k = 0.418093
         2         3         4         9     9        0.000000       -1.654153         1    ;  uncertainty k = 2.157195
         2         3         4         9     9      180.000000        2.149792         2    ;  uncertainty k = 0.584480
         2         3         4         9     9        0.000000        0.565519         3    ;  uncertainty k = 0.260878
         2         3         4         9     9      180.000000        0.111366         4    ;  uncertainty k = 0.130601
         2         3         4        10     9        0.000000       -1.654153         1    ;  uncertainty k = 2.157195
         2         3         4        10     9      180.000000        2.149792         2    ;  uncertainty k = 0.584480
         2         3         4        10     9        0.000000        0.565519         3    ;  uncertainty k = 0.260878
         2         3         4        10     9      180.000000        0.111366         4    ;  uncertainty k = 0.130601
         2         6         7         8     9        0.000000       -2.337689         1    ;  uncertainty k = 0.962544
         2         6         7         8     9      180.000000       -0.058494         2    ;  uncertainty k = 0.115042
         2         6         7         8     9        0.000000        1.141469         3    ;  uncertainty k = 0.097529
         2         6         7         8     9      180.000000       -0.047002         4    ;  uncertainty k = 0.056878
         2         6         7        14     9        0.000000        1.215836         1    ;  uncertainty k = 0.389613
         2         6         7        14     9      180.000000       -1.233240         2    ;  uncertainty k = 0.171139
         2         6         7        14     9        0.000000        0.738340         3    ;  uncertainty k = 0.075820
         2         6         7        14     9      180.000000        0.060899         4    ;  uncertainty k = 0.080839
         2         6         7        19     9        0.000000       -2.337689         1    ;  uncertainty k = 0.962544
         2         6         7        19     9      180.000000       -0.058494         2    ;  uncertainty k = 0.115042
         2         6         7        19     9        0.000000        1.141469         3    ;  uncertainty k = 0.097529
         2         6         7        19     9      180.000000       -0.047002         4    ;  uncertainty k = 0.056878
         3         2         1         5     9        0.000000       -1.387294         1    ;  uncertainty k = 2.848852
         3         2         1         5     9      180.000000       20.034389         2    ;  uncertainty k = 0.514150
         3         2         1         5     9        0.000000       -1.722151         3    ;  uncertainty k = 0.633999
         3         2         1         5     9      180.000000       -1.372500         4    ;  uncertainty k = 0.469420
         3         2         6         7     9        0.000000       -0.029530         1    ;  uncertainty k = 0.933251
         3         2         6         7     9      180.000000        3.746997         2    ;  uncertainty k = 0.387940
         3         2         6         7     9        0.000000       -0.127341         3    ;  uncertainty k = 0.144526
         3         2         6         7     9      180.000000        0.215615         4    ;  uncertainty k = 0.127178
         3         2         6        13     9        0.000000        2.217546         1    ;  uncertainty k = 0.759618
         3         2         6        13     9      180.000000        3.680655         2    ;  uncertainty k = 0.496511
         3         2         6        13     9        0.000000        0.152821         3    ;  uncertainty k = 0.191211
         3         2         6        13     9      180.000000        0.220049         4    ;  uncertainty k = 0.069898
         3         2         6        18     9        0.000000        2.217546         1    ;  uncertainty k = 0.759618
         3         2         6        18     9      180.000000        3.680655         2    ;  uncertainty k = 0.496511
         3         2         6        18     9        0.000000        0.152821         3    ;  uncertainty k = 0.191211
         3         2         6        18     9      180.000000        0.220049         4    ;  uncertainty k = 0.069898
         3         4         5        11     9        0.000000       -0.388397         1    ;  uncertainty k = 0.231890
         3         4         5        11     9      180.000000        0.010844         2    ;  uncertainty k = 0.478775
         3         4         5        11     9        0.000000        0.956973         3    ;  uncertainty k = 0.219687
         3         4         5        11     9      180.000000        0.020618         4    ;  uncertainty k = 0.053277
         3         4         5        12     9        0.000000       -0.388397         1    ;  uncertainty k = 0.231890
         3         4         5        12     9      180.000000        0.010844         2    ;  uncertainty k = 0.478775
         3         4         5        12     9        0.000000        0.956973         3    ;  uncertainty k = 0.219687
         3         4         5        12     9      180.000000        0.020618         4    ;  uncertainty k = 0.053277
         4         3         2         6     9        0.000000       -0.130683         1    ;  uncertainty k = 0.783537
         4         3         2         6     9      180.000000       25.291574         2    ;  uncertainty k = 0.514347
         4         3         2         6     9        0.000000        2.390444         3    ;  uncertainty k = 0.611419
         4         3         2         6     9      180.000000        0.919559         4    ;  uncertainty k = 0.811773
         5         1         2         6     9        0.000000        1.606367         1    ;  uncertainty k = 2.410728
         5         1         2         6     9      180.000000        7.639795         2    ;  uncertainty k = 1.144897
         5         1         2         6     9        0.000000        1.297293         3    ;  uncertainty k = 0.661594
         5         1         2         6     9      180.000000       -0.050499         4    ;  uncertainty k = 0.454486
         6         7         8        15     9        0.000000       -1.479922         1    ;  uncertainty k = 0.232571
         6         7         8        15     9      180.000000       -0.967479         2    ;  uncertainty k = 0.133498
         6         7         8        15     9        0.000000        1.024631         3    ;  uncertainty k = 0.033304
         6         7         8        15     9      180.000000       -0.330986         4    ;  uncertainty k = 0.015311
         6         7         8        16     9        0.000000       -1.479922         1    ;  uncertainty k = 0.232571
         6         7         8        16     9      180.000000       -0.967479         2    ;  uncertainty k = 0.133498
         6         7         8        16     9        0.000000        1.024631         3    ;  uncertainty k = 0.033304
         6         7         8        16     9      180.000000       -0.330986         4    ;  uncertainty k = 0.015311
         6         7         8        17     9        0.000000       -1.479922         1    ;  uncertainty k = 0.232571
         6         7         8        17     9      180.000000       -0.967479         2    ;  uncertainty k = 0.133498
         6         7         8        17     9        0.000000        1.024631         3    ;  uncertainty k = 0.033304
         6         7         8        17     9      180.000000       -0.330986         4    ;  uncertainty k = 0.015311
         6         7        19        20     9        0.000000       -1.479922         1    ;  uncertainty k = 0.232571
         6         7        19        20     9      180.000000       -0.967479         2    ;  uncertainty k = 0.133498
         6         7        19        20     9        0.000000        1.024631         3    ;  uncertainty k = 0.033304
         6         7        19        20     9      180.000000       -0.330986         4    ;  uncertainty k = 0.015311
         6         7        19        21     9        0.000000       -1.479922         1    ;  uncertainty k = 0.232571
         6         7        19        21     9      180.000000       -0.967479         2    ;  uncertainty k = 0.133498
         6         7        19        21     9        0.000000        1.024631         3    ;  uncertainty k = 0.033304
         6         7        19        21     9      180.000000       -0.330986         4    ;  uncertainty k = 0.015311
         6         7        19        22     9        0.000000       -1.479922         1    ;  uncertainty k = 0.232571
         6         7        19        22     9      180.000000       -0.967479         2    ;  uncertainty k = 0.133498
         6         7        19        22     9        0.000000        1.024631         3    ;  uncertainty k = 0.033304
         6         7        19        22     9      180.000000       -0.330986         4    ;  uncertainty k = 0.015311
         8         7         6        13     9        0.000000       -1.658656         1    ;  uncertainty k = 0.427858
         8         7         6        13     9      180.000000        0.104503         2    ;  uncertainty k = 0.108528
         8         7         6        13     9        0.000000        0.660010         3    ;  uncertainty k = 0.057564
         8         7         6        13     9      180.000000       -0.205540         4    ;  uncertainty k = 0.024302
         8         7         6        18     9        0.000000       -1.658656         1    ;  uncertainty k = 0.427858
         8         7         6        18     9      180.000000        0.104503         2    ;  uncertainty k = 0.108528
         8         7         6        18     9        0.000000        0.660010         3    ;  uncertainty k = 0.057564
         8         7         6        18     9      180.000000       -0.205540         4    ;  uncertainty k = 0.024302
         8         7        19        20     9        0.000000       -1.783729         1    ;  uncertainty k = 0.285911
         8         7        19        20     9      180.000000       -0.182260         2    ;  uncertainty k = 0.137994
         8         7        19        20     9        0.000000        1.116815         3    ;  uncertainty k = 0.020594
         8         7        19        20     9      180.000000       -0.163372         4    ;  uncertainty k = 0.033158
         8         7        19        21     9        0.000000       -1.783729         1    ;  uncertainty k = 0.285911
         8         7        19        21     9      180.000000       -0.182260         2    ;  uncertainty k = 0.137994
         8         7        19        21     9        0.000000        1.116815         3    ;  uncertainty k = 0.020594
         8         7        19        21     9      180.000000       -0.163372         4    ;  uncertainty k = 0.033158
         8         7        19        22     9        0.000000       -1.783729         1    ;  uncertainty k = 0.285911
         8         7        19        22     9      180.000000       -0.182260         2    ;  uncertainty k = 0.137994
         8         7        19        22     9        0.000000        1.116815         3    ;  uncertainty k = 0.020594
         8         7        19        22     9      180.000000       -0.163372         4    ;  uncertainty k = 0.033158
         9         4         5        11     9        0.000000       -0.061506         1    ;  uncertainty k = 0.302134
         9         4         5        11     9      180.000000       -0.127144         2    ;  uncertainty k = 0.300727
         9         4         5        11     9        0.000000        0.232029         3    ;  uncertainty k = 0.176728
         9         4         5        11     9      180.000000       -0.010401         4    ;  uncertainty k = 0.065290
         9         4         5        12     9        0.000000       -0.061506         1    ;  uncertainty k = 0.302134
         9         4         5        12     9      180.000000       -0.127144         2    ;  uncertainty k = 0.300727
         9         4         5        12     9        0.000000        0.232029         3    ;  uncertainty k = 0.176728
         9         4         5        12     9      180.000000       -0.010401         4    ;  uncertainty k = 0.065290
        10         4         5        11     9        0.000000       -0.061506         1    ;  uncertainty k = 0.302134
        10         4         5        11     9      180.000000       -0.127144         2    ;  uncertainty k = 0.300727
        10         4         5        11     9        0.000000        0.232029         3    ;  uncertainty k = 0.176728
        10         4         5        11     9      180.000000       -0.010401         4    ;  uncertainty k = 0.065290
        10         4         5        12     9        0.000000       -0.061506         1    ;  uncertainty k = 0.302134
        10         4         5        12     9      180.000000       -0.127144         2    ;  uncertainty k = 0.300727
        10         4         5        12     9        0.000000        0.232029         3    ;  uncertainty k = 0.176728
        10         4         5        12     9      180.000000       -0.010401         4    ;  uncertainty k = 0.065290
        13         6         7        14     9        0.000000        1.387570         1    ;  uncertainty k = 0.358685
        13         6         7        14     9      180.000000       -0.870172         2    ;  uncertainty k = 0.156591
        13         6         7        14     9        0.000000       -0.132692         3    ;  uncertainty k = 0.084076
        13         6         7        14     9      180.000000       -0.047041         4    ;  uncertainty k = 0.055114
        13         6         7        19     9        0.000000       -1.658656         1    ;  uncertainty k = 0.427858
        13         6         7        19     9      180.000000        0.104503         2    ;  uncertainty k = 0.108528
        13         6         7        19     9        0.000000        0.660010         3    ;  uncertainty k = 0.057564
        13         6         7        19     9      180.000000       -0.205540         4    ;  uncertainty k = 0.024302
        14         7         6        18     9        0.000000        1.387570         1    ;  uncertainty k = 0.358685
        14         7         6        18     9      180.000000       -0.870172         2    ;  uncertainty k = 0.156591
        14         7         6        18     9        0.000000       -0.132692         3    ;  uncertainty k = 0.084076
        14         7         6        18     9      180.000000       -0.047041         4    ;  uncertainty k = 0.055114
        14         7         8        15     9        0.000000        1.482743         1    ;  uncertainty k = 0.355557
        14         7         8        15     9      180.000000       -1.169263         2    ;  uncertainty k = 0.159508
        14         7         8        15     9        0.000000        0.263964         3    ;  uncertainty k = 0.042063
        14         7         8        15     9      180.000000       -0.028589         4    ;  uncertainty k = 0.036062
        14         7         8        16     9        0.000000        1.482743         1    ;  uncertainty k = 0.355557
        14         7         8        16     9      180.000000       -1.169263         2    ;  uncertainty k = 0.159508
        14         7         8        16     9        0.000000        0.263964         3    ;  uncertainty k = 0.042063
        14         7         8        16     9      180.000000       -0.028589         4    ;  uncertainty k = 0.036062
        14         7         8        17     9        0.000000        1.482743         1    ;  uncertainty k = 0.355557
        14         7         8        17     9      180.000000       -1.169263         2    ;  uncertainty k = 0.159508
        14         7         8        17     9        0.000000        0.263964         3    ;  uncertainty k = 0.042063
        14         7         8        17     9      180.000000       -0.028589         4    ;  uncertainty k = 0.036062
        14         7        19        20     9        0.000000        1.482743         1    ;  uncertainty k = 0.355557
        14         7        19        20     9      180.000000       -1.169263         2    ;  uncertainty k = 0.159508
        14         7        19        20     9        0.000000        0.263964         3    ;  uncertainty k = 0.042063
        14         7        19        20     9      180.000000       -0.028589         4    ;  uncertainty k = 0.036062
        14         7        19        21     9        0.000000        1.482743         1    ;  uncertainty k = 0.355557
        14         7        19        21     9      180.000000       -1.169263         2    ;  uncertainty k = 0.159508
        14         7        19        21     9        0.000000        0.263964         3    ;  uncertainty k = 0.042063
        14         7        19        21     9      180.000000       -0.028589         4    ;  uncertainty k = 0.036062
        14         7        19        22     9        0.000000        1.482743         1    ;  uncertainty k = 0.355557
        14         7        19        22     9      180.000000       -1.169263         2    ;  uncertainty k = 0.159508
        14         7        19        22     9        0.000000        0.263964         3    ;  uncertainty k = 0.042063
        14         7        19        22     9      180.000000       -0.028589         4    ;  uncertainty k = 0.036062
        15         8         7        19     9        0.000000       -1.783729         1    ;  uncertainty k = 0.285911
        15         8         7        19     9      180.000000       -0.182260         2    ;  uncertainty k = 0.137994
        15         8         7        19     9        0.000000        1.116815         3    ;  uncertainty k = 0.020594
        15         8         7        19     9      180.000000       -0.163372         4    ;  uncertainty k = 0.033158
        16         8         7        19     9        0.000000       -1.783729         1    ;  uncertainty k = 0.285911
        16         8         7        19     9      180.000000       -0.182260         2    ;  uncertainty k = 0.137994
        16         8         7        19     9        0.000000        1.116815         3    ;  uncertainty k = 0.020594
        16         8         7        19     9      180.000000       -0.163372         4    ;  uncertainty k = 0.033158
        17         8         7        19     9        0.000000       -1.783729         1    ;  uncertainty k = 0.285911
        17         8         7        19     9      180.000000       -0.182260         2    ;  uncertainty k = 0.137994
        17         8         7        19     9        0.000000        1.116815         3    ;  uncertainty k = 0.020594
        17         8         7        19     9      180.000000       -0.163372         4    ;  uncertainty k = 0.033158
        18         6         7        19     9        0.000000       -1.658656         1    ;  uncertainty k = 0.427858
        18         6         7        19     9      180.000000        0.104503         2    ;  uncertainty k = 0.108528
        18         6         7        19     9        0.000000        0.660010         3    ;  uncertainty k = 0.057564
        18         6         7        19     9      180.000000       -0.205540         4    ;  uncertainty k = 0.024302

[ dihedrals ] ; impropers
;       ai        aj        ak        al funct           phase               k        pn
         2         1         3         6     4      180.000000       20.810914         2    ;  uncertainty k = 0.110178
         2         3         6         1     4      180.000000       20.810914         2    ;  uncertainty k = 0.110178
         2         6         1         3     4      180.000000       20.810914         2    ;  uncertainty k = 0.110178

[ pairs ]
;       ai        aj funct
         1         7     1
         1         9     1
         1        10     1
         1        13     1
         1        18     1
         2         8     1
         2         9     1
         2        10     1
         2        11     1
         2        12     1
         2        14     1
         2        19     1
         3         7     1
         3        11     1
         3        12     1
         3        13     1
         3        18     1
         4         6     1
         5         6     1
         6        15     1
         6        16     1
         6        17     1
         6        20     1
         6        21     1
         6        22     1
         8        13     1
         8        18     1
         8        20     1
         8        21     1
         8        22     1
         9        11     1
         9        12     1
        10        11     1
        10        12     1
        13        14     1
        13        19     1
        14        15     1
        14        16     1
        14        17     1
        14        18     1
        14        20     1
        14        21     1
        14        22     1
        15        19     1
        16        19     1
        17        19     1
        18        19     1
