; ITP file created by ByteFF-joint-25, 2025-07-14 11:27:42.133631

[ atomtypes ]
;name           bonded.type        at.num        mass        charge   ptype           sigma         epsilon
 s0bf                                  16      0.0000       0.00000       A     3.53326e-01     1.18063e+00    ;  uncertainty sigma = 0.000008, epsilon = 0.002706
 c1bf                                   6      0.0000       0.00000       A     3.31532e-01     4.14603e-01    ;  uncertainty sigma = 0.000025, epsilon = 0.002785
 n2bf                                   7      0.0000       0.00000       A     3.38370e-01     3.93743e-01    ;  uncertainty sigma = 0.000036, epsilon = 0.001067
 c3bf                                   6      0.0000       0.00000       A     3.39754e-01     4.51080e-01    ;  uncertainty sigma = 0.000008, epsilon = 0.001109
 c4bf                                   6      0.0000       0.00000       A     3.39760e-01     4.51350e-01    ;  uncertainty sigma = 0.000015, epsilon = 0.001675
 c5bf                                   6      0.0000       0.00000       A     3.39775e-01     4.50859e-01    ;  uncertainty sigma = 0.000010, epsilon = 0.001004
 h6bf                                   1      0.0000       0.00000       A     2.42189e-01     8.65553e-02    ;  uncertainty sigma = 0.000031, epsilon = 0.001047
 h7bf                                   1      0.0000       0.00000       A     2.42189e-01     8.65553e-02    ;  uncertainty sigma = 0.000031, epsilon = 0.001047
 h8bf                                   1      0.0000       0.00000       A     2.42185e-01     8.66499e-02    ;  uncertainty sigma = 0.000025, epsilon = 0.000772
 h9bf                                   1      0.0000       0.00000       A     2.42185e-01     8.66499e-02    ;  uncertainty sigma = 0.000025, epsilon = 0.000772
 h10bf                                  1      0.0000       0.00000       A     2.60031e-01     8.66999e-02    ;  uncertainty sigma = 0.000010, epsilon = 0.000409
 h11bf                                  1      0.0000       0.00000       A     2.60031e-01     8.66999e-02    ;  uncertainty sigma = 0.000010, epsilon = 0.000409
 h12bf                                  1      0.0000       0.00000       A     2.60031e-01     8.67000e-02    ;  uncertainty sigma = 0.000010, epsilon = 0.000409

[ moleculetype ]
;name             nrexcl
 MOL                   3

[ atoms ]
;       nr            type      resi   res      atom      cgnr      charge          mass ; qtot
         1            s0bf         1   UNL        s0         1    -0.36723       32.0670 ; qtot   -0.367
         2            c1bf         1   UNL        c1         2     0.48464       12.0110 ; qtot    0.117
         3            n2bf         1   UNL        n2         3    -0.57501       14.0070 ; qtot   -0.458
         4            c3bf         1   UNL        c3         4     0.09196       12.0110 ; qtot   -0.366
         5            c4bf         1   UNL        c4         5    -0.00727       12.0110 ; qtot   -0.373
         6            c5bf         1   UNL        c5         6    -0.12058       12.0110 ; qtot   -0.493
         7            h6bf         1   UNL        h6         7     0.07273        1.0080 ; qtot   -0.421
         8            h7bf         1   UNL        h7         8     0.07273        1.0080 ; qtot   -0.348
         9            h8bf         1   UNL        h8         9     0.07916        1.0080 ; qtot   -0.269
        10            h9bf         1   UNL        h9        10     0.07916        1.0080 ; qtot   -0.190
        11           h10bf         1   UNL       h10        11     0.06323        1.0080 ; qtot   -0.126
        12           h11bf         1   UNL       h11        12     0.06323        1.0080 ; qtot   -0.063
        13           h12bf         1   UNL       h12        13     0.06325        1.0080 ; qtot    0.000

[ bonds ]
;       ai        aj funct               r               k
         1         2     1        0.180623   166063.723560    ;  uncertainty r = 0.000283, k = 11.516011
         1         5     1        0.183593   150609.443848    ;  uncertainty r = 0.000109, k = 5.076797
         2         3     1        0.127267   459930.847754    ;  uncertainty r = 0.000061, k = 23.383939
         2         6     1        0.150174   258653.480566    ;  uncertainty r = 0.000084, k = 8.429890
         3         4     1        0.146247   224224.375244    ;  uncertainty r = 0.000094, k = 12.025843
         4         5     1        0.154936   236626.778857    ;  uncertainty r = 0.000073, k = 10.618376
         4         7     1        0.109670   305060.230762    ;  uncertainty r = 0.000054, k = 3.001582
         4         8     1        0.109670   305060.230762    ;  uncertainty r = 0.000054, k = 3.001600
         5         9     1        0.109373   308307.504053    ;  uncertainty r = 0.000034, k = 2.170103
         5        10     1        0.109373   308307.504053    ;  uncertainty r = 0.000034, k = 2.170102
         6        11     1        0.109454   312623.250000    ;  uncertainty r = 0.000018, k = 1.996447
         6        12     1        0.109454   312623.250000    ;  uncertainty r = 0.000018, k = 1.996447
         6        13     1        0.109454   312623.250000    ;  uncertainty r = 0.000018, k = 1.996441

[ angles ]
;       ai        aj        ak funct           theta             cth
         1         2         3     1      121.219101      671.988923    ;  uncertainty theta = 0.005517, k = 0.209543
         1         2         6     1      118.237488      378.596521    ;  uncertainty theta = 0.004880, k = 0.224757
         1         5         4     1      105.228554      754.196006    ;  uncertainty theta = 0.004313, k = 0.153797
         1         5         9     1      107.524734      399.262235    ;  uncertainty theta = 0.003444, k = 0.163021
         1         5        10     1      107.524734      399.262235    ;  uncertainty theta = 0.003444, k = 0.163021
         2         1         5     1       91.094566      859.346012    ;  uncertainty theta = 0.003529, k = 0.101486
         2         3         4     1      111.716309      606.487386    ;  uncertainty theta = 0.003461, k = 0.316171
         2         6        11     1      108.681686      393.398308    ;  uncertainty theta = 0.000999, k = 0.111210
         2         6        12     1      108.681686      393.398308    ;  uncertainty theta = 0.000999, k = 0.111210
         2         6        13     1      108.681686      393.398340    ;  uncertainty theta = 0.000999, k = 0.111210
         3         2         6     1      124.526993      459.832236    ;  uncertainty theta = 0.002966, k = 0.244643
         3         4         5     1      110.291153      782.419875    ;  uncertainty theta = 0.002949, k = 0.141062
         3         4         7     1      107.373352      445.268965    ;  uncertainty theta = 0.002252, k = 0.066495
         3         4         8     1      107.373352      445.268933    ;  uncertainty theta = 0.002252, k = 0.066494
         4         5         9     1      110.784256      392.530078    ;  uncertainty theta = 0.002473, k = 0.097772
         4         5        10     1      110.784256      392.530078    ;  uncertainty theta = 0.002473, k = 0.097772
         5         4         7     1      109.225571      399.949534    ;  uncertainty theta = 0.003386, k = 0.171605
         5         4         8     1      109.225571      399.949534    ;  uncertainty theta = 0.003386, k = 0.171605
         7         4         8     1      105.721573      307.956471    ;  uncertainty theta = 0.001906, k = 0.126246
         9         5        10     1      106.661011      309.115313    ;  uncertainty theta = 0.001830, k = 0.045797
        11         6        12     1      107.081261      310.565693    ;  uncertainty theta = 0.000954, k = 0.048802
        11         6        13     1      107.081261      310.565725    ;  uncertainty theta = 0.000954, k = 0.048802
        12         6        13     1      107.081261      310.565725    ;  uncertainty theta = 0.000954, k = 0.048802

[ dihedrals ] ; propers for gromacs 4.5 or higher, use funct 9
;       ai        aj        ak        al funct           phase               k        pn
         1         2         3         4     9        0.000000        0.261358         1    ;  uncertainty k = 1.479981
         1         2         3         4     9      180.000000       29.666913         2    ;  uncertainty k = 0.085392
         1         2         3         4     9        0.000000        0.195411         3    ;  uncertainty k = 0.924800
         1         2         3         4     9      180.000000        0.677242         4    ;  uncertainty k = 0.652480
         1         2         6        11     9        0.000000        0.383833         1    ;  uncertainty k = 0.348882
         1         2         6        11     9      180.000000        1.330192         2    ;  uncertainty k = 0.483821
         1         2         6        11     9        0.000000        0.668177         3    ;  uncertainty k = 0.106442
         1         2         6        11     9      180.000000        0.137649         4    ;  uncertainty k = 0.070277
         1         2         6        12     9        0.000000        0.383833         1    ;  uncertainty k = 0.348882
         1         2         6        12     9      180.000000        1.330192         2    ;  uncertainty k = 0.483821
         1         2         6        12     9        0.000000        0.668177         3    ;  uncertainty k = 0.106442
         1         2         6        12     9      180.000000        0.137649         4    ;  uncertainty k = 0.070277
         1         2         6        13     9        0.000000        0.383833         1    ;  uncertainty k = 0.348882
         1         2         6        13     9      180.000000        1.330192         2    ;  uncertainty k = 0.483821
         1         2         6        13     9        0.000000        0.668176         3    ;  uncertainty k = 0.106442
         1         2         6        13     9      180.000000        0.137649         4    ;  uncertainty k = 0.070277
         1         5         4         3     9        0.000000        1.542600         1    ;  uncertainty k = 0.881350
         1         5         4         3     9      180.000000       -2.808057         2    ;  uncertainty k = 0.637442
         1         5         4         3     9        0.000000        1.642266         3    ;  uncertainty k = 0.542818
         1         5         4         3     9      180.000000       -1.377732         4    ;  uncertainty k = 0.403826
         1         5         4         7     9        0.000000        0.558395         1    ;  uncertainty k = 0.375246
         1         5         4         7     9      180.000000       -1.605315         2    ;  uncertainty k = 0.646408
         1         5         4         7     9        0.000000        0.787513         3    ;  uncertainty k = 0.257102
         1         5         4         7     9      180.000000       -0.009278         4    ;  uncertainty k = 0.144466
         1         5         4         8     9        0.000000        0.558396         1    ;  uncertainty k = 0.375246
         1         5         4         8     9      180.000000       -1.605317         2    ;  uncertainty k = 0.646409
         1         5         4         8     9        0.000000        0.787513         3    ;  uncertainty k = 0.257102
         1         5         4         8     9      180.000000       -0.009278         4    ;  uncertainty k = 0.144466
         2         1         5         4     9        0.000000        1.850093         1    ;  uncertainty k = 2.006155
         2         1         5         4     9      180.000000        4.843599         2    ;  uncertainty k = 1.411214
         2         1         5         4     9        0.000000        0.020029         3    ;  uncertainty k = 0.739744
         2         1         5         4     9      180.000000       -1.751738         4    ;  uncertainty k = 0.736812
         2         1         5         9     9        0.000000        0.630542         1    ;  uncertainty k = 0.580317
         2         1         5         9     9      180.000000       -1.328767         2    ;  uncertainty k = 0.461150
         2         1         5         9     9        0.000000        0.628579         3    ;  uncertainty k = 0.206181
         2         1         5         9     9      180.000000        0.189371         4    ;  uncertainty k = 0.076604
         2         1         5        10     9        0.000000        0.630541         1    ;  uncertainty k = 0.580316
         2         1         5        10     9      180.000000       -1.328767         2    ;  uncertainty k = 0.461152
         2         1         5        10     9        0.000000        0.628579         3    ;  uncertainty k = 0.206180
         2         1         5        10     9      180.000000        0.189371         4    ;  uncertainty k = 0.076604
         2         3         4         5     9        0.000000       -1.474247         1    ;  uncertainty k = 3.283197
         2         3         4         5     9      180.000000        8.381669         2    ;  uncertainty k = 0.871019
         2         3         4         5     9        0.000000       -1.048824         3    ;  uncertainty k = 0.250764
         2         3         4         5     9      180.000000       -0.118565         4    ;  uncertainty k = 0.437011
         2         3         4         7     9        0.000000       -1.471372         1    ;  uncertainty k = 1.872667
         2         3         4         7     9      180.000000        2.143663         2    ;  uncertainty k = 0.485052
         2         3         4         7     9        0.000000        0.496193         3    ;  uncertainty k = 0.321138
         2         3         4         7     9      180.000000        0.130405         4    ;  uncertainty k = 0.135673
         2         3         4         8     9        0.000000       -1.471372         1    ;  uncertainty k = 1.872668
         2         3         4         8     9      180.000000        2.143663         2    ;  uncertainty k = 0.485051
         2         3         4         8     9        0.000000        0.496194         3    ;  uncertainty k = 0.321138
         2         3         4         8     9      180.000000        0.130405         4    ;  uncertainty k = 0.135674
         3         2         1         5     9        0.000000       -1.513590         1    ;  uncertainty k = 2.714890
         3         2         1         5     9      180.000000       19.696507         2    ;  uncertainty k = 0.498754
         3         2         1         5     9        0.000000       -1.626865         3    ;  uncertainty k = 0.748969
         3         2         1         5     9      180.000000       -1.433471         4    ;  uncertainty k = 0.504519
         3         2         6        11     9        0.000000        1.959706         1    ;  uncertainty k = 0.622935
         3         2         6        11     9      180.000000        3.468621         2    ;  uncertainty k = 0.389945
         3         2         6        11     9        0.000000        0.067203         3    ;  uncertainty k = 0.099077
         3         2         6        11     9      180.000000        0.110370         4    ;  uncertainty k = 0.052080
         3         2         6        12     9        0.000000        1.959706         1    ;  uncertainty k = 0.622935
         3         2         6        12     9      180.000000        3.468621         2    ;  uncertainty k = 0.389945
         3         2         6        12     9        0.000000        0.067203         3    ;  uncertainty k = 0.099077
         3         2         6        12     9      180.000000        0.110370         4    ;  uncertainty k = 0.052080
         3         2         6        13     9        0.000000        1.959706         1    ;  uncertainty k = 0.622936
         3         2         6        13     9      180.000000        3.468621         2    ;  uncertainty k = 0.389944
         3         2         6        13     9        0.000000        0.067203         3    ;  uncertainty k = 0.099077
         3         2         6        13     9      180.000000        0.110370         4    ;  uncertainty k = 0.052080
         3         4         5         9     9        0.000000       -0.388523         1    ;  uncertainty k = 0.242291
         3         4         5         9     9      180.000000        0.029514         2    ;  uncertainty k = 0.429271
         3         4         5         9     9        0.000000        0.982362         3    ;  uncertainty k = 0.237771
         3         4         5         9     9      180.000000        0.006014         4    ;  uncertainty k = 0.062697
         3         4         5        10     9        0.000000       -0.388523         1    ;  uncertainty k = 0.242290
         3         4         5        10     9      180.000000        0.029514         2    ;  uncertainty k = 0.429271
         3         4         5        10     9        0.000000        0.982362         3    ;  uncertainty k = 0.237770
         3         4         5        10     9      180.000000        0.006014         4    ;  uncertainty k = 0.062698
         4         3         2         6     9        0.000000       -0.337839         1    ;  uncertainty k = 1.400167
         4         3         2         6     9      180.000000       25.347231         2    ;  uncertainty k = 0.403340
         4         3         2         6     9        0.000000        2.411661         3    ;  uncertainty k = 0.517502
         4         3         2         6     9      180.000000        0.927538         4    ;  uncertainty k = 0.646138
         5         1         2         6     9        0.000000        1.439871         1    ;  uncertainty k = 2.443024
         5         1         2         6     9      180.000000        7.693315         2    ;  uncertainty k = 1.196512
         5         1         2         6     9        0.000000        1.419829         3    ;  uncertainty k = 0.219064
         5         1         2         6     9      180.000000        0.107488         4    ;  uncertainty k = 0.352703
         7         4         5         9     9        0.000000       -0.054263         1    ;  uncertainty k = 0.298722
         7         4         5         9     9      180.000000       -0.135460         2    ;  uncertainty k = 0.310314
         7         4         5         9     9        0.000000        0.228472         3    ;  uncertainty k = 0.181774
         7         4         5         9     9      180.000000       -0.013075         4    ;  uncertainty k = 0.060582
         7         4         5        10     9        0.000000       -0.054262         1    ;  uncertainty k = 0.298720
         7         4         5        10     9      180.000000       -0.135459         2    ;  uncertainty k = 0.310314
         7         4         5        10     9        0.000000        0.228472         3    ;  uncertainty k = 0.181773
         7         4         5        10     9      180.000000       -0.013075         4    ;  uncertainty k = 0.060582
         8         4         5         9     9        0.000000       -0.054263         1    ;  uncertainty k = 0.298722
         8         4         5         9     9      180.000000       -0.135459         2    ;  uncertainty k = 0.310314
         8         4         5         9     9        0.000000        0.228472         3    ;  uncertainty k = 0.181774
         8         4         5         9     9      180.000000       -0.013075         4    ;  uncertainty k = 0.060582
         8         4         5        10     9        0.000000       -0.054263         1    ;  uncertainty k = 0.298721
         8         4         5        10     9      180.000000       -0.135458         2    ;  uncertainty k = 0.310315
         8         4         5        10     9        0.000000        0.228472         3    ;  uncertainty k = 0.181774
         8         4         5        10     9      180.000000       -0.013075         4    ;  uncertainty k = 0.060582

[ dihedrals ] ; impropers
;       ai        aj        ak        al funct           phase               k        pn
         2         1         3         6     4      180.000000       22.389107         2    ;  uncertainty k = 0.099774
         2         3         6         1     4      180.000000       22.389107         2    ;  uncertainty k = 0.099774
         2         6         1         3     4      180.000000       22.389107         2    ;  uncertainty k = 0.099774

[ pairs ]
;       ai        aj funct
         1         7     1
         1         8     1
         1        11     1
         1        12     1
         1        13     1
         2         7     1
         2         8     1
         2         9     1
         2        10     1
         3         9     1
         3        10     1
         3        11     1
         3        12     1
         3        13     1
         4         6     1
         5         6     1
         7         9     1
         7        10     1
         8         9     1
         8        10     1
