; ITP file created by ByteFF-joint-25, 2025-07-14 11:27:41.935201

[ atomtypes ]
;name           bonded.type        at.num        mass        charge   ptype           sigma         epsilon
 s0bf                                  16      0.0000       0.00000       A     3.53305e-01     1.18096e+00    ;  uncertainty sigma = 0.000008, epsilon = 0.003181
 c1bf                                   6      0.0000       0.00000       A     3.31564e-01     4.13597e-01    ;  uncertainty sigma = 0.000023, epsilon = 0.002504
 n2bf                                   7      0.0000       0.00000       A     3.38384e-01     3.93536e-01    ;  uncertainty sigma = 0.000029, epsilon = 0.001350
 c3bf                                   6      0.0000       0.00000       A     3.39754e-01     4.51049e-01    ;  uncertainty sigma = 0.000009, epsilon = 0.001145
 c4bf                                   6      0.0000       0.00000       A     3.39763e-01     4.51325e-01    ;  uncertainty sigma = 0.000013, epsilon = 0.001711
 c5bf                                   6      0.0000       0.00000       A     3.39783e-01     4.50814e-01    ;  uncertainty sigma = 0.000014, epsilon = 0.001171
 c6bf                                   6      0.0000       0.00000       A     3.39773e-01     4.50639e-01    ;  uncertainty sigma = 0.000012, epsilon = 0.000756
 c7bf                                   6      0.0000       0.00000       A     3.39781e-01     4.51010e-01    ;  uncertainty sigma = 0.000005, epsilon = 0.000369
 h8bf                                   1      0.0000       0.00000       A     2.42189e-01     8.65553e-02    ;  uncertainty sigma = 0.000031, epsilon = 0.001047
 h9bf                                   1      0.0000       0.00000       A     2.42189e-01     8.65553e-02    ;  uncertainty sigma = 0.000031, epsilon = 0.001047
 h10bf                                  1      0.0000       0.00000       A     2.42185e-01     8.66499e-02    ;  uncertainty sigma = 0.000026, epsilon = 0.000772
 h11bf                                  1      0.0000       0.00000       A     2.42185e-01     8.66499e-02    ;  uncertainty sigma = 0.000026, epsilon = 0.000772
 h12bf                                  1      0.0000       0.00000       A     2.60063e-01     8.70318e-02    ;  uncertainty sigma = 0.000007, epsilon = 0.001046
 h13bf                                  1      0.0000       0.00000       A     2.60032e-01     8.66454e-02    ;  uncertainty sigma = 0.000012, epsilon = 0.000445
 h14bf                                  1      0.0000       0.00000       A     2.60032e-01     8.66454e-02    ;  uncertainty sigma = 0.000012, epsilon = 0.000445
 h15bf                                  1      0.0000       0.00000       A     2.60016e-01     8.66306e-02    ;  uncertainty sigma = 0.000014, epsilon = 0.000719
 h16bf                                  1      0.0000       0.00000       A     2.60016e-01     8.66305e-02    ;  uncertainty sigma = 0.000014, epsilon = 0.000718
 h17bf                                  1      0.0000       0.00000       A     2.60016e-01     8.66305e-02    ;  uncertainty sigma = 0.000014, epsilon = 0.000718
 h18bf                                  1      0.0000       0.00000       A     2.60063e-01     8.70318e-02    ;  uncertainty sigma = 0.000007, epsilon = 0.001046

[ moleculetype ]
;name             nrexcl
 MOL                   3

[ atoms ]
;       nr            type      resi   res      atom      cgnr      charge          mass ; qtot
         1            s0bf         1   UNL        s0         1    -0.35413       32.0670 ; qtot   -0.354
         2            c1bf         1   UNL        c1         2     0.48774       12.0110 ; qtot    0.134
         3            n2bf         1   UNL        n2         3    -0.57860       14.0070 ; qtot   -0.445
         4            c3bf         1   UNL        c3         4     0.09328       12.0110 ; qtot   -0.352
         5            c4bf         1   UNL        c4         5    -0.01028       12.0110 ; qtot   -0.362
         6            c5bf         1   UNL        c5         6    -0.11463       12.0110 ; qtot   -0.477
         7            c6bf         1   UNL        c6         7    -0.07159       12.0110 ; qtot   -0.548
         8            c7bf         1   UNL        c7         8    -0.09450       12.0110 ; qtot   -0.643
         9            h8bf         1   UNL        h8         9     0.07360        1.0080 ; qtot   -0.569
        10            h9bf         1   UNL        h9        10     0.07360        1.0080 ; qtot   -0.496
        11           h10bf         1   UNL       h10        11     0.08006        1.0080 ; qtot   -0.415
        12           h11bf         1   UNL       h11        12     0.08006        1.0080 ; qtot   -0.335
        13           h12bf         1   UNL       h12        13     0.06705        1.0080 ; qtot   -0.268
        14           h13bf         1   UNL       h13        14     0.04716        1.0080 ; qtot   -0.221
        15           h14bf         1   UNL       h14        15     0.04716        1.0080 ; qtot   -0.174
        16           h15bf         1   UNL       h15        16     0.03565        1.0080 ; qtot   -0.138
        17           h16bf         1   UNL       h16        17     0.03565        1.0080 ; qtot   -0.103
        18           h17bf         1   UNL       h17        18     0.03565        1.0080 ; qtot   -0.067
        19           h18bf         1   UNL       h18        19     0.06707        1.0080 ; qtot    0.000

[ bonds ]
;       ai        aj funct               r               k
         1         2     1        0.180323   164278.283789    ;  uncertainty r = 0.000330, k = 24.341108
         1         5     1        0.183557   151060.735645    ;  uncertainty r = 0.000082, k = 6.733273
         2         3     1        0.127269   461089.313184    ;  uncertainty r = 0.000079, k = 14.424277
         2         6     1        0.150158   240165.609326    ;  uncertainty r = 0.000130, k = 4.324452
         3         4     1        0.146245   223680.204980    ;  uncertainty r = 0.000117, k = 12.112260
         4         5     1        0.154918   236789.731152    ;  uncertainty r = 0.000066, k = 10.915041
         4         9     1        0.109661   305303.982471    ;  uncertainty r = 0.000053, k = 2.928352
         4        10     1        0.109661   305303.982471    ;  uncertainty r = 0.000053, k = 2.928352
         5        11     1        0.109370   308378.190771    ;  uncertainty r = 0.000040, k = 2.214666
         5        12     1        0.109370   308378.190771    ;  uncertainty r = 0.000040, k = 2.214666
         6         7     1        0.153630   211600.999023    ;  uncertainty r = 0.000110, k = 1.919250
         6        13     1        0.109672   310209.559033    ;  uncertainty r = 0.000024, k = 1.991979
         6        19     1        0.109672   310209.559033    ;  uncertainty r = 0.000024, k = 1.991979
         7         8     1        0.153563   222374.747949    ;  uncertainty r = 0.000033, k = 2.718648
         7        14     1        0.109610   306200.513770    ;  uncertainty r = 0.000017, k = 2.262440
         7        15     1        0.109610   306200.513770    ;  uncertainty r = 0.000017, k = 2.262440
         8        16     1        0.109654   309752.929980    ;  uncertainty r = 0.000014, k = 1.511672
         8        17     1        0.109654   309752.955518    ;  uncertainty r = 0.000014, k = 1.511679
         8        18     1        0.109654   309752.929980    ;  uncertainty r = 0.000014, k = 1.511672

[ angles ]
;       ai        aj        ak funct           theta             cth
         1         2         3     1      121.142563      663.256317    ;  uncertainty theta = 0.006135, k = 0.235208
         1         2         6     1      118.253441      360.633622    ;  uncertainty theta = 0.004577, k = 0.215498
         1         5         4     1      105.190552      749.924797    ;  uncertainty theta = 0.003648, k = 0.204548
         1         5        11     1      107.484756      397.322628    ;  uncertainty theta = 0.003624, k = 0.131906
         1         5        12     1      107.484756      397.322628    ;  uncertainty theta = 0.003624, k = 0.131906
         2         1         5     1       91.081650      854.295665    ;  uncertainty theta = 0.003609, k = 0.110078
         2         3         4     1      111.812363      618.675738    ;  uncertainty theta = 0.006170, k = 0.253142
         2         6         7     1      109.963730      517.824649    ;  uncertainty theta = 0.004400, k = 0.132141
         2         6        13     1      106.450119      386.689294    ;  uncertainty theta = 0.002671, k = 0.046081
         2         6        19     1      106.450119      386.689294    ;  uncertainty theta = 0.002671, k = 0.046081
         3         2         6     1      124.680885      443.444914    ;  uncertainty theta = 0.001827, k = 0.156821
         3         4         5     1      110.172318      769.964597    ;  uncertainty theta = 0.002942, k = 0.131110
         3         4         9     1      107.268173      443.826981    ;  uncertainty theta = 0.002442, k = 0.060485
         3         4        10     1      107.268173      443.826981    ;  uncertainty theta = 0.002442, k = 0.060485
         4         5        11     1      110.760452      392.443220    ;  uncertainty theta = 0.002400, k = 0.085989
         4         5        12     1      110.760452      392.443220    ;  uncertainty theta = 0.002400, k = 0.085989
         5         4         9     1      109.248192      399.984360    ;  uncertainty theta = 0.003230, k = 0.171945
         5         4        10     1      109.248192      399.984360    ;  uncertainty theta = 0.003230, k = 0.171945
         6         7         8     1      110.424217      581.156298    ;  uncertainty theta = 0.000500, k = 0.032359
         6         7        14     1      106.582054      394.434700    ;  uncertainty theta = 0.001622, k = 0.016142
         6         7        15     1      106.582054      394.434700    ;  uncertainty theta = 0.001622, k = 0.016142
         7         6        13     1      108.324303      394.651574    ;  uncertainty theta = 0.002224, k = 0.052058
         7         6        19     1      108.324303      394.651574    ;  uncertainty theta = 0.002224, k = 0.052058
         7         8        16     1      108.349892      408.721244    ;  uncertainty theta = 0.001541, k = 0.020170
         7         8        17     1      108.349892      408.721244    ;  uncertainty theta = 0.001541, k = 0.020170
         7         8        18     1      108.349892      408.721244    ;  uncertainty theta = 0.001541, k = 0.020170
         8         7        14     1      108.134850      414.163489    ;  uncertainty theta = 0.001483, k = 0.014708
         8         7        15     1      108.134850      414.163489    ;  uncertainty theta = 0.001483, k = 0.014708
         9         4        10     1      105.730789      308.452529    ;  uncertainty theta = 0.001845, k = 0.122547
        11         5        12     1      106.657936      309.034775    ;  uncertainty theta = 0.001717, k = 0.046699
        13         6        19     1      105.214943      315.963312    ;  uncertainty theta = 0.002923, k = 0.051781
        14         7        15     1      104.276901      316.767987    ;  uncertainty theta = 0.001828, k = 0.028151
        16         8        17     1      104.977379      316.555805    ;  uncertainty theta = 0.001988, k = 0.021268
        16         8        18     1      104.977379      316.555805    ;  uncertainty theta = 0.001988, k = 0.021268
        17         8        18     1      104.977379      316.555805    ;  uncertainty theta = 0.001988, k = 0.021268

[ dihedrals ] ; propers for gromacs 4.5 or higher, use funct 9
;       ai        aj        ak        al funct           phase               k        pn
         1         2         3         4     9        0.000000        0.373516         1    ;  uncertainty k = 1.530272
         1         2         3         4     9      180.000000       29.454757         2    ;  uncertainty k = 0.202058
         1         2         3         4     9        0.000000        0.200827         3    ;  uncertainty k = 0.948831
         1         2         3         4     9      180.000000        0.941908         4    ;  uncertainty k = 0.334349
         1         2         6         7     9        0.000000       -1.921627         1    ;  uncertainty k = 1.102198
         1         2         6         7     9      180.000000        1.915463         2    ;  uncertainty k = 0.416308
         1         2         6         7     9        0.000000        0.466999         3    ;  uncertainty k = 0.137790
         1         2         6         7     9      180.000000        0.169872         4    ;  uncertainty k = 0.082082
         1         2         6        13     9        0.000000        0.065011         1    ;  uncertainty k = 0.627083
         1         2         6        13     9      180.000000        1.887466         2    ;  uncertainty k = 0.365254
         1         2         6        13     9        0.000000        0.741931         3    ;  uncertainty k = 0.140018
         1         2         6        13     9      180.000000        0.175837         4    ;  uncertainty k = 0.057946
         1         2         6        19     9        0.000000        0.065011         1    ;  uncertainty k = 0.627083
         1         2         6        19     9      180.000000        1.887466         2    ;  uncertainty k = 0.365254
         1         2         6        19     9        0.000000        0.741931         3    ;  uncertainty k = 0.140018
         1         2         6        19     9      180.000000        0.175837         4    ;  uncertainty k = 0.057946
         1         5         4         3     9        0.000000        1.627836         1    ;  uncertainty k = 0.831302
         1         5         4         3     9      180.000000       -2.726477         2    ;  uncertainty k = 0.575079
         1         5         4         3     9        0.000000        1.650682         3    ;  uncertainty k = 0.520786
         1         5         4         3     9      180.000000       -1.409598         4    ;  uncertainty k = 0.400843
         1         5         4         9     9        0.000000        0.585707         1    ;  uncertainty k = 0.305309
         1         5         4         9     9      180.000000       -1.595065         2    ;  uncertainty k = 0.645125
         1         5         4         9     9        0.000000        0.790433         3    ;  uncertainty k = 0.230243
         1         5         4         9     9      180.000000       -0.009257         4    ;  uncertainty k = 0.133185
         1         5         4        10     9        0.000000        0.585707         1    ;  uncertainty k = 0.305309
         1         5         4        10     9      180.000000       -1.595065         2    ;  uncertainty k = 0.645125
         1         5         4        10     9        0.000000        0.790433         3    ;  uncertainty k = 0.230243
         1         5         4        10     9      180.000000       -0.009257         4    ;  uncertainty k = 0.133185
         2         1         5         4     9        0.000000        1.642700         1    ;  uncertainty k = 1.992011
         2         1         5         4     9      180.000000        5.108797         2    ;  uncertainty k = 1.217088
         2         1         5         4     9        0.000000        0.057901         3    ;  uncertainty k = 0.737490
         2         1         5         4     9      180.000000       -1.725199         4    ;  uncertainty k = 0.732665
         2         1         5        11     9        0.000000        0.761485         1    ;  uncertainty k = 0.654512
         2         1         5        11     9      180.000000       -1.338307         2    ;  uncertainty k = 0.321369
         2         1         5        11     9        0.000000        0.595964         3    ;  uncertainty k = 0.211869
         2         1         5        11     9      180.000000        0.205715         4    ;  uncertainty k = 0.093956
         2         1         5        12     9        0.000000        0.761485         1    ;  uncertainty k = 0.654512
         2         1         5        12     9      180.000000       -1.338307         2    ;  uncertainty k = 0.321369
         2         1         5        12     9        0.000000        0.595964         3    ;  uncertainty k = 0.211869
         2         1         5        12     9      180.000000        0.205715         4    ;  uncertainty k = 0.093956
         2         3         4         5     9        0.000000       -1.550215         1    ;  uncertainty k = 2.965601
         2         3         4         5     9      180.000000        8.726530         2    ;  uncertainty k = 0.810281
         2         3         4         5     9        0.000000       -1.084498         3    ;  uncertainty k = 0.295405
         2         3         4         5     9      180.000000       -0.110885         4    ;  uncertainty k = 0.421301
         2         3         4         9     9        0.000000       -1.637051         1    ;  uncertainty k = 2.100559
         2         3         4         9     9      180.000000        2.148283         2    ;  uncertainty k = 0.558731
         2         3         4         9     9        0.000000        0.552287         3    ;  uncertainty k = 0.257816
         2         3         4         9     9      180.000000        0.118212         4    ;  uncertainty k = 0.127311
         2         3         4        10     9        0.000000       -1.637051         1    ;  uncertainty k = 2.100559
         2         3         4        10     9      180.000000        2.148283         2    ;  uncertainty k = 0.558731
         2         3         4        10     9        0.000000        0.552287         3    ;  uncertainty k = 0.257816
         2         3         4        10     9      180.000000        0.118212         4    ;  uncertainty k = 0.127311
         2         6         7         8     9        0.000000       -3.388134         1    ;  uncertainty k = 1.062735
         2         6         7         8     9      180.000000       -0.266668         2    ;  uncertainty k = 0.149431
         2         6         7         8     9        0.000000        1.396017         3    ;  uncertainty k = 0.085132
         2         6         7         8     9      180.000000       -0.093584         4    ;  uncertainty k = 0.107771
         2         6         7        14     9        0.000000        0.861700         1    ;  uncertainty k = 0.329748
         2         6         7        14     9      180.000000       -0.738563         2    ;  uncertainty k = 0.163294
         2         6         7        14     9        0.000000        1.008538         3    ;  uncertainty k = 0.082608
         2         6         7        14     9      180.000000        0.033448         4    ;  uncertainty k = 0.066031
         2         6         7        15     9        0.000000        0.861700         1    ;  uncertainty k = 0.329748
         2         6         7        15     9      180.000000       -0.738563         2    ;  uncertainty k = 0.163294
         2         6         7        15     9        0.000000        1.008538         3    ;  uncertainty k = 0.082608
         2         6         7        15     9      180.000000        0.033448         4    ;  uncertainty k = 0.066031
         3         2         1         5     9        0.000000       -1.451056         1    ;  uncertainty k = 2.910019
         3         2         1         5     9      180.000000       19.974840         2    ;  uncertainty k = 0.495990
         3         2         1         5     9        0.000000       -1.705643         3    ;  uncertainty k = 0.676406
         3         2         1         5     9      180.000000       -1.386705         4    ;  uncertainty k = 0.471286
         3         2         6         7     9        0.000000        0.025485         1    ;  uncertainty k = 0.756017
         3         2         6         7     9      180.000000        3.685457         2    ;  uncertainty k = 0.386482
         3         2         6         7     9        0.000000       -0.135111         3    ;  uncertainty k = 0.205268
         3         2         6         7     9      180.000000        0.219000         4    ;  uncertainty k = 0.093035
         3         2         6        13     9        0.000000        2.310329         1    ;  uncertainty k = 0.655777
         3         2         6        13     9      180.000000        3.593190         2    ;  uncertainty k = 0.482905
         3         2         6        13     9        0.000000        0.140973         3    ;  uncertainty k = 0.161021
         3         2         6        13     9      180.000000        0.207139         4    ;  uncertainty k = 0.051330
         3         2         6        19     9        0.000000        2.310329         1    ;  uncertainty k = 0.655777
         3         2         6        19     9      180.000000        3.593190         2    ;  uncertainty k = 0.482905
         3         2         6        19     9        0.000000        0.140973         3    ;  uncertainty k = 0.161021
         3         2         6        19     9      180.000000        0.207139         4    ;  uncertainty k = 0.051330
         3         4         5        11     9        0.000000       -0.388479         1    ;  uncertainty k = 0.228990
         3         4         5        11     9      180.000000        0.014376         2    ;  uncertainty k = 0.477435
         3         4         5        11     9        0.000000        0.956945         3    ;  uncertainty k = 0.223840
         3         4         5        11     9      180.000000        0.020732         4    ;  uncertainty k = 0.053608
         3         4         5        12     9        0.000000       -0.388479         1    ;  uncertainty k = 0.228990
         3         4         5        12     9      180.000000        0.014376         2    ;  uncertainty k = 0.477435
         3         4         5        12     9        0.000000        0.956945         3    ;  uncertainty k = 0.223840
         3         4         5        12     9      180.000000        0.020732         4    ;  uncertainty k = 0.053608
         4         3         2         6     9        0.000000       -0.042314         1    ;  uncertainty k = 0.754692
         4         3         2         6     9      180.000000       25.744798         2    ;  uncertainty k = 0.570761
         4         3         2         6     9        0.000000        2.386970         3    ;  uncertainty k = 0.714615
         4         3         2         6     9      180.000000        0.905016         4    ;  uncertainty k = 0.820162
         5         1         2         6     9        0.000000        1.401761         1    ;  uncertainty k = 2.430891
         5         1         2         6     9      180.000000        7.537567         2    ;  uncertainty k = 1.223070
         5         1         2         6     9        0.000000        1.286040         3    ;  uncertainty k = 0.512974
         5         1         2         6     9      180.000000       -0.014058         4    ;  uncertainty k = 0.453026
         6         7         8        16     9        0.000000       -1.973376         1    ;  uncertainty k = 0.334398
         6         7         8        16     9      180.000000       -1.098845         2    ;  uncertainty k = 0.203614
         6         7         8        16     9        0.000000        1.399897         3    ;  uncertainty k = 0.045348
         6         7         8        16     9      180.000000       -0.308432         4    ;  uncertainty k = 0.046409
         6         7         8        17     9        0.000000       -1.973376         1    ;  uncertainty k = 0.334398
         6         7         8        17     9      180.000000       -1.098845         2    ;  uncertainty k = 0.203614
         6         7         8        17     9        0.000000        1.399897         3    ;  uncertainty k = 0.045348
         6         7         8        17     9      180.000000       -0.308432         4    ;  uncertainty k = 0.046409
         6         7         8        18     9        0.000000       -1.973376         1    ;  uncertainty k = 0.334398
         6         7         8        18     9      180.000000       -1.098845         2    ;  uncertainty k = 0.203614
         6         7         8        18     9        0.000000        1.399897         3    ;  uncertainty k = 0.045348
         6         7         8        18     9      180.000000       -0.308432         4    ;  uncertainty k = 0.046409
         8         7         6        13     9        0.000000       -2.267538         1    ;  uncertainty k = 0.521573
         8         7         6        13     9      180.000000        0.201065         2    ;  uncertainty k = 0.148228
         8         7         6        13     9        0.000000        1.083352         3    ;  uncertainty k = 0.106282
         8         7         6        13     9      180.000000       -0.268097         4    ;  uncertainty k = 0.054868
         8         7         6        19     9        0.000000       -2.267538         1    ;  uncertainty k = 0.521573
         8         7         6        19     9      180.000000        0.201065         2    ;  uncertainty k = 0.148228
         8         7         6        19     9        0.000000        1.083352         3    ;  uncertainty k = 0.106282
         8         7         6        19     9      180.000000       -0.268097         4    ;  uncertainty k = 0.054868
         9         4         5        11     9        0.000000       -0.061506         1    ;  uncertainty k = 0.302134
         9         4         5        11     9      180.000000       -0.127144         2    ;  uncertainty k = 0.300727
         9         4         5        11     9        0.000000        0.232029         3    ;  uncertainty k = 0.176728
         9         4         5        11     9      180.000000       -0.010401         4    ;  uncertainty k = 0.065290
         9         4         5        12     9        0.000000       -0.061506         1    ;  uncertainty k = 0.302134
         9         4         5        12     9      180.000000       -0.127144         2    ;  uncertainty k = 0.300727
         9         4         5        12     9        0.000000        0.232029         3    ;  uncertainty k = 0.176728
         9         4         5        12     9      180.000000       -0.010401         4    ;  uncertainty k = 0.065290
        10         4         5        11     9        0.000000       -0.061506         1    ;  uncertainty k = 0.302134
        10         4         5        11     9      180.000000       -0.127144         2    ;  uncertainty k = 0.300727
        10         4         5        11     9        0.000000        0.232029         3    ;  uncertainty k = 0.176728
        10         4         5        11     9      180.000000       -0.010401         4    ;  uncertainty k = 0.065290
        10         4         5        12     9        0.000000       -0.061506         1    ;  uncertainty k = 0.302134
        10         4         5        12     9      180.000000       -0.127144         2    ;  uncertainty k = 0.300727
        10         4         5        12     9        0.000000        0.232029         3    ;  uncertainty k = 0.176728
        10         4         5        12     9      180.000000       -0.010401         4    ;  uncertainty k = 0.065290
        13         6         7        14     9        0.000000        0.816539         1    ;  uncertainty k = 0.196473
        13         6         7        14     9      180.000000       -0.533302         2    ;  uncertainty k = 0.187680
        13         6         7        14     9        0.000000        0.200824         3    ;  uncertainty k = 0.043098
        13         6         7        14     9      180.000000        0.012527         4    ;  uncertainty k = 0.052273
        13         6         7        15     9        0.000000        0.816539         1    ;  uncertainty k = 0.196473
        13         6         7        15     9      180.000000       -0.533302         2    ;  uncertainty k = 0.187680
        13         6         7        15     9        0.000000        0.200824         3    ;  uncertainty k = 0.043098
        13         6         7        15     9      180.000000        0.012527         4    ;  uncertainty k = 0.052273
        14         7         6        19     9        0.000000        0.816539         1    ;  uncertainty k = 0.196473
        14         7         6        19     9      180.000000       -0.533302         2    ;  uncertainty k = 0.187680
        14         7         6        19     9        0.000000        0.200824         3    ;  uncertainty k = 0.043098
        14         7         6        19     9      180.000000        0.012527         4    ;  uncertainty k = 0.052273
        14         7         8        16     9        0.000000        0.816824         1    ;  uncertainty k = 0.333426
        14         7         8        16     9      180.000000       -0.715063         2    ;  uncertainty k = 0.182864
        14         7         8        16     9        0.000000        0.579781         3    ;  uncertainty k = 0.016605
        14         7         8        16     9      180.000000       -0.025750         4    ;  uncertainty k = 0.040820
        14         7         8        17     9        0.000000        0.816824         1    ;  uncertainty k = 0.333426
        14         7         8        17     9      180.000000       -0.715063         2    ;  uncertainty k = 0.182864
        14         7         8        17     9        0.000000        0.579781         3    ;  uncertainty k = 0.016605
        14         7         8        17     9      180.000000       -0.025750         4    ;  uncertainty k = 0.040820
        14         7         8        18     9        0.000000        0.816824         1    ;  uncertainty k = 0.333426
        14         7         8        18     9      180.000000       -0.715063         2    ;  uncertainty k = 0.182864
        14         7         8        18     9        0.000000        0.579781         3    ;  uncertainty k = 0.016605
        14         7         8        18     9      180.000000       -0.025750         4    ;  uncertainty k = 0.040820
        15         7         6        19     9        0.000000        0.816539         1    ;  uncertainty k = 0.196473
        15         7         6        19     9      180.000000       -0.533302         2    ;  uncertainty k = 0.187680
        15         7         6        19     9        0.000000        0.200824         3    ;  uncertainty k = 0.043098
        15         7         6        19     9      180.000000        0.012527         4    ;  uncertainty k = 0.052273
        15         7         8        16     9        0.000000        0.816824         1    ;  uncertainty k = 0.333426
        15         7         8        16     9      180.000000       -0.715063         2    ;  uncertainty k = 0.182864
        15         7         8        16     9        0.000000        0.579781         3    ;  uncertainty k = 0.016605
        15         7         8        16     9      180.000000       -0.025750         4    ;  uncertainty k = 0.040820
        15         7         8        17     9        0.000000        0.816824         1    ;  uncertainty k = 0.333426
        15         7         8        17     9      180.000000       -0.715063         2    ;  uncertainty k = 0.182864
        15         7         8        17     9        0.000000        0.579781         3    ;  uncertainty k = 0.016605
        15         7         8        17     9      180.000000       -0.025750         4    ;  uncertainty k = 0.040820
        15         7         8        18     9        0.000000        0.816824         1    ;  uncertainty k = 0.333426
        15         7         8        18     9      180.000000       -0.715063         2    ;  uncertainty k = 0.182864
        15         7         8        18     9        0.000000        0.579781         3    ;  uncertainty k = 0.016605
        15         7         8        18     9      180.000000       -0.025750         4    ;  uncertainty k = 0.040820

[ dihedrals ] ; impropers
;       ai        aj        ak        al funct           phase               k        pn
         2         1         3         6     4      180.000000       20.672173         2    ;  uncertainty k = 0.102587
         2         3         6         1     4      180.000000       20.672173         2    ;  uncertainty k = 0.102587
         2         6         1         3     4      180.000000       20.672173         2    ;  uncertainty k = 0.102587

[ pairs ]
;       ai        aj funct
         1         7     1
         1         9     1
         1        10     1
         1        13     1
         1        19     1
         2         8     1
         2         9     1
         2        10     1
         2        11     1
         2        12     1
         2        14     1
         2        15     1
         3         7     1
         3        11     1
         3        12     1
         3        13     1
         3        19     1
         4         6     1
         5         6     1
         6        16     1
         6        17     1
         6        18     1
         8        13     1
         8        19     1
         9        11     1
         9        12     1
        10        11     1
        10        12     1
        13        14     1
        13        15     1
        14        16     1
        14        17     1
        14        18     1
        14        19     1
        15        16     1
        15        17     1
        15        18     1
        15        19     1
