; ITP file created by ByteFF-joint-25, 2025-07-14 11:27:41.500614

[ atomtypes ]
;name           bonded.type        at.num        mass        charge   ptype           sigma         epsilon
 s0bf                                  16      0.0000       0.00000       A     3.53291e-01     1.18088e+00    ;  uncertainty sigma = 0.000012, epsilon = 0.003684
 c1bf                                   6      0.0000       0.00000       A     3.31582e-01     4.13482e-01    ;  uncertainty sigma = 0.000020, epsilon = 0.002532
 n2bf                                   7      0.0000       0.00000       A     3.38393e-01     3.93435e-01    ;  uncertainty sigma = 0.000025, epsilon = 0.001544
 c3bf                                   6      0.0000       0.00000       A     3.39753e-01     4.51064e-01    ;  uncertainty sigma = 0.000010, epsilon = 0.001140
 c4bf                                   6      0.0000       0.00000       A     3.39764e-01     4.51330e-01    ;  uncertainty sigma = 0.000013, epsilon = 0.001731
 c5bf                                   6      0.0000       0.00000       A     3.39778e-01     4.51093e-01    ;  uncertainty sigma = 0.000009, epsilon = 0.000859
 c6bf                                   6      0.0000       0.00000       A     3.39765e-01     4.50545e-01    ;  uncertainty sigma = 0.000012, epsilon = 0.000812
 c7bf                                   6      0.0000       0.00000       A     3.39778e-01     4.50964e-01    ;  uncertainty sigma = 0.000005, epsilon = 0.000346
 c8bf                                   6      0.0000       0.00000       A     3.39770e-01     4.50733e-01    ;  uncertainty sigma = 0.000010, epsilon = 0.000489
 h9bf                                   1      0.0000       0.00000       A     2.42189e-01     8.65553e-02    ;  uncertainty sigma = 0.000031, epsilon = 0.001047
 h10bf                                  1      0.0000       0.00000       A     2.42189e-01     8.65553e-02    ;  uncertainty sigma = 0.000031, epsilon = 0.001047
 h11bf                                  1      0.0000       0.00000       A     2.42185e-01     8.66499e-02    ;  uncertainty sigma = 0.000026, epsilon = 0.000772
 h12bf                                  1      0.0000       0.00000       A     2.42185e-01     8.66499e-02    ;  uncertainty sigma = 0.000026, epsilon = 0.000772
 h13bf                                  1      0.0000       0.00000       A     2.60033e-01     8.69566e-02    ;  uncertainty sigma = 0.000045, epsilon = 0.001152
 h14bf                                  1      0.0000       0.00000       A     2.60008e-01     8.68352e-02    ;  uncertainty sigma = 0.000015, epsilon = 0.000239
 h15bf                                  1      0.0000       0.00000       A     2.60008e-01     8.68352e-02    ;  uncertainty sigma = 0.000015, epsilon = 0.000239
 h16bf                                  1      0.0000       0.00000       A     2.60018e-01     8.66242e-02    ;  uncertainty sigma = 0.000012, epsilon = 0.000706
 h17bf                                  1      0.0000       0.00000       A     2.60018e-01     8.66242e-02    ;  uncertainty sigma = 0.000012, epsilon = 0.000706
 h18bf                                  1      0.0000       0.00000       A     2.60018e-01     8.66242e-02    ;  uncertainty sigma = 0.000012, epsilon = 0.000706
 h19bf                                  1      0.0000       0.00000       A     2.60034e-01     8.66329e-02    ;  uncertainty sigma = 0.000012, epsilon = 0.000523
 h20bf                                  1      0.0000       0.00000       A     2.60034e-01     8.66329e-02    ;  uncertainty sigma = 0.000012, epsilon = 0.000523
 h21bf                                  1      0.0000       0.00000       A     2.60034e-01     8.66328e-02    ;  uncertainty sigma = 0.000012, epsilon = 0.000523

[ moleculetype ]
;name             nrexcl
 MOL                   3

[ atoms ]
;       nr            type      resi   res      atom      cgnr      charge          mass ; qtot
         1            s0bf         1   UNL        s0         1    -0.35138       32.0670 ; qtot   -0.351
         2            c1bf         1   UNL        c1         2     0.49171       12.0110 ; qtot    0.140
         3            n2bf         1   UNL        n2         3    -0.58166       14.0070 ; qtot   -0.441
         4            c3bf         1   UNL        c3         4     0.09375       12.0110 ; qtot   -0.348
         5            c4bf         1   UNL        c4         5    -0.01179       12.0110 ; qtot   -0.359
         6            c5bf         1   UNL        c5         6    -0.09651       12.0110 ; qtot   -0.456
         7            c6bf         1   UNL        c6         7    -0.07026       12.0110 ; qtot   -0.526
         8            c7bf         1   UNL        c7         8    -0.09300       12.0110 ; qtot   -0.619
         9            c8bf         1   UNL        c8         9    -0.08596       12.0110 ; qtot   -0.705
        10            h9bf         1   UNL        h9        10     0.07371        1.0080 ; qtot   -0.631
        11           h10bf         1   UNL       h10        11     0.07371        1.0080 ; qtot   -0.558
        12           h11bf         1   UNL       h11        12     0.08034        1.0080 ; qtot   -0.477
        13           h12bf         1   UNL       h12        13     0.08034        1.0080 ; qtot   -0.397
        14           h13bf         1   UNL       h13        14     0.06894        1.0080 ; qtot   -0.328
        15           h14bf         1   UNL       h14        15     0.04687        1.0080 ; qtot   -0.281
        16           h15bf         1   UNL       h15        16     0.04687        1.0080 ; qtot   -0.234
        17           h16bf         1   UNL       h16        17     0.03508        1.0080 ; qtot   -0.199
        18           h17bf         1   UNL       h17        18     0.03508        1.0080 ; qtot   -0.164
        19           h18bf         1   UNL       h18        19     0.03508        1.0080 ; qtot   -0.129
        20           h19bf         1   UNL       h19        20     0.04303        1.0080 ; qtot   -0.086
        21           h20bf         1   UNL       h20        21     0.04303        1.0080 ; qtot   -0.043
        22           h21bf         1   UNL       h21        22     0.04302        1.0080 ; qtot   -0.000

[ bonds ]
;       ai        aj funct               r               k
         1         2     1        0.180444   164117.374463    ;  uncertainty r = 0.000299, k = 28.277034
         1         5     1        0.183503   151434.113721    ;  uncertainty r = 0.000075, k = 7.151706
         2         3     1        0.127215   460096.787891    ;  uncertainty r = 0.000076, k = 17.204942
         2         6     1        0.150084   230849.773975    ;  uncertainty r = 0.000086, k = 9.298744
         3         4     1        0.146225   223803.064014    ;  uncertainty r = 0.000119, k = 12.695603
         4         5     1        0.154889   237963.697607    ;  uncertainty r = 0.000075, k = 11.277637
         4        10     1        0.109661   305358.044531    ;  uncertainty r = 0.000055, k = 2.916670
         4        11     1        0.109661   305358.044531    ;  uncertainty r = 0.000055, k = 2.916670
         5        12     1        0.109370   308426.660205    ;  uncertainty r = 0.000039, k = 2.240775
         5        13     1        0.109370   308426.660205    ;  uncertainty r = 0.000039, k = 2.240775
         6         7     1        0.153466   197727.402539    ;  uncertainty r = 0.000081, k = 4.075315
         6         9     1        0.153566   211956.986328    ;  uncertainty r = 0.000035, k = 1.802010
         6        14     1        0.109771   306260.193994    ;  uncertainty r = 0.000052, k = 2.511824
         7         8     1        0.153489   219384.148145    ;  uncertainty r = 0.000029, k = 1.617163
         7        15     1        0.109656   306308.510205    ;  uncertainty r = 0.000009, k = 2.120421
         7        16     1        0.109656   306308.510205    ;  uncertainty r = 0.000009, k = 2.120421
         8        17     1        0.109641   309881.841309    ;  uncertainty r = 0.000006, k = 1.460654
         8        18     1        0.109641   309881.841309    ;  uncertainty r = 0.000006, k = 1.460654
         8        19     1        0.109641   309881.841309    ;  uncertainty r = 0.000006, k = 1.460654
         9        20     1        0.109533   310914.204492    ;  uncertainty r = 0.000022, k = 1.168595
         9        21     1        0.109533   310914.204492    ;  uncertainty r = 0.000022, k = 1.168595
         9        22     1        0.109533   310914.204492    ;  uncertainty r = 0.000022, k = 1.168595

[ angles ]
;       ai        aj        ak funct           theta             cth
         1         2         3     1      121.306152      662.401781    ;  uncertainty theta = 0.004981, k = 0.249466
         1         2         6     1      118.127548      344.717683    ;  uncertainty theta = 0.003750, k = 0.174121
         1         5         4     1      105.125504      748.643728    ;  uncertainty theta = 0.003387, k = 0.226222
         1         5        12     1      107.474266      396.401855    ;  uncertainty theta = 0.003707, k = 0.121199
         1         5        13     1      107.474266      396.401855    ;  uncertainty theta = 0.003707, k = 0.121199
         2         1         5     1       91.048798      858.772129    ;  uncertainty theta = 0.004358, k = 0.110846
         2         3         4     1      111.962585      618.058314    ;  uncertainty theta = 0.007252, k = 0.241990
         2         6         7     1      108.161171      504.883879    ;  uncertainty theta = 0.004833, k = 0.134866
         2         6         9     1      108.342896      523.606921    ;  uncertainty theta = 0.003302, k = 0.083658
         2         6        14     1      104.385483      394.691348    ;  uncertainty theta = 0.002275, k = 0.072038
         3         2         6     1      123.976097      421.808342    ;  uncertainty theta = 0.001550, k = 0.162843
         3         4         5     1      110.094437      766.398722    ;  uncertainty theta = 0.002905, k = 0.122364
         3         4        10     1      107.257118      443.585304    ;  uncertainty theta = 0.002542, k = 0.062025
         3         4        11     1      107.257118      443.585304    ;  uncertainty theta = 0.002542, k = 0.062025
         4         5        12     1      110.759933      392.397828    ;  uncertainty theta = 0.002324, k = 0.080473
         4         5        13     1      110.759933      392.397828    ;  uncertainty theta = 0.002324, k = 0.080473
         5         4        10     1      109.255592      399.995214    ;  uncertainty theta = 0.003179, k = 0.172083
         5         4        11     1      109.255592      399.995214    ;  uncertainty theta = 0.003179, k = 0.172083
         6         7         8     1      110.234215      573.076229    ;  uncertainty theta = 0.000479, k = 0.057182
         6         7        15     1      106.058022      384.035031    ;  uncertainty theta = 0.002252, k = 0.046208
         6         7        16     1      106.058022      384.035031    ;  uncertainty theta = 0.002252, k = 0.046208
         6         9        20     1      107.811050      396.908735    ;  uncertainty theta = 0.002113, k = 0.023476
         6         9        21     1      107.811050      396.908735    ;  uncertainty theta = 0.002113, k = 0.023476
         6         9        22     1      107.811050      396.908735    ;  uncertainty theta = 0.002113, k = 0.023476
         7         6         9     1      110.562172      569.238831    ;  uncertainty theta = 0.001381, k = 0.111299
         7         6        14     1      106.788330      388.125214    ;  uncertainty theta = 0.002717, k = 0.049599
         7         8        17     1      108.308472      403.190960    ;  uncertainty theta = 0.001410, k = 0.017658
         7         8        18     1      108.308472      403.190960    ;  uncertainty theta = 0.001410, k = 0.017658
         7         8        19     1      108.308472      403.190960    ;  uncertainty theta = 0.001410, k = 0.017658
         8         7        15     1      108.037254      413.878942    ;  uncertainty theta = 0.001710, k = 0.019458
         8         7        16     1      108.037254      413.878942    ;  uncertainty theta = 0.001710, k = 0.019458
         9         6        14     1      107.550110      402.230349    ;  uncertainty theta = 0.002166, k = 0.055442
        10         4        11     1      105.726974      308.865624    ;  uncertainty theta = 0.001784, k = 0.123623
        12         5        13     1      106.656227      309.014984    ;  uncertainty theta = 0.001748, k = 0.047613
        15         7        16     1      104.519981      318.060994    ;  uncertainty theta = 0.002308, k = 0.005964
        17         8        18     1      104.949600      317.024443    ;  uncertainty theta = 0.001949, k = 0.018736
        17         8        19     1      104.949600      317.024443    ;  uncertainty theta = 0.001949, k = 0.018736
        18         8        19     1      104.949600      317.024443    ;  uncertainty theta = 0.001949, k = 0.018736
        20         9        21     1      105.267227      317.371269    ;  uncertainty theta = 0.001812, k = 0.015992
        20         9        22     1      105.267227      317.371269    ;  uncertainty theta = 0.001812, k = 0.015992
        21         9        22     1      105.267227      317.371269    ;  uncertainty theta = 0.001812, k = 0.015991

[ dihedrals ] ; propers for gromacs 4.5 or higher, use funct 9
;       ai        aj        ak        al funct           phase               k        pn
         1         2         3         4     9        0.000000        0.398154         1    ;  uncertainty k = 1.718669
         1         2         3         4     9      180.000000       28.982407         2    ;  uncertainty k = 0.271617
         1         2         3         4     9        0.000000        0.283797         3    ;  uncertainty k = 0.834191
         1         2         3         4     9      180.000000        1.008304         4    ;  uncertainty k = 0.480059
         1         2         6         7     9        0.000000       -1.409583         1    ;  uncertainty k = 0.758606
         1         2         6         7     9      180.000000        2.168274         2    ;  uncertainty k = 0.512570
         1         2         6         7     9        0.000000        0.416685         3    ;  uncertainty k = 0.136801
         1         2         6         7     9      180.000000        0.124830         4    ;  uncertainty k = 0.116714
         1         2         6         9     9        0.000000       -1.189217         1    ;  uncertainty k = 0.537671
         1         2         6         9     9      180.000000        2.278613         2    ;  uncertainty k = 0.613054
         1         2         6         9     9        0.000000        0.411401         3    ;  uncertainty k = 0.158606
         1         2         6         9     9      180.000000        0.151343         4    ;  uncertainty k = 0.110212
         1         2         6        14     9        0.000000        0.344374         1    ;  uncertainty k = 0.719880
         1         2         6        14     9      180.000000        1.970778         2    ;  uncertainty k = 0.603751
         1         2         6        14     9        0.000000        0.654356         3    ;  uncertainty k = 0.131259
         1         2         6        14     9      180.000000        0.209190         4    ;  uncertainty k = 0.053561
         1         5         4         3     9        0.000000        1.564416         1    ;  uncertainty k = 0.942247
         1         5         4         3     9      180.000000       -2.719189         2    ;  uncertainty k = 0.647645
         1         5         4         3     9        0.000000        1.633203         3    ;  uncertainty k = 0.549075
         1         5         4         3     9      180.000000       -1.441648         4    ;  uncertainty k = 0.386734
         1         5         4        10     9        0.000000        0.612571         1    ;  uncertainty k = 0.321207
         1         5         4        10     9      180.000000       -1.612877         2    ;  uncertainty k = 0.661412
         1         5         4        10     9        0.000000        0.778050         3    ;  uncertainty k = 0.229592
         1         5         4        10     9      180.000000       -0.015545         4    ;  uncertainty k = 0.134554
         1         5         4        11     9        0.000000        0.612571         1    ;  uncertainty k = 0.321207
         1         5         4        11     9      180.000000       -1.612877         2    ;  uncertainty k = 0.661412
         1         5         4        11     9        0.000000        0.778050         3    ;  uncertainty k = 0.229592
         1         5         4        11     9      180.000000       -0.015545         4    ;  uncertainty k = 0.134554
         2         1         5         4     9        0.000000        1.518194         1    ;  uncertainty k = 2.133018
         2         1         5         4     9      180.000000        5.247804         2    ;  uncertainty k = 1.167808
         2         1         5         4     9        0.000000        0.065426         3    ;  uncertainty k = 0.741632
         2         1         5         4     9      180.000000       -1.728928         4    ;  uncertainty k = 0.700423
         2         1         5        12     9        0.000000        0.803476         1    ;  uncertainty k = 0.682730
         2         1         5        12     9      180.000000       -1.331006         2    ;  uncertainty k = 0.294411
         2         1         5        12     9        0.000000        0.568062         3    ;  uncertainty k = 0.240379
         2         1         5        12     9      180.000000        0.207328         4    ;  uncertainty k = 0.097885
         2         1         5        13     9        0.000000        0.803476         1    ;  uncertainty k = 0.682730
         2         1         5        13     9      180.000000       -1.331006         2    ;  uncertainty k = 0.294411
         2         1         5        13     9        0.000000        0.568062         3    ;  uncertainty k = 0.240379
         2         1         5        13     9      180.000000        0.207328         4    ;  uncertainty k = 0.097885
         2         3         4         5     9        0.000000       -1.679494         1    ;  uncertainty k = 2.920223
         2         3         4         5     9      180.000000        8.864104         2    ;  uncertainty k = 0.695369
         2         3         4         5     9        0.000000       -1.125351         3    ;  uncertainty k = 0.316535
         2         3         4         5     9      180.000000       -0.141785         4    ;  uncertainty k = 0.418972
         2         3         4        10     9        0.000000       -1.687988         1    ;  uncertainty k = 2.301155
         2         3         4        10     9      180.000000        2.163116         2    ;  uncertainty k = 0.583917
         2         3         4        10     9        0.000000        0.578317         3    ;  uncertainty k = 0.273814
         2         3         4        10     9      180.000000        0.119710         4    ;  uncertainty k = 0.122167
         2         3         4        11     9        0.000000       -1.687988         1    ;  uncertainty k = 2.301155
         2         3         4        11     9      180.000000        2.163116         2    ;  uncertainty k = 0.583917
         2         3         4        11     9        0.000000        0.578317         3    ;  uncertainty k = 0.273814
         2         3         4        11     9      180.000000        0.119710         4    ;  uncertainty k = 0.122167
         2         6         7         8     9        0.000000       -3.148368         1    ;  uncertainty k = 1.052488
         2         6         7         8     9      180.000000       -0.206324         2    ;  uncertainty k = 0.196177
         2         6         7         8     9        0.000000        1.207899         3    ;  uncertainty k = 0.083830
         2         6         7         8     9      180.000000       -0.100669         4    ;  uncertainty k = 0.121207
         2         6         7        15     9        0.000000        1.238180         1    ;  uncertainty k = 0.299375
         2         6         7        15     9      180.000000       -0.720249         2    ;  uncertainty k = 0.210443
         2         6         7        15     9        0.000000        0.745698         3    ;  uncertainty k = 0.071065
         2         6         7        15     9      180.000000        0.018072         4    ;  uncertainty k = 0.069099
         2         6         7        16     9        0.000000        1.238180         1    ;  uncertainty k = 0.299375
         2         6         7        16     9      180.000000       -0.720249         2    ;  uncertainty k = 0.210443
         2         6         7        16     9        0.000000        0.745698         3    ;  uncertainty k = 0.071065
         2         6         7        16     9      180.000000        0.018072         4    ;  uncertainty k = 0.069099
         2         6         9        20     9        0.000000        0.731545         1    ;  uncertainty k = 0.310017
         2         6         9        20     9      180.000000       -0.760336         2    ;  uncertainty k = 0.218451
         2         6         9        20     9        0.000000        0.949422         3    ;  uncertainty k = 0.149333
         2         6         9        20     9      180.000000        0.009976         4    ;  uncertainty k = 0.076264
         2         6         9        21     9        0.000000        0.731545         1    ;  uncertainty k = 0.310017
         2         6         9        21     9      180.000000       -0.760336         2    ;  uncertainty k = 0.218451
         2         6         9        21     9        0.000000        0.949422         3    ;  uncertainty k = 0.149333
         2         6         9        21     9      180.000000        0.009976         4    ;  uncertainty k = 0.076264
         2         6         9        22     9        0.000000        0.731545         1    ;  uncertainty k = 0.310017
         2         6         9        22     9      180.000000       -0.760336         2    ;  uncertainty k = 0.218451
         2         6         9        22     9        0.000000        0.949422         3    ;  uncertainty k = 0.149333
         2         6         9        22     9      180.000000        0.009976         4    ;  uncertainty k = 0.076264
         3         2         1         5     9        0.000000       -1.351132         1    ;  uncertainty k = 2.961513
         3         2         1         5     9      180.000000       20.238664         2    ;  uncertainty k = 0.499329
         3         2         1         5     9        0.000000       -1.676295         3    ;  uncertainty k = 0.661045
         3         2         1         5     9      180.000000       -1.375951         4    ;  uncertainty k = 0.454277
         3         2         6         7     9        0.000000        0.705149         1    ;  uncertainty k = 0.588805
         3         2         6         7     9      180.000000        3.808370         2    ;  uncertainty k = 0.403873
         3         2         6         7     9        0.000000       -0.192734         3    ;  uncertainty k = 0.177887
         3         2         6         7     9      180.000000        0.199671         4    ;  uncertainty k = 0.105714
         3         2         6         9     9        0.000000        0.990189         1    ;  uncertainty k = 0.511793
         3         2         6         9     9      180.000000        3.950307         2    ;  uncertainty k = 0.619646
         3         2         6         9     9        0.000000       -0.123480         3    ;  uncertainty k = 0.179123
         3         2         6         9     9      180.000000        0.215721         4    ;  uncertainty k = 0.113400
         3         2         6        14     9        0.000000        2.504609         1    ;  uncertainty k = 0.688696
         3         2         6        14     9      180.000000        3.573875         2    ;  uncertainty k = 0.660704
         3         2         6        14     9        0.000000        0.170385         3    ;  uncertainty k = 0.166762
         3         2         6        14     9      180.000000        0.218434         4    ;  uncertainty k = 0.049973
         3         4         5        12     9        0.000000       -0.413961         1    ;  uncertainty k = 0.234368
         3         4         5        12     9      180.000000        0.019831         2    ;  uncertainty k = 0.493108
         3         4         5        12     9        0.000000        0.953098         3    ;  uncertainty k = 0.210239
         3         4         5        12     9      180.000000        0.021070         4    ;  uncertainty k = 0.053460
         3         4         5        13     9        0.000000       -0.413961         1    ;  uncertainty k = 0.234368
         3         4         5        13     9      180.000000        0.019831         2    ;  uncertainty k = 0.493108
         3         4         5        13     9        0.000000        0.953098         3    ;  uncertainty k = 0.210239
         3         4         5        13     9      180.000000        0.021070         4    ;  uncertainty k = 0.053460
         4         3         2         6     9        0.000000        0.220788         1    ;  uncertainty k = 1.199827
         4         3         2         6     9      180.000000       25.463527         2    ;  uncertainty k = 0.698193
         4         3         2         6     9        0.000000        2.634719         3    ;  uncertainty k = 0.710289
         4         3         2         6     9      180.000000        0.935282         4    ;  uncertainty k = 0.869367
         5         1         2         6     9        0.000000        2.254504         1    ;  uncertainty k = 2.531633
         5         1         2         6     9      180.000000        7.643941         2    ;  uncertainty k = 0.883342
         5         1         2         6     9        0.000000        1.395616         3    ;  uncertainty k = 0.441756
         5         1         2         6     9      180.000000       -0.036468         4    ;  uncertainty k = 0.356799
         6         7         8        17     9        0.000000       -1.592841         1    ;  uncertainty k = 0.316369
         6         7         8        17     9      180.000000       -1.368838         2    ;  uncertainty k = 0.275227
         6         7         8        17     9        0.000000        1.339628         3    ;  uncertainty k = 0.101734
         6         7         8        17     9      180.000000       -0.340426         4    ;  uncertainty k = 0.033745
         6         7         8        18     9        0.000000       -1.592841         1    ;  uncertainty k = 0.316369
         6         7         8        18     9      180.000000       -1.368838         2    ;  uncertainty k = 0.275227
         6         7         8        18     9        0.000000        1.339628         3    ;  uncertainty k = 0.101734
         6         7         8        18     9      180.000000       -0.340426         4    ;  uncertainty k = 0.033745
         6         7         8        19     9        0.000000       -1.592841         1    ;  uncertainty k = 0.316369
         6         7         8        19     9      180.000000       -1.368838         2    ;  uncertainty k = 0.275227
         6         7         8        19     9        0.000000        1.339628         3    ;  uncertainty k = 0.101734
         6         7         8        19     9      180.000000       -0.340426         4    ;  uncertainty k = 0.033745
         7         6         9        20     9        0.000000       -1.434417         1    ;  uncertainty k = 0.315003
         7         6         9        20     9      180.000000       -0.627734         2    ;  uncertainty k = 0.217709
         7         6         9        20     9        0.000000        1.069652         3    ;  uncertainty k = 0.071021
         7         6         9        20     9      180.000000       -0.228687         4    ;  uncertainty k = 0.059257
         7         6         9        21     9        0.000000       -1.434417         1    ;  uncertainty k = 0.315003
         7         6         9        21     9      180.000000       -0.627734         2    ;  uncertainty k = 0.217709
         7         6         9        21     9        0.000000        1.069652         3    ;  uncertainty k = 0.071021
         7         6         9        21     9      180.000000       -0.228687         4    ;  uncertainty k = 0.059257
         7         6         9        22     9        0.000000       -1.434417         1    ;  uncertainty k = 0.315003
         7         6         9        22     9      180.000000       -0.627734         2    ;  uncertainty k = 0.217709
         7         6         9        22     9        0.000000        1.069652         3    ;  uncertainty k = 0.071021
         7         6         9        22     9      180.000000       -0.228687         4    ;  uncertainty k = 0.059257
         8         7         6         9     9        0.000000       -4.679107         1    ;  uncertainty k = 0.464831
         8         7         6         9     9      180.000000        0.612966         2    ;  uncertainty k = 0.330133
         8         7         6         9     9        0.000000        1.382162         3    ;  uncertainty k = 0.112548
         8         7         6         9     9      180.000000       -0.476804         4    ;  uncertainty k = 0.079627
         8         7         6        14     9        0.000000       -1.869103         1    ;  uncertainty k = 0.477141
         8         7         6        14     9      180.000000       -0.243553         2    ;  uncertainty k = 0.150853
         8         7         6        14     9        0.000000        0.776390         3    ;  uncertainty k = 0.081111
         8         7         6        14     9      180.000000       -0.194419         4    ;  uncertainty k = 0.061974
         9         6         7        15     9        0.000000       -1.264285         1    ;  uncertainty k = 0.343993
         9         6         7        15     9      180.000000       -0.256438         2    ;  uncertainty k = 0.110113
         9         6         7        15     9        0.000000        0.750668         3    ;  uncertainty k = 0.076971
         9         6         7        15     9      180.000000       -0.137775         4    ;  uncertainty k = 0.046896
         9         6         7        16     9        0.000000       -1.264285         1    ;  uncertainty k = 0.343993
         9         6         7        16     9      180.000000       -0.256438         2    ;  uncertainty k = 0.110113
         9         6         7        16     9        0.000000        0.750668         3    ;  uncertainty k = 0.076971
         9         6         7        16     9      180.000000       -0.137775         4    ;  uncertainty k = 0.046896
        10         4         5        12     9        0.000000       -0.068294         1    ;  uncertainty k = 0.306332
        10         4         5        12     9      180.000000       -0.117449         2    ;  uncertainty k = 0.301823
        10         4         5        12     9        0.000000        0.227313         3    ;  uncertainty k = 0.177230
        10         4         5        12     9      180.000000       -0.011756         4    ;  uncertainty k = 0.066562
        10         4         5        13     9        0.000000       -0.068294         1    ;  uncertainty k = 0.306332
        10         4         5        13     9      180.000000       -0.117449         2    ;  uncertainty k = 0.301823
        10         4         5        13     9        0.000000        0.227313         3    ;  uncertainty k = 0.177230
        10         4         5        13     9      180.000000       -0.011756         4    ;  uncertainty k = 0.066562
        11         4         5        12     9        0.000000       -0.068294         1    ;  uncertainty k = 0.306332
        11         4         5        12     9      180.000000       -0.117449         2    ;  uncertainty k = 0.301823
        11         4         5        12     9        0.000000        0.227313         3    ;  uncertainty k = 0.177230
        11         4         5        12     9      180.000000       -0.011756         4    ;  uncertainty k = 0.066562
        11         4         5        13     9        0.000000       -0.068294         1    ;  uncertainty k = 0.306332
        11         4         5        13     9      180.000000       -0.117449         2    ;  uncertainty k = 0.301823
        11         4         5        13     9        0.000000        0.227313         3    ;  uncertainty k = 0.177230
        11         4         5        13     9      180.000000       -0.011756         4    ;  uncertainty k = 0.066562
        14         6         7        15     9        0.000000        1.095916         1    ;  uncertainty k = 0.375964
        14         6         7        15     9      180.000000       -0.948312         2    ;  uncertainty k = 0.088374
        14         6         7        15     9        0.000000       -0.116595         3    ;  uncertainty k = 0.049911
        14         6         7        15     9      180.000000       -0.110169         4    ;  uncertainty k = 0.033733
        14         6         7        16     9        0.000000        1.095916         1    ;  uncertainty k = 0.375964
        14         6         7        16     9      180.000000       -0.948312         2    ;  uncertainty k = 0.088374
        14         6         7        16     9        0.000000       -0.116595         3    ;  uncertainty k = 0.049911
        14         6         7        16     9      180.000000       -0.110169         4    ;  uncertainty k = 0.033733
        14         6         9        20     9        0.000000        0.850109         1    ;  uncertainty k = 0.415239
        14         6         9        20     9      180.000000       -0.931859         2    ;  uncertainty k = 0.125903
        14         6         9        20     9        0.000000        0.360434         3    ;  uncertainty k = 0.041241
        14         6         9        20     9      180.000000       -0.018116         4    ;  uncertainty k = 0.045573
        14         6         9        21     9        0.000000        0.850109         1    ;  uncertainty k = 0.415239
        14         6         9        21     9      180.000000       -0.931859         2    ;  uncertainty k = 0.125903
        14         6         9        21     9        0.000000        0.360434         3    ;  uncertainty k = 0.041241
        14         6         9        21     9      180.000000       -0.018116         4    ;  uncertainty k = 0.045573
        14         6         9        22     9        0.000000        0.850109         1    ;  uncertainty k = 0.415239
        14         6         9        22     9      180.000000       -0.931859         2    ;  uncertainty k = 0.125903
        14         6         9        22     9        0.000000        0.360434         3    ;  uncertainty k = 0.041241
        14         6         9        22     9      180.000000       -0.018116         4    ;  uncertainty k = 0.045573
        15         7         8        17     9        0.000000        0.810854         1    ;  uncertainty k = 0.329479
        15         7         8        17     9      180.000000       -0.701145         2    ;  uncertainty k = 0.151829
        15         7         8        17     9        0.000000        0.573625         3    ;  uncertainty k = 0.018575
        15         7         8        17     9      180.000000       -0.027261         4    ;  uncertainty k = 0.046771
        15         7         8        18     9        0.000000        0.810854         1    ;  uncertainty k = 0.329479
        15         7         8        18     9      180.000000       -0.701145         2    ;  uncertainty k = 0.151829
        15         7         8        18     9        0.000000        0.573625         3    ;  uncertainty k = 0.018575
        15         7         8        18     9      180.000000       -0.027261         4    ;  uncertainty k = 0.046771
        15         7         8        19     9        0.000000        0.810854         1    ;  uncertainty k = 0.329479
        15         7         8        19     9      180.000000       -0.701145         2    ;  uncertainty k = 0.151829
        15         7         8        19     9        0.000000        0.573625         3    ;  uncertainty k = 0.018575
        15         7         8        19     9      180.000000       -0.027261         4    ;  uncertainty k = 0.046771
        16         7         8        17     9        0.000000        0.810854         1    ;  uncertainty k = 0.329479
        16         7         8        17     9      180.000000       -0.701145         2    ;  uncertainty k = 0.151829
        16         7         8        17     9        0.000000        0.573625         3    ;  uncertainty k = 0.018575
        16         7         8        17     9      180.000000       -0.027261         4    ;  uncertainty k = 0.046771
        16         7         8        18     9        0.000000        0.810854         1    ;  uncertainty k = 0.329479
        16         7         8        18     9      180.000000       -0.701145         2    ;  uncertainty k = 0.151829
        16         7         8        18     9        0.000000        0.573625         3    ;  uncertainty k = 0.018575
        16         7         8        18     9      180.000000       -0.027261         4    ;  uncertainty k = 0.046771
        16         7         8        19     9        0.000000        0.810854         1    ;  uncertainty k = 0.329479
        16         7         8        19     9      180.000000       -0.701145         2    ;  uncertainty k = 0.151829
        16         7         8        19     9        0.000000        0.573625         3    ;  uncertainty k = 0.018575
        16         7         8        19     9      180.000000       -0.027261         4    ;  uncertainty k = 0.046771

[ dihedrals ] ; impropers
;       ai        aj        ak        al funct           phase               k        pn
         2         1         3         6     4      180.000000       20.977133         2    ;  uncertainty k = 0.109280
         2         3         6         1     4      180.000000       20.977133         2    ;  uncertainty k = 0.109280
         2         6         1         3     4      180.000000       20.977133         2    ;  uncertainty k = 0.109280

[ pairs ]
;       ai        aj funct
         1         7     1
         1         9     1
         1        10     1
         1        11     1
         1        14     1
         2         8     1
         2        10     1
         2        11     1
         2        12     1
         2        13     1
         2        15     1
         2        16     1
         2        20     1
         2        21     1
         2        22     1
         3         7     1
         3         9     1
         3        12     1
         3        13     1
         3        14     1
         4         6     1
         5         6     1
         6        17     1
         6        18     1
         6        19     1
         7        20     1
         7        21     1
         7        22     1
         8         9     1
         8        14     1
         9        15     1
         9        16     1
        10        12     1
        10        13     1
        11        12     1
        11        13     1
        14        15     1
        14        16     1
        14        20     1
        14        21     1
        14        22     1
        15        17     1
        15        18     1
        15        19     1
        16        17     1
        16        18     1
        16        19     1
