Generated by PDBParser (exclude clash < 1.000 A)
537
    1SOL     OW    1  -0.004  -0.464  -1.967
    1SOL    HW1    2   0.014  -0.453  -2.065
    1SOL    HW2    3  -0.043  -0.379  -1.933
    2SOL     OW    4  -1.169   0.555  -1.635
    2SOL    HW1    5  -1.078   0.516  -1.623
    2SOL    HW2    6  -1.163   0.634  -1.698
    3SOL     OW    7  -2.941   1.280  -0.990
    3SOL    HW1    8  -2.915   1.209  -1.056
    3SOL    HW2    9  -2.860   1.334  -0.967
    4SOL     OW   10  -0.492   1.273  -0.134
    4SOL    HW1   11  -0.512   1.339  -0.208
    4SOL    HW2   12  -0.547   1.295  -0.054
    5SOL     OW   13   1.285  -0.725  -1.039
    5SOL    HW1   14   1.280  -0.669  -1.123
    5SOL    HW2   15   1.378  -0.757  -1.026
    6SOL     OW   16   0.432   0.597  -3.428
    6SOL    HW1   17   0.423   0.529  -3.501
    6SOL    HW2   18   0.340   0.629  -3.403
    7SOL     OW   19  -0.914   0.810  -2.266
    7SOL    HW1   20  -0.901   0.738  -2.335
    7SOL    HW2   21  -0.959   0.888  -2.310
    8SOL     OW   22   0.996  -0.712  -0.965
    8SOL    HW1   23   0.979  -0.784  -0.897
    8SOL    HW2   24   1.094  -0.711  -0.986
    9SOL     OW   25   2.643   2.878  -1.588
    9SOL    HW1   26   2.689   2.789  -1.597
    9SOL    HW2   27   2.589   2.877  -1.504
   10SOL     OW   28  -0.761   0.509  -2.209
   10SOL    HW1   29  -0.709   0.483  -2.128
   10SOL    HW2   30  -0.788   0.605  -2.201
   11SOL     OW   31   3.321   1.950  -1.303
   11SOL    HW1   32   3.247   1.966  -1.238
   11SOL    HW2   33   3.387   1.886  -1.262
   12SOL     OW   34  -1.175   1.094  -3.443
   12SOL    HW1   35  -1.151   1.061  -3.351
   12SOL    HW2   36  -1.142   1.188  -3.453
   13SOL     OW   37   0.052  -0.076  -2.670
   13SOL    HW1   38  -0.009  -0.142  -2.715
   13SOL    HW2   39   0.074  -0.110  -2.578
   14SOL     OW   40  -0.626  -0.529   0.057
   14SOL    HW1   41  -0.696  -0.531  -0.016
   14SOL    HW2   42  -0.652  -0.462   0.126
   15SOL     OW   43  -1.243   2.476  -1.660
   15SOL    HW1   44  -1.184   2.466  -1.580
   15SOL    HW2   45  -1.185   2.491  -1.741
   16SOL     OW   46   1.768   0.544  -0.724
   16SOL    HW1   47   1.689   0.604  -0.711
   16SOL    HW2   48   1.755   0.463  -0.668
   17SOL     OW   49   1.830  -0.730  -1.976
   17SOL    HW1   50   1.743  -0.722  -2.024
   17SOL    HW2   51   1.819  -0.692  -1.884
   18SOL     OW   52   1.378  -1.152  -1.193
   18SOL    HW1   53   1.349  -1.246  -1.173
   18SOL    HW2   54   1.447  -1.154  -1.266
   19SOL     OW   55  -0.844   0.249  -1.941
   19SOL    HW1   56  -0.763   0.304  -1.963
   19SOL    HW2   57  -0.899   0.238  -2.024
   20SOL     OW   58   1.471   2.224  -2.308
   20SOL    HW1   59   1.465   2.208  -2.407
   20SOL    HW2   60   1.557   2.187  -2.272
   21SOL     OW   61  -0.664  -0.992  -0.918
   21SOL    HW1   62  -0.583  -0.954  -0.873
   21SOL    HW2   63  -0.738  -0.925  -0.916
   22SOL     OW   64   2.119   1.307  -3.006
   22SOL    HW1   65   2.160   1.229  -2.960
   22SOL    HW2   66   2.143   1.305  -3.103
   23SOL     OW   67  -2.888   2.573  -2.272
   23SOL    HW1   68  -2.832   2.643  -2.317
   23SOL    HW2   69  -2.980   2.573  -2.313
   24SOL     OW   70   1.574  -0.516  -2.518
   24SOL    HW1   71   1.582  -0.533  -2.420
   24SOL    HW2   72   1.478  -0.494  -2.540
   25SOL     OW   73   1.228   1.338  -1.937
   25SOL    HW1   74   1.245   1.306  -1.843
   25SOL    HW2   75   1.212   1.259  -1.996
   26SOL     OW   76   1.878  -1.157  -1.353
   26SOL    HW1   77   1.814  -1.221  -1.397
   26SOL    HW2   78   1.850  -1.145  -1.257
   27SOL     OW   79   2.697   0.465  -1.662
   27SOL    HW1   80   2.737   0.556  -1.649
   27SOL    HW2   81   2.650   0.463  -1.750
   28SOL     OW   82   1.722   1.340  -1.469
   28SOL    HW1   83   1.693   1.406  -1.538
   28SOL    HW2   84   1.651   1.331  -1.399
   29SOL     OW   85   3.098   1.519  -2.915
   29SOL    HW1   86   3.179   1.522  -2.857
   29SOL    HW2   87   3.038   1.445  -2.885
   30SOL     OW   88  -1.160   1.410  -3.022
   30SOL    HW1   89  -1.086   1.402  -2.955
   30SOL    HW2   90  -1.180   1.317  -3.057
   31SOL     OW   91   2.674   0.898  -3.020
   31SOL    HW1   92   2.663   0.895  -3.119
   31SOL    HW2   93   2.582   0.902  -2.978
   32SOL     OW   94   1.490   0.655  -2.865
   32SOL    HW1   95   1.557   0.730  -2.861
   32SOL    HW2   96   1.537   0.570  -2.840
   33SOL     OW   97  -0.936   0.234  -0.719
   33SOL    HW1   98  -0.968   0.297  -0.791
   33SOL    HW2   99  -1.012   0.216  -0.656
   34SOL     OW  100   0.977  -0.992  -2.316
   34SOL    HW1  101   0.927  -0.905  -2.324
   34SOL    HW2  102   1.070  -0.973  -2.284
   35SOL     OW  103   1.546   1.372  -2.749
   35SOL    HW1  104   1.565   1.365  -2.651
   35SOL    HW2  105   1.629   1.402  -2.796
   36SOL     OW  106  -1.296   2.930  -2.414
   36SOL    HW1  107  -1.344   2.909  -2.500
   36SOL    HW2  108  -1.265   3.025  -2.416
   37SOL     OW  109   1.365   0.884  -0.999
   37SOL    HW1  110   1.286   0.883  -0.937
   37SOL    HW2  111   1.369   0.794  -1.044
   38SOL     OW  112  -1.038   2.538  -1.871
   38SOL    HW1  113  -1.105   2.600  -1.911
   38SOL    HW2  114  -0.977   2.588  -1.809
   39SOL     OW  115   2.463   1.116  -3.131
   39SOL    HW1  116   2.418   1.059  -3.061
   39SOL    HW2  117   2.394   1.154  -3.192
   40SOL     OW  118   0.925   0.463  -2.792
   40SOL    HW1  119   1.011   0.514  -2.801
   40SOL    HW2  120   0.855   0.522  -2.752
   41SOL     OW  121  -0.965   2.689  -0.994
   41SOL    HW1  122  -0.875   2.664  -1.031
   41SOL    HW2  123  -0.962   2.786  -0.967
   42SOL     OW  124   3.526   0.991  -2.693
   42SOL    HW1  125   3.612   0.941  -2.700
   42SOL    HW2  126   3.544   1.089  -2.697
   43SOL     OW  127   1.122   1.637  -1.364
   43SOL    HW1  128   1.125   1.704  -1.289
   43SOL    HW2  129   1.028   1.628  -1.396
   44SOL     OW  130   0.846   1.389  -2.422
   44SOL    HW1  131   0.805   1.327  -2.355
   44SOL    HW2  132   0.882   1.334  -2.498
   45SOL     OW  133  -1.114   0.220  -1.654
   45SOL    HW1  134  -1.202   0.255  -1.619
   45SOL    HW2  135  -1.092   0.135  -1.604
   46SOL     OW  136  -0.066   0.469  -0.241
   46SOL    HW1  137   0.016   0.437  -0.193
   46SOL    HW2  138  -0.132   0.505  -0.175
   47SOL     OW  139  -2.090   2.189  -0.450
   47SOL    HW1  140  -2.138   2.155  -0.368
   47SOL    HW2  141  -2.148   2.174  -0.530
   48SOL     OW  142   0.031   1.517  -2.594
   48SOL    HW1  143  -0.056   1.469  -2.587
   48SOL    HW2  144   0.100   1.467  -2.540
   49SOL     OW  145  -1.360   0.332  -0.123
   49SOL    HW1  146  -1.352   0.347  -0.222
   49SOL    HW2  147  -1.453   0.301  -0.104
   50SOL     OW  148  -0.122   2.047  -2.068
   50SOL    HW1  149  -0.096   2.141  -2.047
   50SOL    HW2  150  -0.191   2.017  -2.002
   51SOL     OW  151  -1.030  -0.155  -0.943
   51SOL    HW1  152  -0.963  -0.172  -0.871
   51SOL    HW2  153  -1.081  -0.072  -0.920
   52SOL     OW  154   1.342  -1.759  -1.514
   52SOL    HW1  155   1.420  -1.784  -1.571
   52SOL    HW2  156   1.349  -1.805  -1.425
   53SOL     OW  157   2.808   0.670  -0.948
   53SOL    HW1  158   2.794   0.769  -0.945
   53SOL    HW2  159   2.752   0.631  -1.022
   54SOL     OW  160   0.813   1.285  -1.968
   54SOL    HW1  161   0.871   1.367  -1.969
   54SOL    HW2  162   0.797   1.254  -2.063
   55SOL     OW  163  -2.020   1.813  -2.262
   55SOL    HW1  164  -2.000   1.745  -2.192
   55SOL    HW2  165  -2.030   1.767  -2.351
   56SOL     OW  166   0.766   0.415  -3.049
   56SOL    HW1  167   0.823   0.439  -2.970
   56SOL    HW2  168   0.761   0.315  -3.055
   57SOL     OW  169   0.828   0.981  -0.525
   57SOL    HW1  170   0.906   0.930  -0.562
   57SOL    HW2  171   0.821   1.069  -0.572
   58SOL     OW  172   1.275   1.004  -2.989
   58SOL    HW1  173   1.208   1.048  -3.049
   58SOL    HW2  174   1.346   0.962  -3.044
   59SOL     OW  175   1.537   1.097  -1.061
   59SOL    HW1  176   1.467   1.027  -1.043
   59SOL    HW2  177   1.513   1.149  -1.143
   60SOL     OW  178  -0.284  -1.076  -1.234
   60SOL    HW1  179  -0.345  -1.131  -1.177
   60SOL    HW2  180  -0.260  -1.126  -1.317
   61SOL     OW  181  -0.235   0.382  -3.432
   61SOL    HW1  182  -0.258   0.458  -3.370
   61SOL    HW2  183  -0.246   0.296  -3.382
   62SOL     OW  184  -2.417   1.778  -0.240
   62SOL    HW1  185  -2.382   1.693  -0.199
   62SOL    HW2  186  -2.374   1.857  -0.195
   63SOL     OW  187  -0.076   1.367  -0.013
   63SOL    HW1  188  -0.147   1.376   0.057
   63SOL    HW2  189  -0.003   1.432   0.007
   64SOL     OW  190   0.906  -0.615  -0.642
   64SOL    HW1  191   0.868  -0.626  -0.550
   64SOL    HW2  192   0.935  -0.705  -0.676
   65SOL     OW  193  -0.912   0.433  -1.618
   65SOL    HW1  194  -0.973   0.354  -1.634
   65SOL    HW2  195  -0.890   0.438  -1.521
   66SOL     OW  196  -0.948   0.415  -2.991
   66SOL    HW1  197  -1.028   0.426  -3.051
   66SOL    HW2  198  -0.935   0.500  -2.938
   67SOL     OW  199   0.874   1.260  -0.695
   67SOL    HW1  200   0.935   1.209  -0.756
   67SOL    HW2  201   0.914   1.350  -0.678
   69SOL     OW  205   3.302   1.000  -1.650
   69SOL    HW1  206   3.300   0.915  -1.703
   69SOL    HW2  207   3.311   0.978  -1.552
   70SOL     OW  208   2.496   0.760  -2.446
   70SOL    HW1  209   2.556   0.778  -2.525
   70SOL    HW2  210   2.545   0.706  -2.378
   71SOL     OW  211   1.650  -0.926  -1.298
   71SOL    HW1  212   1.687  -0.967  -1.214
   71SOL    HW2  213   1.618  -0.999  -1.358
   72SOL     OW  214  -1.445   0.174  -0.722
   72SOL    HW1  215  -1.367   0.172  -0.784
   72SOL    HW2  216  -1.420   0.131  -0.635
   73SOL     OW  217   0.221   1.504  -2.825
   73SOL    HW1  218   0.242   1.583  -2.884
   73SOL    HW2  219   0.155   1.532  -2.755
   74SOL     OW  220   2.194   2.911  -1.971
   74SOL    HW1  221   2.226   2.858  -2.050
   74SOL    HW2  222   2.095   2.917  -1.975
   75SOL     OW  223   2.275  -0.239  -2.079
   75SOL    HW1  224   2.182  -0.249  -2.044
   75SOL    HW2  225   2.273  -0.189  -2.166
   76SOL     OW  226   1.482  -1.475  -1.928
   76SOL    HW1  227   1.410  -1.542  -1.948
   76SOL    HW2  228   1.442  -1.383  -1.932
   77SOL     OW  229   1.039   1.143  -3.129
   77SOL    HW1  230   0.991   1.089  -3.198
   77SOL    HW2  231   1.048   1.237  -3.163
   78SOL     OW  232   2.357   0.426  -1.982
   78SOL    HW1  233   2.302   0.350  -2.017
   78SOL    HW2  234   2.296   0.495  -1.944
   79SOL     OW  235   3.551   2.362  -1.755
   79SOL    HW1  236   3.502   2.330  -1.836
   79SOL    HW2  237   3.500   2.438  -1.713
   80SOL     OW  238  -0.723  -0.054  -0.115
   80SOL    HW1  239  -0.655  -0.060  -0.042
   80SOL    HW2  240  -0.782  -0.135  -0.112
   81SOL     OW  241   2.749   0.187  -1.585
   81SOL    HW1  242   2.740   0.282  -1.619
   81SOL    HW2  243   2.691   0.128  -1.641
   82SOL     OW  244  -3.092   1.700  -1.708
   82SOL    HW1  245  -3.162   1.745  -1.762
   82SOL    HW2  246  -3.005   1.750  -1.717
   83SOL     OW  247   2.845   1.764  -0.633
   83SOL    HW1  248   2.802   1.815  -0.709
   83SOL    HW2  249   2.832   1.817  -0.548
   84SOL     OW  250   0.340  -0.882  -0.923
   84SOL    HW1  251   0.295  -0.805  -0.876
   84SOL    HW2  252   0.284  -0.909  -1.002
   85SOL     OW  253  -2.192   2.056  -1.519
   85SOL    HW1  254  -2.217   2.095  -1.608
   85SOL    HW2  255  -2.205   2.124  -1.448
   86SOL     OW  256  -0.831  -0.951  -0.307
   86SOL    HW1  257  -0.884  -0.867  -0.291
   86SOL    HW2  258  -0.770  -0.966  -0.229
   87SOL     OW  259  -2.042   2.256  -1.047
   87SOL    HW1  260  -2.129   2.212  -1.073
   87SOL    HW2  261  -2.043   2.351  -1.078
   88SOL     OW  262   1.567   1.955  -0.917
   88SOL    HW1  263   1.603   2.016  -0.846
   88SOL    HW2  264   1.644   1.909  -0.962
   89SOL     OW  265  -1.591   2.074  -0.226
   89SOL    HW1  266  -1.641   2.153  -0.190
   89SOL    HW2  267  -1.601   2.071  -0.325
   90SOL     OW  268   0.138  -0.600  -2.400
   90SOL    HW1  269   0.125  -0.577  -2.497
   90SOL    HW2  270   0.099  -0.526  -2.344
   91SOL     OW  271   0.623   1.283  -0.875
   91SOL    HW1  272   0.707   1.270  -0.822
   91SOL    HW2  273   0.573   1.362  -0.838
   92SOL     OW  274  -4.140   2.990  -2.765
   92SOL    HW1  275  -4.067   2.924  -2.787
   92SOL    HW2  276  -4.143   3.005  -2.667
   93SOL     OW  277   1.709   2.096  -3.006
   93SOL    HW1  278   1.748   2.005  -2.992
   93SOL    HW2  279   1.752   2.138  -3.087
   94SOL     OW  280   2.108   1.471  -0.370
   94SOL    HW1  281   2.186   1.532  -0.357
   94SOL    HW2  282   2.077   1.477  -0.465
   95SOL     OW  283   2.167   2.656  -1.330
   95SOL    HW1  284   2.098   2.664  -1.402
   95SOL    HW2  285   2.232   2.733  -1.337
   96SOL     OW  286  -1.920   1.359  -2.289
   96SOL    HW1  287  -1.944   1.323  -2.379
   96SOL    HW2  288  -1.992   1.422  -2.259
   97SOL     OW  289   2.147   2.486  -1.065
   97SOL    HW1  290   2.161   2.553  -1.139
   97SOL    HW2  291   2.230   2.478  -1.010
   98SOL     OW  292   3.071   1.699  -0.834
   98SOL    HW1  293   2.998   1.728  -0.897
   98SOL    HW2  294   3.035   1.701  -0.741
   99SOL     OW  295  -0.197   1.690  -0.603
   99SOL    HW1  296  -0.164   1.784  -0.606
   99SOL    HW2  297  -0.143   1.638  -0.536
  100SOL     OW  298  -0.189  -1.175  -1.505
  100SOL    HW1  299  -0.264  -1.206  -1.563
  100SOL    HW2  300  -0.111  -1.236  -1.518
  101SOL     OW  301  -0.140   1.354  -1.076
  101SOL    HW1  302  -0.071   1.286  -1.048
  101SOL    HW2  303  -0.101   1.414  -1.146
  102SOL     OW  304   2.508   0.632  -2.154
  102SOL    HW1  305   2.603   0.643  -2.125
  102SOL    HW2  306   2.467   0.556  -2.103
  103SOL     OW  307   1.054  -1.773  -1.642
  103SOL    HW1  308   1.054  -1.704  -1.715
  103SOL    HW2  309   1.144  -1.776  -1.599
  104SOL     OW  310   1.334   2.245  -2.048
  104SOL    HW1  311   1.388   2.232  -2.132
  104SOL    HW2  312   1.262   2.311  -2.067
  105SOL     OW  313   1.763  -1.101  -1.078
  105SOL    HW1  314   1.801  -1.070  -0.991
  105SOL    HW2  315   1.692  -1.169  -1.060
  106SOL     OW  316   2.601   0.896  -3.307
  106SOL    HW1  317   2.687   0.916  -3.355
  106SOL    HW2  318   2.553   0.982  -3.290
  107SOL     OW  319  -0.194   1.406  -0.304
  107SOL    HW1  320  -0.164   1.409  -0.208
  107SOL    HW2  321  -0.289   1.436  -0.310
  108SOL     OW  322   0.993   1.518  -1.932
  108SOL    HW1  323   1.078   1.464  -1.934
  108SOL    HW2  324   1.003   1.592  -1.865
  109SOL     OW  325   1.185   0.618  -2.793
  109SOL    HW1  326   1.187   0.664  -2.704
  109SOL    HW2  327   1.276   0.623  -2.834
  110SOL     OW  328   0.373   1.517  -0.639
  110SOL    HW1  329   0.367   1.449  -0.566
  110SOL    HW2  330   0.283   1.557  -0.655
  111SOL     OW  331  -2.030   3.150  -5.704
  111SOL    HW1  332  -2.045   3.067  -5.759
  111SOL    HW2  333  -1.987   3.125  -5.617
  112SOL     OW  334  -2.264   2.042  -4.836
  112SOL    HW1  335  -2.298   1.960  -4.789
  112SOL    HW2  336  -2.318   2.057  -4.919
  113SOL     OW  337  -1.265   2.587  -5.350
  113SOL    HW1  338  -1.359   2.616  -5.368
  113SOL    HW2  339  -1.251   2.496  -5.391
  114SOL     OW  340  -1.272   1.083  -6.267
  114SOL    HW1  341  -1.208   1.012  -6.238
  114SOL    HW2  342  -1.359   1.041  -6.293
  115SOL     OW  343  -0.660   1.936  -3.723
  115SOL    HW1  344  -0.600   1.991  -3.665
  115SOL    HW2  345  -0.609   1.857  -3.758
  116SOL     OW  346  -1.671   1.727  -3.440
  116SOL    HW1  347  -1.719   1.815  -3.437
  116SOL    HW2  348  -1.616   1.717  -3.356
  117SOL     OW  349   0.224   1.831  -3.226
  117SOL    HW1  350   0.222   1.882  -3.140
  117SOL    HW2  351   0.130   1.804  -3.251
  118SOL     OW  352  -0.444   3.815  -3.874
  118SOL    HW1  353  -0.441   3.912  -3.898
  118SOL    HW2  354  -0.469   3.762  -3.955
  119SOL     OW  355  -2.113   4.530  -4.489
  119SOL    HW1  356  -2.185   4.594  -4.463
  119SOL    HW2  357  -2.155   4.442  -4.513
  120SOL     OW  358  -2.922   3.803  -5.359
  120SOL    HW1  359  -2.833   3.835  -5.327
  120SOL    HW2  360  -2.915   3.783  -5.457
  121SOL     OW  361  -1.834   1.827  -6.431
  121SOL    HW1  362  -1.886   1.817  -6.346
  121SOL    HW2  363  -1.889   1.880  -6.496
  122SOL     OW  364  -0.301   3.573  -3.167
  122SOL    HW1  365  -0.226   3.633  -3.140
  122SOL    HW2  366  -0.278   3.478  -3.141
  123SOL     OW  367  -0.598   2.912  -3.098
  123SOL    HW1  368  -0.539   2.834  -3.075
  123SOL    HW2  369  -0.663   2.885  -3.170
  124SOL     OW  370  -1.390  -0.092  -3.576
  124SOL    HW1  371  -1.344  -0.004  -3.585
  124SOL    HW2  372  -1.440  -0.113  -3.660
  125SOL     OW  373  -1.368   1.611  -4.754
  125SOL    HW1  374  -1.359   1.629  -4.853
  125SOL    HW2  375  -1.322   1.684  -4.704
  126SOL     OW  376  -0.716   0.230  -3.032
  126SOL    HW1  377  -0.687   0.261  -3.123
  126SOL    HW2  378  -0.808   0.264  -3.013
  127SOL     OW  379  -2.896   2.276  -4.077
  127SOL    HW1  380  -2.891   2.224  -3.990
  127SOL    HW2  381  -2.992   2.300  -4.095
  128SOL     OW  382  -2.253   0.652  -4.538
  128SOL    HW1  383  -2.282   0.713  -4.463
  128SOL    HW2  384  -2.161   0.679  -4.568
  129SOL     OW  385  -2.313   0.954  -5.294
  129SOL    HW1  386  -2.255   0.895  -5.238
  129SOL    HW2  387  -2.259   0.990  -5.370
  130SOL     OW  388  -2.049   0.635  -3.781
  130SOL    HW1  389  -1.958   0.598  -3.798
  130SOL    HW2  390  -2.091   0.587  -3.704
  131SOL     OW  391  -1.422   1.183  -4.393
  131SOL    HW1  392  -1.442   1.107  -4.456
  131SOL    HW2  393  -1.508   1.230  -4.372
  132SOL     OW  394  -0.388   2.717  -3.024
  132SOL    HW1  395  -0.300   2.750  -3.059
  132SOL    HW2  396  -0.395   2.618  -3.042
  133SOL     OW  397  -3.765   3.288  -3.966
  133SOL    HW1  398  -3.839   3.270  -3.901
  133SOL    HW2  399  -3.802   3.334  -4.046
  134SOL     OW  400  -1.415   1.279  -3.456
  134SOL    HW1  401  -1.430   1.209  -3.387
  134SOL    HW2  402  -1.317   1.298  -3.463
  135SOL     OW  403  -2.612   3.844  -5.289
  135SOL    HW1  404  -2.553   3.854  -5.369
  135SOL    HW2  405  -2.581   3.908  -5.218
  136SOL     OW  406  -2.036   2.381  -4.473
  136SOL    HW1  407  -2.134   2.375  -4.451
  136SOL    HW2  408  -2.000   2.466  -4.436
  137SOL     OW  409  -1.736   1.344  -4.054
  137SOL    HW1  410  -1.711   1.334  -4.151
  137SOL    HW2  411  -1.804   1.273  -4.031
  138SOL     OW  412  -1.823   4.267  -4.083
  138SOL    HW1  413  -1.723   4.266  -4.091
  138SOL    HW2  414  -1.862   4.271  -4.175
  139SOL     OW  415  -3.277   3.203  -5.447
  139SOL    HW1  416  -3.319   3.115  -5.422
  139SOL    HW2  417  -3.212   3.188  -5.522
  140SOL     OW  418  -0.137   1.971  -6.114
  140SOL    HW1  419  -0.076   1.892  -6.127
  140SOL    HW2  420  -0.143   2.022  -6.199
  141SOL     OW  421  -1.699   4.220  -5.064
  141SOL    HW1  422  -1.607   4.220  -5.025
  141SOL    HW2  423  -1.699   4.276  -5.147
  142SOL     OW  424  -0.855   0.808  -3.299
  142SOL    HW1  425  -0.834   0.842  -3.391
  142SOL    HW2  426  -0.935   0.856  -3.262
  143SOL     OW  427  -1.317   2.578  -4.581
  143SOL    HW1  428  -1.357   2.527  -4.504
  143SOL    HW2  429  -1.377   2.655  -4.603
  144SOL     OW  430  -0.703   0.206  -3.708
  144SOL    HW1  431  -0.616   0.256  -3.717
  144SOL    HW2  432  -0.684   0.117  -3.668
  145SOL     OW  433  -1.699   1.716  -4.739
  145SOL    HW1  434  -1.789   1.761  -4.746
  145SOL    HW2  435  -1.648   1.735  -4.823
  146SOL     OW  436  -0.474   2.466  -4.974
  146SOL    HW1  437  -0.543   2.494  -4.907
  146SOL    HW2  438  -0.423   2.547  -5.005
  147SOL     OW  439  -3.637   3.382  -5.491
  147SOL    HW1  440  -3.565   3.449  -5.472
  147SOL    HW2  441  -3.659   3.386  -5.589
  148SOL     OW  442  -1.008   2.561  -5.519
  148SOL    HW1  443  -1.054   2.473  -5.531
  148SOL    HW2  444  -1.059   2.615  -5.451
  149SOL     OW  445  -3.049   3.135  -3.894
  149SOL    HW1  446  -2.994   3.057  -3.865
  149SOL    HW2  447  -3.142   3.104  -3.915
  150SOL     OW  448  -0.562   0.593  -4.010
  150SOL    HW1  449  -0.494   0.657  -3.975
  150SOL    HW2  450  -0.586   0.618  -4.104
  151SOL     OW  451  -3.013   1.902  -3.968
  151SOL    HW1  452  -2.977   1.809  -3.960
  151SOL    HW2  453  -2.938   1.964  -3.990
  152SOL     OW  454  -3.258   2.173  -3.429
  152SOL    HW1  455  -3.268   2.232  -3.349
  152SOL    HW2  456  -3.280   2.079  -3.405
  153SOL     OW  457  -0.566   1.302  -4.116
  153SOL    HW1  458  -0.597   1.304  -4.020
  153SOL    HW2  459  -0.593   1.215  -4.157
  154SOL     OW  460  -0.498   1.477  -4.343
  154SOL    HW1  461  -0.572   1.436  -4.397
  154SOL    HW2  462  -0.497   1.433  -4.253
  155SOL     OW  463  -2.413   1.546  -2.802
  155SOL    HW1  464  -2.487   1.547  -2.734
  155SOL    HW2  465  -2.337   1.600  -2.767
  156SOL     OW  466  -0.853   1.766  -3.574
  156SOL    HW1  467  -0.786   1.832  -3.612
  156SOL    HW2  468  -0.909   1.812  -3.505
  157SOL     OW  469  -2.450   0.405  -4.550
  157SOL    HW1  470  -2.537   0.419  -4.502
  157SOL    HW2  471  -2.392   0.487  -4.538
  158SOL     OW  472  -4.419   2.368  -4.026
  158SOL    HW1  473  -4.515   2.373  -3.999
  158SOL    HW2  474  -4.391   2.457  -4.063
  159SOL     OW  475  -2.041   2.181  -6.856
  159SOL    HW1  476  -1.958   2.138  -6.890
  159SOL    HW2  477  -2.069   2.135  -6.771
  160SOL     OW  478  -2.811   1.906  -2.347
  160SOL    HW1  479  -2.714   1.934  -2.349
  160SOL    HW2  480  -2.861   1.966  -2.284
  161SOL     OW  481  -2.206   1.314  -6.189
  161SOL    HW1  482  -2.175   1.346  -6.099
  161SOL    HW2  483  -2.206   1.390  -6.254
  162SOL     OW  484  -2.959   1.945  -4.995
  162SOL    HW1  485  -2.956   2.030  -5.048
  162SOL    HW2  486  -3.021   1.880  -5.041
  163SOL     OW  487  -2.499   4.130  -4.181
  163SOL    HW1  488  -2.415   4.184  -4.171
  163SOL    HW2  489  -2.494   4.051  -4.121
  164SOL     OW  490  -0.216   2.638  -3.820
  164SOL    HW1  491  -0.141   2.700  -3.797
  164SOL    HW2  492  -0.275   2.626  -3.740
  165SOL     OW  493  -0.887   0.711  -4.343
  165SOL    HW1  494  -0.940   0.647  -4.286
  165SOL    HW2  495  -0.859   0.789  -4.286
  166SOL     OW  496  -1.162   2.378  -4.735
  166SOL    HW1  497  -1.225   2.430  -4.676
  166SOL    HW2  498  -1.090   2.440  -4.766
  167SOL     OW  499  -1.887   0.498  -4.681
  167SOL    HW1  500  -1.923   0.584  -4.646
  167SOL    HW2  501  -1.900   0.495  -4.780
  168SOL     OW  502  -0.343   0.545  -4.724
  168SOL    HW1  503  -0.396   0.549  -4.808
  168SOL    HW2  504  -0.340   0.450  -4.692
  169SOL     OW  505  -0.663   1.075  -4.289
  169SOL    HW1  506  -0.690   1.141  -4.359
  169SOL    HW2  507  -0.639   0.988  -4.333
  170SOL     OW  508  -0.227   2.150  -4.391
  170SOL    HW1  509  -0.279   2.082  -4.443
  170SOL    HW2  510  -0.139   2.164  -4.436
  171SOL     OW  511  -0.369   0.237  -3.176
  171SOL    HW1  512  -0.447   0.288  -3.212
  171SOL    HW2  513  -0.396   0.143  -3.157
  172SOL     OW  514  -0.195   0.249  -6.585
  172SOL    HW1  515  -0.262   0.287  -6.649
  172SOL    HW2  516  -0.103   0.260  -6.623
  173SOL     OW  517  -0.707   3.924  -2.702
  173SOL    HW1  518  -0.752   4.011  -2.726
  173SOL    HW2  519  -0.650   3.937  -2.622
  174SOL     OW  520  -3.587   3.741  -4.375
  174SOL    HW1  521  -3.590   3.663  -4.437
  174SOL    HW2  522  -3.663   3.803  -4.397
  175SOL     OW  523  -2.345   0.492  -4.101
  175SOL    HW1  524  -2.275   0.562  -4.086
  175SOL    HW2  525  -2.302   0.409  -4.139
  176SOL     OW  526  -0.659   0.691  -6.488
  176SOL    HW1  527  -0.627   0.772  -6.538
  176SOL    HW2  528  -0.742   0.715  -6.438
  177SOL     OW  529  -0.904   2.650  -5.115
  177SOL    HW1  530  -0.891   2.722  -5.184
  177SOL    HW2  531  -0.856   2.675  -5.031
  178SOL     OW  532  -2.344   1.770  -5.112
  178SOL    HW1  533  -2.404   1.742  -5.037
  178SOL    HW2  534  -2.389   1.842  -5.165
  179SOL     OW  535  -0.544   0.297  -4.048
  179SOL    HW1  536  -0.554   0.396  -4.034
  179SOL    HW2  537  -0.495   0.258  -3.971
  180SOL     OW  538  -2.901   1.719  -2.556
  180SOL    HW1  539  -2.868   1.786  -2.488
  180SOL    HW2  540  -2.929   1.636  -2.509
    7.8897    7.8897    7.8897
