; ITP file created by ByteFF-joint-25, 2026-02-17 09:12:54.949987

[ atomtypes ]
;name           bonded.type        at.num        mass        charge   ptype           sigma         epsilon
 c0bf                                   6      0.0000       0.00000       A     3.39760e-01     4.51227e-01    ;  uncertainty sigma = 0.000012, epsilon = 0.000864
 c1bf                                   6      0.0000       0.00000       A     3.39784e-01     4.51076e-01    ;  uncertainty sigma = 0.000011, epsilon = 0.000821
 c2bf                                   6      0.0000       0.00000       A     3.39747e-01     4.50865e-01    ;  uncertainty sigma = 0.000011, epsilon = 0.000702
 c3bf                                   6      0.0000       0.00000       A     3.39746e-01     4.51244e-01    ;  uncertainty sigma = 0.000036, epsilon = 0.000863
 c4bf                                   6      0.0000       0.00000       A     3.39774e-01     4.51693e-01    ;  uncertainty sigma = 0.000009, epsilon = 0.001676
 c5bf                                   6      0.0000       0.00000       A     3.31532e-01     4.13295e-01    ;  uncertainty sigma = 0.000012, epsilon = 0.000849
 c6bf                                   6      0.0000       0.00000       A     3.31519e-01     4.13329e-01    ;  uncertainty sigma = 0.000002, epsilon = 0.000632
 c7bf                                   6      0.0000       0.00000       A     3.31520e-01     4.13328e-01    ;  uncertainty sigma = 0.000003, epsilon = 0.000582
 c8bf                                   6      0.0000       0.00000       A     3.31518e-01     4.13340e-01    ;  uncertainty sigma = 0.000003, epsilon = 0.000580
 c9bf                                   6      0.0000       0.00000       A     3.31520e-01     4.13328e-01    ;  uncertainty sigma = 0.000003, epsilon = 0.000582
 c10bf                                  6      0.0000       0.00000       A     3.31519e-01     4.13329e-01    ;  uncertainty sigma = 0.000002, epsilon = 0.000632
 n11bf                                  7      0.0000       0.00000       A     3.27909e-01     6.44316e-01    ;  uncertainty sigma = 0.000015, epsilon = 0.004120
 c12bf                                  6      0.0000       0.00000       A     3.31548e-01     4.13221e-01    ;  uncertainty sigma = 0.000016, epsilon = 0.001142
 c13bf                                  6      0.0000       0.00000       A     3.31523e-01     4.13449e-01    ;  uncertainty sigma = 0.000007, epsilon = 0.000483
 c14bf                                  6      0.0000       0.00000       A     3.31522e-01     4.13311e-01    ;  uncertainty sigma = 0.000004, epsilon = 0.000607
 c15bf                                  6      0.0000       0.00000       A     3.31522e-01     4.13179e-01    ;  uncertainty sigma = 0.000006, epsilon = 0.000875
 c16bf                                  6      0.0000       0.00000       A     3.39776e-01     4.50893e-01    ;  uncertainty sigma = 0.000004, epsilon = 0.000480
 c17bf                                  6      0.0000       0.00000       A     3.31531e-01     4.13403e-01    ;  uncertainty sigma = 0.000010, epsilon = 0.000659
 c18bf                                  6      0.0000       0.00000       A     3.31533e-01     4.13512e-01    ;  uncertainty sigma = 0.000014, epsilon = 0.000425
 c19bf                                  6      0.0000       0.00000       A     3.39772e-01     4.50225e-01    ;  uncertainty sigma = 0.000016, epsilon = 0.001417
 o20bf                                  8      0.0000       0.00000       A     3.15596e-01     3.04740e-01    ;  uncertainty sigma = 0.000023, epsilon = 0.001772
 h21bf                                  1      0.0000       0.00000       A     2.42227e-01     8.66833e-02    ;  uncertainty sigma = 0.000023, epsilon = 0.000687
 h22bf                                  1      0.0000       0.00000       A     2.60028e-01     8.66444e-02    ;  uncertainty sigma = 0.000004, epsilon = 0.000700
 h23bf                                  1      0.0000       0.00000       A     2.60028e-01     8.66444e-02    ;  uncertainty sigma = 0.000004, epsilon = 0.000700
 h24bf                                  1      0.0000       0.00000       A     2.60033e-01     8.66495e-02    ;  uncertainty sigma = 0.000008, epsilon = 0.000752
 h25bf                                  1      0.0000       0.00000       A     2.60033e-01     8.66495e-02    ;  uncertainty sigma = 0.000008, epsilon = 0.000752
 h26bf                                  1      0.0000       0.00000       A     2.59938e-01     8.64076e-02    ;  uncertainty sigma = 0.000052, epsilon = 0.000980
 h27bf                                  1      0.0000       0.00000       A     2.42303e-01     8.69597e-02    ;  uncertainty sigma = 0.000074, epsilon = 0.001557
 h28bf                                  1      0.0000       0.00000       A     2.62560e-01     6.70316e-02    ;  uncertainty sigma = 0.000006, epsilon = 0.000529
 h29bf                                  1      0.0000       0.00000       A     2.62559e-01     6.70250e-02    ;  uncertainty sigma = 0.000010, epsilon = 0.000440
 h30bf                                  1      0.0000       0.00000       A     2.62552e-01     6.70645e-02    ;  uncertainty sigma = 0.000011, epsilon = 0.000453
 h31bf                                  1      0.0000       0.00000       A     2.62559e-01     6.70250e-02    ;  uncertainty sigma = 0.000010, epsilon = 0.000440
 h32bf                                  1      0.0000       0.00000       A     2.62560e-01     6.70315e-02    ;  uncertainty sigma = 0.000006, epsilon = 0.000529
 h33bf                                  1      0.0000       0.00000       A     1.10675e-01     4.07500e-02    ;  uncertainty sigma = 0.000109, epsilon = 0.000764
 h34bf                                  1      0.0000       0.00000       A     2.62577e-01     6.70680e-02    ;  uncertainty sigma = 0.000013, epsilon = 0.000535
 h35bf                                  1      0.0000       0.00000       A     2.62555e-01     6.70813e-02    ;  uncertainty sigma = 0.000007, epsilon = 0.000498
 h36bf                                  1      0.0000       0.00000       A     2.60031e-01     8.66807e-02    ;  uncertainty sigma = 0.000008, epsilon = 0.000498
 h37bf                                  1      0.0000       0.00000       A     2.62517e-01     6.71369e-02    ;  uncertainty sigma = 0.000018, epsilon = 0.000457
 h38bf                                  1      0.0000       0.00000       A     2.42261e-01     8.77191e-02    ;  uncertainty sigma = 0.000247, epsilon = 0.001655
 h39bf                                  1      0.0000       0.00000       A     2.60031e-01     8.66807e-02    ;  uncertainty sigma = 0.000008, epsilon = 0.000498
 h40bf                                  1      0.0000       0.00000       A     2.60031e-01     8.66806e-02    ;  uncertainty sigma = 0.000008, epsilon = 0.000498
 h41bf                                  1      0.0000       0.00000       A     2.42227e-01     8.66834e-02    ;  uncertainty sigma = 0.000023, epsilon = 0.000687

[ moleculetype ]
;name             nrexcl
 MOL                   3

[ atoms ]
;       nr            type      resi   res      atom      cgnr      charge          mass ; qtot
         1            c0bf         1   UNL        c0         1     0.13235       12.0110 ; qtot    0.132
         2            c1bf         1   UNL        c1         2    -0.10923       12.0110 ; qtot    0.023
         3            c2bf         1   UNL        c2         3    -0.06734       12.0110 ; qtot   -0.044
         4            c3bf         1   UNL        c3         4    -0.09522       12.0110 ; qtot   -0.139
         5            c4bf         1   UNL        c4         5     0.25861       12.0110 ; qtot    0.119
         6            c5bf         1   UNL        c5         6    -0.10560       12.0110 ; qtot    0.014
         7            c6bf         1   UNL        c6         7    -0.11888       12.0110 ; qtot   -0.105
         8            c7bf         1   UNL        c7         8    -0.13078       12.0110 ; qtot   -0.236
         9            c8bf         1   UNL        c8         9    -0.12452       12.0110 ; qtot   -0.361
        10            c9bf         1   UNL        c9        10    -0.13078       12.0110 ; qtot   -0.491
        11           c10bf         1   UNL       c10        11    -0.11888       12.0110 ; qtot   -0.610
        12           n11bf         1   UNL       n11        12    -0.73726       14.0070 ; qtot   -1.348
        13           c12bf         1   UNL       c12        13     0.14965       12.0110 ; qtot   -1.198
        14           c13bf         1   UNL       c13        14    -0.18684       12.0110 ; qtot   -1.385
        15           c14bf         1   UNL       c14        15    -0.08870       12.0110 ; qtot   -1.473
        16           c15bf         1   UNL       c15        16    -0.11199       12.0110 ; qtot   -1.585
        17           c16bf         1   UNL       c16        17    -0.04383       12.0110 ; qtot   -1.629
        18           c17bf         1   UNL       c17        18    -0.07956       12.0110 ; qtot   -1.709
        19           c18bf         1   UNL       c18        19    -0.14582       12.0110 ; qtot   -1.855
        20           c19bf         1   UNL       c19        20     0.20023       12.0110 ; qtot   -1.654
        21           o20bf         1   UNL       o20        21    -0.41448       15.9990 ; qtot   -2.069
        22           h21bf         1   UNL       h21        22     0.04503        1.0080 ; qtot   -2.024
        23           h22bf         1   UNL       h22        23     0.04980        1.0080 ; qtot   -1.974
        24           h23bf         1   UNL       h23        24     0.04980        1.0080 ; qtot   -1.924
        25           h24bf         1   UNL       h24        25     0.04883        1.0080 ; qtot   -1.875
        26           h25bf         1   UNL       h25        26     0.04883        1.0080 ; qtot   -1.827
        27           h26bf         1   UNL       h26        27     0.06824        1.0080 ; qtot   -1.758
        28           h27bf         1   UNL       h27        28     0.05360        1.0080 ; qtot   -1.705
        29           h28bf         1   UNL       h28        29     0.13512        1.0080 ; qtot   -1.570
        30           h29bf         1   UNL       h29        30     0.13172        1.0080 ; qtot   -1.438
        31           h30bf         1   UNL       h30        31     0.13373        1.0080 ; qtot   -1.304
        32           h31bf         1   UNL       h31        32     0.13172        1.0080 ; qtot   -1.172
        33           h32bf         1   UNL       h32        33     0.13512        1.0080 ; qtot   -1.037
        34           h33bf         1   UNL       h33        34     0.40889        1.0080 ; qtot   -0.628
        35           h34bf         1   UNL       h34        35     0.13000        1.0080 ; qtot   -0.498
        36           h35bf         1   UNL       h35        36     0.13271        1.0080 ; qtot   -0.366
        37           h36bf         1   UNL       h36        37     0.04437        1.0080 ; qtot   -0.321
        38           h37bf         1   UNL       h37        38     0.13293        1.0080 ; qtot   -0.188
        39           h38bf         1   UNL       h38        39     0.05466        1.0080 ; qtot   -0.134
        40           h39bf         1   UNL       h39        40     0.04437        1.0080 ; qtot   -0.089
        41           h40bf         1   UNL       h40        41     0.04437        1.0080 ; qtot   -0.045
        42           h41bf         1   UNL       h41        42     0.04503        1.0080 ; qtot   -0.000

[ bonds ]
;       ai        aj funct               r               k
         1         2     1        0.153178   212664.543018    ;  uncertainty r = 0.000056, k = 6.267573
         1        21     1        0.143168   244780.880029    ;  uncertainty r = 0.000065, k = 3.739020
         1        22     1        0.109789   309021.164111    ;  uncertainty r = 0.000034, k = 2.302425
         1        42     1        0.109789   309021.164111    ;  uncertainty r = 0.000034, k = 2.302428
         2         3     1        0.153534   217236.758154    ;  uncertainty r = 0.000050, k = 3.270363
         2        23     1        0.109705   309216.752832    ;  uncertainty r = 0.000022, k = 1.341908
         2        24     1        0.109705   309216.752832    ;  uncertainty r = 0.000022, k = 1.341908
         3         4     1        0.153450   203518.772046    ;  uncertainty r = 0.000107, k = 7.150166
         3        25     1        0.109614   307449.482715    ;  uncertainty r = 0.000015, k = 1.009316
         3        26     1        0.109614   307449.482715    ;  uncertainty r = 0.000015, k = 1.009316
         4         5     1        0.153775   193986.254321    ;  uncertainty r = 0.000050, k = 9.381612
         4        20     1        0.153627   195602.536279    ;  uncertainty r = 0.000088, k = 12.969366
         4        27     1        0.109725   307252.846973    ;  uncertainty r = 0.000064, k = 4.562684
         5         6     1        0.151697   221951.776807    ;  uncertainty r = 0.000088, k = 6.014261
         5        12     1        0.146438   246437.395703    ;  uncertainty r = 0.000120, k = 17.715154
         5        28     1        0.110060   298327.116504    ;  uncertainty r = 0.000134, k = 4.183467
         6         7     1        0.139859   350947.632764    ;  uncertainty r = 0.000040, k = 0.862455
         6        11     1        0.139859   350947.632764    ;  uncertainty r = 0.000040, k = 0.862455
         7         8     1        0.139620   365997.698340    ;  uncertainty r = 0.000023, k = 1.204469
         7        29     1        0.108883   334327.852148    ;  uncertainty r = 0.000023, k = 0.510247
         8         9     1        0.139607   371240.926563    ;  uncertainty r = 0.000016, k = 0.703150
         8        30     1        0.108851   333986.931738    ;  uncertainty r = 0.000010, k = 1.017328
         9        10     1        0.139607   371240.926563    ;  uncertainty r = 0.000016, k = 0.703150
         9        31     1        0.108841   334518.920801    ;  uncertainty r = 0.000012, k = 0.635620
        10        11     1        0.139620   365997.698340    ;  uncertainty r = 0.000023, k = 1.204462
        10        32     1        0.108851   333986.931738    ;  uncertainty r = 0.000010, k = 1.017333
        11        33     1        0.108883   334327.852148    ;  uncertainty r = 0.000023, k = 0.510237
        12        13     1        0.139955   343991.451855    ;  uncertainty r = 0.000126, k = 9.082280
        12        34     1        0.101439   412844.274170    ;  uncertainty r = 0.000047, k = 2.472846
        13        14     1        0.140670   369338.514062    ;  uncertainty r = 0.000078, k = 9.455618
        13        19     1        0.140669   348802.438965    ;  uncertainty r = 0.000142, k = 29.427722
        14        15     1        0.139253   373653.800342    ;  uncertainty r = 0.000055, k = 7.556870
        14        35     1        0.108946   337108.919971    ;  uncertainty r = 0.000018, k = 1.526438
        15        16     1        0.140315   348340.728027    ;  uncertainty r = 0.000067, k = 5.070815
        15        36     1        0.108825   334486.309912    ;  uncertainty r = 0.000018, k = 1.265961
        16        17     1        0.151196   253260.196289    ;  uncertainty r = 0.000009, k = 6.039110
        16        18     1        0.140016   351798.656934    ;  uncertainty r = 0.000063, k = 6.260607
        17        37     1        0.109532   307941.761572    ;  uncertainty r = 0.000003, k = 1.008973
        17        40     1        0.109532   307941.761572    ;  uncertainty r = 0.000003, k = 1.008973
        17        41     1        0.109532   307941.761572    ;  uncertainty r = 0.000003, k = 1.008973
        18        19     1        0.139608   354809.124609    ;  uncertainty r = 0.000101, k = 5.981091
        18        38     1        0.108897   335356.359229    ;  uncertainty r = 0.000050, k = 2.136454
        19        20     1        0.151214   219572.816309    ;  uncertainty r = 0.000143, k = 8.100313
        20        21     1        0.143377   228456.946826    ;  uncertainty r = 0.000155, k = 7.247626
        20        39     1        0.110152   303302.128467    ;  uncertainty r = 0.000111, k = 3.228037

[ angles ]
;       ai        aj        ak funct           theta             cth
         1         2         3     1      108.895340      622.021865    ;  uncertainty theta = 0.003135, k = 0.047303
         1         2        23     1      108.338806      394.557916    ;  uncertainty theta = 0.002162, k = 0.073352
         1         2        24     1      108.338806      394.557916    ;  uncertainty theta = 0.002162, k = 0.073352
         1        21        20     1      110.401779      532.300200    ;  uncertainty theta = 0.004560, k = 0.182598
         2         1        21     1      110.976479      700.365439    ;  uncertainty theta = 0.002752, k = 0.153829
         2         1        22     1      110.168640      413.776187    ;  uncertainty theta = 0.002719, k = 0.093986
         2         1        42     1      110.168640      413.776187    ;  uncertainty theta = 0.002719, k = 0.093986
         2         3         4     1      109.502563      587.733380    ;  uncertainty theta = 0.002573, k = 0.134699
         2         3        25     1      108.974266      411.308600    ;  uncertainty theta = 0.001957, k = 0.092227
         2         3        26     1      108.974266      411.308600    ;  uncertainty theta = 0.001957, k = 0.092227
         3         2        23     1      109.084801      397.643278    ;  uncertainty theta = 0.001279, k = 0.048915
         3         2        24     1      109.084801      397.643278    ;  uncertainty theta = 0.001279, k = 0.048915
         3         4         5     1      110.662064      548.758516    ;  uncertainty theta = 0.001783, k = 0.181753
         3         4        20     1      110.013840      581.632437    ;  uncertainty theta = 0.002884, k = 0.110911
         3         4        27     1      108.075058      401.656435    ;  uncertainty theta = 0.003574, k = 0.096487
         4         3        25     1      108.080505      388.508877    ;  uncertainty theta = 0.001259, k = 0.065298
         4         3        26     1      108.080505      388.508877    ;  uncertainty theta = 0.001259, k = 0.065298
         4         5         6     1      111.684738      537.747170    ;  uncertainty theta = 0.002445, k = 0.172939
         4         5        12     1      108.406204      703.811481    ;  uncertainty theta = 0.004330, k = 0.112192
         4         5        28     1      107.096603      385.327464    ;  uncertainty theta = 0.002709, k = 0.129526
         4        20        19     1      111.603348      550.334283    ;  uncertainty theta = 0.004746, k = 0.163869
         4        20        21     1      111.093277      674.279729    ;  uncertainty theta = 0.004074, k = 0.049561
         4        20        39     1      107.638184      392.202182    ;  uncertainty theta = 0.004453, k = 0.127156
         5         4        20     1      109.651932      551.497435    ;  uncertainty theta = 0.004304, k = 0.142859
         5         4        27     1      105.898926      389.294941    ;  uncertainty theta = 0.001455, k = 0.097738
         5         6         7     1      119.922928      425.651326    ;  uncertainty theta = 0.003113, k = 0.143043
         5         6        11     1      119.922928      425.651326    ;  uncertainty theta = 0.003113, k = 0.143043
         5        12        13     1      114.218887      391.657475    ;  uncertainty theta = 0.007311, k = 0.149022
         5        12        34     1      110.064499      352.462577    ;  uncertainty theta = 0.003551, k = 0.095281
         6         5        12     1      111.031082      663.623157    ;  uncertainty theta = 0.001203, k = 0.168660
         6         5        28     1      106.340919      410.762138    ;  uncertainty theta = 0.002105, k = 0.098132
         6         7         8     1      121.166641      520.322945    ;  uncertainty theta = 0.001889, k = 0.047519
         6         7        29     1      118.895851      266.730032    ;  uncertainty theta = 0.002264, k = 0.064094
         6        11        10     1      121.166641      520.322945    ;  uncertainty theta = 0.001889, k = 0.047519
         6        11        33     1      118.895851      266.730000    ;  uncertainty theta = 0.002264, k = 0.064094
         7         6        11     1      120.206970      460.017476    ;  uncertainty theta = 0.003029, k = 0.098153
         7         8         9     1      119.685776      513.267201    ;  uncertainty theta = 0.000971, k = 0.012607
         7         8        30     1      120.211227      283.897577    ;  uncertainty theta = 0.001315, k = 0.018227
         8         7        29     1      120.235497      292.477216    ;  uncertainty theta = 0.001696, k = 0.031107
         8         9        10     1      118.246803      526.555213    ;  uncertainty theta = 0.000903, k = 0.024014
         8         9        31     1      120.647278      289.320797    ;  uncertainty theta = 0.001403, k = 0.006566
         9         8        30     1      120.620949      287.638764    ;  uncertainty theta = 0.001444, k = 0.012508
         9        10        11     1      119.685776      513.267201    ;  uncertainty theta = 0.000971, k = 0.012607
         9        10        32     1      120.620949      287.638700    ;  uncertainty theta = 0.001444, k = 0.012507
        10         9        31     1      120.647278      289.320829    ;  uncertainty theta = 0.001403, k = 0.006566
        10        11        33     1      120.235497      292.477280    ;  uncertainty theta = 0.001696, k = 0.031107
        11        10        32     1      120.211227      283.897577    ;  uncertainty theta = 0.001315, k = 0.018227
        12         5        28     1      107.894577      455.839254    ;  uncertainty theta = 0.003753, k = 0.115430
        12        13        14     1      123.166649      573.716380    ;  uncertainty theta = 0.004170, k = 0.123113
        12        13        19     1      122.236183      496.124172    ;  uncertainty theta = 0.010304, k = 0.199816
        13        12        34     1      111.105759      386.782760    ;  uncertainty theta = 0.005516, k = 0.186771
        13        14        15     1      119.955765      511.603203    ;  uncertainty theta = 0.002428, k = 0.070765
        13        14        35     1      118.985596      278.428486    ;  uncertainty theta = 0.003938, k = 0.180107
        13        19        18     1      120.051437      460.054281    ;  uncertainty theta = 0.004789, k = 0.168887
        13        19        20     1      120.416649      352.118273    ;  uncertainty theta = 0.009447, k = 0.466438
        14        13        19     1      119.024193      382.509189    ;  uncertainty theta = 0.005195, k = 0.189273
        14        15        16     1      121.394180      525.759732    ;  uncertainty theta = 0.001569, k = 0.103870
        14        15        36     1      119.651085      289.066352    ;  uncertainty theta = 0.001426, k = 0.043833
        15        14        35     1      121.039223      289.637011    ;  uncertainty theta = 0.001803, k = 0.086431
        15        16        17     1      120.924377      437.766833    ;  uncertainty theta = 0.000721, k = 0.082469
        15        16        18     1      118.385056      468.267335    ;  uncertainty theta = 0.001251, k = 0.140270
        16        15        36     1      119.411293      280.982005    ;  uncertainty theta = 0.001126, k = 0.037643
        16        17        37     1      110.009705      396.419891    ;  uncertainty theta = 0.001112, k = 0.009224
        16        17        40     1      110.009705      396.419891    ;  uncertainty theta = 0.001112, k = 0.009224
        16        17        41     1      110.009705      396.419891    ;  uncertainty theta = 0.001112, k = 0.009224
        16        18        19     1      123.841820      515.056427    ;  uncertainty theta = 0.003295, k = 0.087780
        16        18        38     1      118.942665      281.052903    ;  uncertainty theta = 0.001195, k = 0.076378
        17        16        18     1      120.563148      426.056025    ;  uncertainty theta = 0.001890, k = 0.123619
        18        19        20     1      119.465408      410.561544    ;  uncertainty theta = 0.003140, k = 0.180128
        19        18        38     1      117.852272      269.834546    ;  uncertainty theta = 0.003551, k = 0.112924
        19        20        21     1      109.387405      665.112865    ;  uncertainty theta = 0.004588, k = 0.332785
        19        20        39     1      108.437355      393.020774    ;  uncertainty theta = 0.004596, k = 0.104205
        20         4        27     1      106.469582      399.712231    ;  uncertainty theta = 0.003053, k = 0.096959
        21         1        22     1      107.002457      457.051022    ;  uncertainty theta = 0.002563, k = 0.135517
        21         1        42     1      107.002457      457.051022    ;  uncertainty theta = 0.002563, k = 0.135517
        21        20        39     1      106.434341      440.799812    ;  uncertainty theta = 0.004574, k = 0.148273
        22         1        42     1      106.657860      326.870818    ;  uncertainty theta = 0.001578, k = 0.083868
        23         2        24     1      104.879089      311.636177    ;  uncertainty theta = 0.001144, k = 0.054355
        25         3        26     1      104.421707      316.120302    ;  uncertainty theta = 0.002040, k = 0.027811
        37        17        40     1      106.734901      316.985499    ;  uncertainty theta = 0.001102, k = 0.010165
        37        17        41     1      106.734901      316.985499    ;  uncertainty theta = 0.001102, k = 0.010165
        40        17        41     1      106.734901      316.985499    ;  uncertainty theta = 0.001102, k = 0.010164

[ dihedrals ] ; propers for gromacs 4.5 or higher, use funct 9
;       ai        aj        ak        al funct           phase               k        pn
         1         2         3         4     9        0.000000       -5.960723         1    ;  uncertainty k = 1.129846
         1         2         3         4     9      180.000000       -0.066991         2    ;  uncertainty k = 0.851798
         1         2         3         4     9        0.000000        1.295417         3    ;  uncertainty k = 0.243440
         1         2         3         4     9      180.000000       -0.987254         4    ;  uncertainty k = 0.110698
         1         2         3        25     9        0.000000       -1.379072         1    ;  uncertainty k = 0.539158
         1         2         3        25     9      180.000000       -0.451202         2    ;  uncertainty k = 0.251638
         1         2         3        25     9        0.000000        0.450841         3    ;  uncertainty k = 0.147828
         1         2         3        25     9      180.000000        0.054342         4    ;  uncertainty k = 0.041244
         1         2         3        26     9        0.000000       -1.379072         1    ;  uncertainty k = 0.539158
         1         2         3        26     9      180.000000       -0.451202         2    ;  uncertainty k = 0.251638
         1         2         3        26     9        0.000000        0.450841         3    ;  uncertainty k = 0.147828
         1         2         3        26     9      180.000000        0.054342         4    ;  uncertainty k = 0.041244
         1        21        20         4     9        0.000000        3.388590         1    ;  uncertainty k = 1.678271
         1        21        20         4     9      180.000000       -1.838025         2    ;  uncertainty k = 0.753843
         1        21        20         4     9        0.000000        0.451292         3    ;  uncertainty k = 0.320365
         1        21        20         4     9      180.000000       -0.116878         4    ;  uncertainty k = 0.181907
         1        21        20        19     9        0.000000       -2.852127         1    ;  uncertainty k = 1.229958
         1        21        20        19     9      180.000000       -0.588526         2    ;  uncertainty k = 0.450701
         1        21        20        19     9        0.000000        1.008064         3    ;  uncertainty k = 0.599533
         1        21        20        19     9      180.000000       -0.065643         4    ;  uncertainty k = 0.125006
         1        21        20        39     9        0.000000       -1.927134         1    ;  uncertainty k = 0.661961
         1        21        20        39     9      180.000000       -0.668882         2    ;  uncertainty k = 0.415433
         1        21        20        39     9        0.000000        0.507916         3    ;  uncertainty k = 0.022180
         1        21        20        39     9      180.000000       -0.094004         4    ;  uncertainty k = 0.161652
         2         1        21        20     9        0.000000       -1.126436         1    ;  uncertainty k = 2.457227
         2         1        21        20     9      180.000000       -0.873610         2    ;  uncertainty k = 1.147945
         2         1        21        20     9        0.000000        0.501839         3    ;  uncertainty k = 0.360692
         2         1        21        20     9      180.000000       -0.008709         4    ;  uncertainty k = 0.156777
         2         3         4         5     9        0.000000       -3.543793         1    ;  uncertainty k = 0.641310
         2         3         4         5     9      180.000000        0.034259         2    ;  uncertainty k = 0.234206
         2         3         4         5     9        0.000000        1.223461         3    ;  uncertainty k = 0.125430
         2         3         4         5     9      180.000000       -0.579065         4    ;  uncertainty k = 0.190477
         2         3         4        20     9        0.000000       -3.633295         1    ;  uncertainty k = 0.319439
         2         3         4        20     9      180.000000        0.033972         2    ;  uncertainty k = 0.526049
         2         3         4        20     9        0.000000        1.108029         3    ;  uncertainty k = 0.235192
         2         3         4        20     9      180.000000       -0.828262         4    ;  uncertainty k = 0.113799
         2         3         4        27     9        0.000000       -2.362528         1    ;  uncertainty k = 0.524245
         2         3         4        27     9      180.000000        0.198729         2    ;  uncertainty k = 0.350955
         2         3         4        27     9        0.000000        0.081587         3    ;  uncertainty k = 0.053915
         2         3         4        27     9      180.000000       -0.090244         4    ;  uncertainty k = 0.068934
         3         2         1        21     9        0.000000       -2.462346         1    ;  uncertainty k = 0.959865
         3         2         1        21     9      180.000000       -1.583772         2    ;  uncertainty k = 0.556788
         3         2         1        21     9        0.000000        1.769043         3    ;  uncertainty k = 0.448300
         3         2         1        21     9      180.000000       -0.736933         4    ;  uncertainty k = 0.190753
         3         2         1        22     9        0.000000        2.252522         1    ;  uncertainty k = 0.656911
         3         2         1        22     9      180.000000       -2.521926         2    ;  uncertainty k = 0.482515
         3         2         1        22     9        0.000000       -0.008396         3    ;  uncertainty k = 0.267409
         3         2         1        22     9      180.000000        0.355114         4    ;  uncertainty k = 0.102352
         3         2         1        42     9        0.000000        2.252520         1    ;  uncertainty k = 0.656910
         3         2         1        42     9      180.000000       -2.521926         2    ;  uncertainty k = 0.482515
         3         2         1        42     9        0.000000       -0.008396         3    ;  uncertainty k = 0.267409
         3         2         1        42     9      180.000000        0.355114         4    ;  uncertainty k = 0.102352
         3         4         5         6     9        0.000000       -0.406374         1    ;  uncertainty k = 0.473051
         3         4         5         6     9      180.000000        0.036901         2    ;  uncertainty k = 0.234606
         3         4         5         6     9        0.000000        1.027766         3    ;  uncertainty k = 0.147559
         3         4         5         6     9      180.000000       -0.029346         4    ;  uncertainty k = 0.079907
         3         4         5        12     9        0.000000       -2.783250         1    ;  uncertainty k = 0.505330
         3         4         5        12     9      180.000000        0.438065         2    ;  uncertainty k = 0.417670
         3         4         5        12     9        0.000000        1.222477         3    ;  uncertainty k = 0.208671
         3         4         5        12     9      180.000000       -0.339983         4    ;  uncertainty k = 0.257950
         3         4         5        28     9        0.000000       -0.238972         1    ;  uncertainty k = 0.481687
         3         4         5        28     9      180.000000       -0.275680         2    ;  uncertainty k = 0.120336
         3         4         5        28     9        0.000000        0.098399         3    ;  uncertainty k = 0.164306
         3         4         5        28     9      180.000000       -0.128291         4    ;  uncertainty k = 0.081373
         3         4        20        19     9        0.000000       -1.441386         1    ;  uncertainty k = 1.060406
         3         4        20        19     9      180.000000       -1.078680         2    ;  uncertainty k = 0.280375
         3         4        20        19     9        0.000000        0.692586         3    ;  uncertainty k = 0.202482
         3         4        20        19     9      180.000000       -0.208154         4    ;  uncertainty k = 0.172461
         3         4        20        21     9        0.000000       -0.879172         1    ;  uncertainty k = 0.686606
         3         4        20        21     9      180.000000       -2.100558         2    ;  uncertainty k = 0.902973
         3         4        20        21     9        0.000000        0.990223         3    ;  uncertainty k = 0.204771
         3         4        20        21     9      180.000000       -0.053501         4    ;  uncertainty k = 0.198396
         3         4        20        39     9        0.000000        0.428060         1    ;  uncertainty k = 0.593863
         3         4        20        39     9      180.000000       -0.436216         2    ;  uncertainty k = 0.452541
         3         4        20        39     9        0.000000       -0.125730         3    ;  uncertainty k = 0.077116
         3         4        20        39     9      180.000000       -0.034355         4    ;  uncertainty k = 0.119269
         4         3         2        23     9        0.000000       -0.717907         1    ;  uncertainty k = 0.220493
         4         3         2        23     9      180.000000       -0.691482         2    ;  uncertainty k = 0.154270
         4         3         2        23     9        0.000000        0.379075         3    ;  uncertainty k = 0.122250
         4         3         2        23     9      180.000000       -0.036404         4    ;  uncertainty k = 0.118047
         4         3         2        24     9        0.000000       -0.717907         1    ;  uncertainty k = 0.220493
         4         3         2        24     9      180.000000       -0.691482         2    ;  uncertainty k = 0.154270
         4         3         2        24     9        0.000000        0.379075         3    ;  uncertainty k = 0.122250
         4         3         2        24     9      180.000000       -0.036404         4    ;  uncertainty k = 0.118047
         4         5         6         7     9        0.000000       -0.085606         1    ;  uncertainty k = 0.702801
         4         5         6         7     9      180.000000        1.829115         2    ;  uncertainty k = 0.212084
         4         5         6         7     9        0.000000        0.272952         3    ;  uncertainty k = 0.144900
         4         5         6         7     9      180.000000        0.245277         4    ;  uncertainty k = 0.079885
         4         5         6        11     9        0.000000       -0.085606         1    ;  uncertainty k = 0.702801
         4         5         6        11     9      180.000000        1.829115         2    ;  uncertainty k = 0.212084
         4         5         6        11     9        0.000000        0.272952         3    ;  uncertainty k = 0.144900
         4         5         6        11     9      180.000000        0.245277         4    ;  uncertainty k = 0.079885
         4         5        12        13     9        0.000000        0.712937         1    ;  uncertainty k = 1.189147
         4         5        12        13     9      180.000000        0.249799         2    ;  uncertainty k = 0.579127
         4         5        12        13     9        0.000000        0.367477         3    ;  uncertainty k = 0.262399
         4         5        12        13     9      180.000000        0.145776         4    ;  uncertainty k = 0.151620
         4         5        12        34     9        0.000000        3.571115         1    ;  uncertainty k = 1.003455
         4         5        12        34     9      180.000000       -1.806822         2    ;  uncertainty k = 1.326345
         4         5        12        34     9        0.000000        0.472680         3    ;  uncertainty k = 0.291919
         4         5        12        34     9      180.000000       -0.015407         4    ;  uncertainty k = 0.076165
         4        20        19        13     9        0.000000        0.341240         1    ;  uncertainty k = 2.586157
         4        20        19        13     9      180.000000       -0.481421         2    ;  uncertainty k = 1.557658
         4        20        19        13     9        0.000000        0.151784         3    ;  uncertainty k = 0.580778
         4        20        19        13     9      180.000000        0.698619         4    ;  uncertainty k = 0.221480
         4        20        19        18     9        0.000000       -1.758793         1    ;  uncertainty k = 0.813360
         4        20        19        18     9      180.000000       -0.176709         2    ;  uncertainty k = 0.579485
         4        20        19        18     9        0.000000       -0.224919         3    ;  uncertainty k = 0.183857
         4        20        19        18     9      180.000000        0.418278         4    ;  uncertainty k = 0.142983
         5         4         3        25     9        0.000000        0.040886         1    ;  uncertainty k = 0.359303
         5         4         3        25     9      180.000000       -0.595488         2    ;  uncertainty k = 0.243962
         5         4         3        25     9        0.000000        0.532825         3    ;  uncertainty k = 0.094810
         5         4         3        25     9      180.000000       -0.045473         4    ;  uncertainty k = 0.102307
         5         4         3        26     9        0.000000        0.040886         1    ;  uncertainty k = 0.359303
         5         4         3        26     9      180.000000       -0.595488         2    ;  uncertainty k = 0.243962
         5         4         3        26     9        0.000000        0.532825         3    ;  uncertainty k = 0.094810
         5         4         3        26     9      180.000000       -0.045473         4    ;  uncertainty k = 0.102307
         5         4        20        19     9        0.000000        1.268982         1    ;  uncertainty k = 1.299316
         5         4        20        19     9      180.000000       -2.401028         2    ;  uncertainty k = 0.293052
         5         4        20        19     9        0.000000        0.319132         3    ;  uncertainty k = 0.254982
         5         4        20        19     9      180.000000       -0.096685         4    ;  uncertainty k = 0.146187
         5         4        20        21     9        0.000000       -0.422334         1    ;  uncertainty k = 1.312567
         5         4        20        21     9      180.000000       -3.875948         2    ;  uncertainty k = 1.342743
         5         4        20        21     9        0.000000        0.771066         3    ;  uncertainty k = 0.285645
         5         4        20        21     9      180.000000        0.107935         4    ;  uncertainty k = 0.253524
         5         4        20        39     9        0.000000        0.930344         1    ;  uncertainty k = 0.938708
         5         4        20        39     9      180.000000       -1.095377         2    ;  uncertainty k = 0.534073
         5         4        20        39     9        0.000000       -0.212755         3    ;  uncertainty k = 0.060472
         5         4        20        39     9      180.000000       -0.003395         4    ;  uncertainty k = 0.190477
         5         6         7         8     9        0.000000        0.312413         1    ;  uncertainty k = 0.242918
         5         6         7         8     9      180.000000        8.638334         2    ;  uncertainty k = 0.468596
         5         6         7         8     9        0.000000        1.448800         3    ;  uncertainty k = 0.340804
         5         6         7         8     9      180.000000        1.905016         4    ;  uncertainty k = 0.200484
         5         6         7        29     9        0.000000        0.035752         1    ;  uncertainty k = 0.305800
         5         6         7        29     9      180.000000        7.827037         2    ;  uncertainty k = 0.268347
         5         6         7        29     9        0.000000        0.557555         3    ;  uncertainty k = 0.370059
         5         6         7        29     9      180.000000        0.865304         4    ;  uncertainty k = 0.172707
         5         6        11        10     9        0.000000        0.312413         1    ;  uncertainty k = 0.242918
         5         6        11        10     9      180.000000        8.638334         2    ;  uncertainty k = 0.468596
         5         6        11        10     9        0.000000        1.448800         3    ;  uncertainty k = 0.340804
         5         6        11        10     9      180.000000        1.905016         4    ;  uncertainty k = 0.200484
         5         6        11        33     9        0.000000        0.035753         1    ;  uncertainty k = 0.305801
         5         6        11        33     9      180.000000        7.827039         2    ;  uncertainty k = 0.268348
         5         6        11        33     9        0.000000        0.557555         3    ;  uncertainty k = 0.370060
         5         6        11        33     9      180.000000        0.865304         4    ;  uncertainty k = 0.172707
         5        12        13        14     9        0.000000        0.710109         1    ;  uncertainty k = 0.781527
         5        12        13        14     9      180.000000        3.563197         2    ;  uncertainty k = 1.026249
         5        12        13        14     9        0.000000        0.410895         3    ;  uncertainty k = 0.514723
         5        12        13        14     9      180.000000        0.413732         4    ;  uncertainty k = 0.250601
         5        12        13        19     9        0.000000        4.350922         1    ;  uncertainty k = 1.904847
         5        12        13        19     9      180.000000        1.608453         2    ;  uncertainty k = 0.840248
         5        12        13        19     9        0.000000        0.024594         3    ;  uncertainty k = 0.386813
         5        12        13        19     9      180.000000        0.727574         4    ;  uncertainty k = 0.252563
         6         5         4        20     9        0.000000       -0.654321         1    ;  uncertainty k = 0.889158
         6         5         4        20     9      180.000000       -0.389001         2    ;  uncertainty k = 0.407761
         6         5         4        20     9        0.000000        0.408005         3    ;  uncertainty k = 0.201861
         6         5         4        20     9      180.000000       -0.026146         4    ;  uncertainty k = 0.153196
         6         5         4        27     9        0.000000        0.510067         1    ;  uncertainty k = 0.242738
         6         5         4        27     9      180.000000        0.127609         2    ;  uncertainty k = 0.589996
         6         5         4        27     9        0.000000        0.445091         3    ;  uncertainty k = 0.075779
         6         5         4        27     9      180.000000       -0.031899         4    ;  uncertainty k = 0.107803
         6         5        12        13     9        0.000000       -1.240810         1    ;  uncertainty k = 0.913860
         6         5        12        13     9      180.000000        0.100980         2    ;  uncertainty k = 0.285956
         6         5        12        13     9        0.000000        1.048824         3    ;  uncertainty k = 0.262246
         6         5        12        13     9      180.000000        0.199554         4    ;  uncertainty k = 0.098576
         6         5        12        34     9        0.000000        4.878358         1    ;  uncertainty k = 0.569249
         6         5        12        34     9      180.000000       -1.058872         2    ;  uncertainty k = 0.283859
         6         5        12        34     9        0.000000        0.413858         3    ;  uncertainty k = 0.297007
         6         5        12        34     9      180.000000       -0.032690         4    ;  uncertainty k = 0.182555
         6         7         8         9     9        0.000000       -0.073185         1    ;  uncertainty k = 0.135863
         6         7         8         9     9      180.000000       13.840581         2    ;  uncertainty k = 0.218470
         6         7         8         9     9        0.000000       -0.942124         3    ;  uncertainty k = 0.500159
         6         7         8         9     9      180.000000        0.720226         4    ;  uncertainty k = 0.249573
         6         7         8        30     9        0.000000        0.078938         1    ;  uncertainty k = 0.238410
         6         7         8        30     9      180.000000        7.523903         2    ;  uncertainty k = 0.411008
         6         7         8        30     9        0.000000        1.486224         3    ;  uncertainty k = 0.266909
         6         7         8        30     9      180.000000        1.791253         4    ;  uncertainty k = 0.130361
         6        11        10         9     9        0.000000       -0.073185         1    ;  uncertainty k = 0.135863
         6        11        10         9     9      180.000000       13.840581         2    ;  uncertainty k = 0.218470
         6        11        10         9     9        0.000000       -0.942124         3    ;  uncertainty k = 0.500159
         6        11        10         9     9      180.000000        0.720226         4    ;  uncertainty k = 0.249573
         6        11        10        32     9        0.000000        0.078938         1    ;  uncertainty k = 0.238410
         6        11        10        32     9      180.000000        7.523903         2    ;  uncertainty k = 0.411008
         6        11        10        32     9        0.000000        1.486224         3    ;  uncertainty k = 0.266909
         6        11        10        32     9      180.000000        1.791253         4    ;  uncertainty k = 0.130361
         7         6         5        12     9        0.000000       -0.590756         1    ;  uncertainty k = 0.525590
         7         6         5        12     9      180.000000        2.732820         2    ;  uncertainty k = 0.257489
         7         6         5        12     9        0.000000        0.629229         3    ;  uncertainty k = 0.228491
         7         6         5        12     9      180.000000        0.435378         4    ;  uncertainty k = 0.023802
         7         6         5        28     9        0.000000       -0.618195         1    ;  uncertainty k = 0.243536
         7         6         5        28     9      180.000000        2.285545         2    ;  uncertainty k = 0.337301
         7         6         5        28     9        0.000000        0.482603         3    ;  uncertainty k = 0.112818
         7         6         5        28     9      180.000000        0.236140         4    ;  uncertainty k = 0.049741
         7         6        11        10     9        0.000000       -0.244750         1    ;  uncertainty k = 0.085030
         7         6        11        10     9      180.000000       11.550238         2    ;  uncertainty k = 0.281782
         7         6        11        10     9        0.000000       -0.471965         3    ;  uncertainty k = 0.307308
         7         6        11        10     9      180.000000        0.819629         4    ;  uncertainty k = 0.339588
         7         6        11        33     9        0.000000        0.103785         1    ;  uncertainty k = 0.115164
         7         6        11        33     9      180.000000        7.232566         2    ;  uncertainty k = 0.479326
         7         6        11        33     9        0.000000        1.441609         3    ;  uncertainty k = 0.358039
         7         6        11        33     9      180.000000        1.626932         4    ;  uncertainty k = 0.180627
         7         8         9        10     9        0.000000        0.003338         1    ;  uncertainty k = 0.036528
         7         8         9        10     9      180.000000       15.061872         2    ;  uncertainty k = 0.266781
         7         8         9        10     9        0.000000       -1.241530         3    ;  uncertainty k = 0.510933
         7         8         9        10     9      180.000000        0.486539         4    ;  uncertainty k = 0.300059
         7         8         9        31     9        0.000000        0.055743         1    ;  uncertainty k = 0.094833
         7         8         9        31     9      180.000000        7.490470         2    ;  uncertainty k = 0.333390
         7         8         9        31     9        0.000000        1.467122         3    ;  uncertainty k = 0.292765
         7         8         9        31     9      180.000000        1.797081         4    ;  uncertainty k = 0.179699
         8         7         6        11     9        0.000000       -0.244750         1    ;  uncertainty k = 0.085030
         8         7         6        11     9      180.000000       11.550238         2    ;  uncertainty k = 0.281782
         8         7         6        11     9        0.000000       -0.471965         3    ;  uncertainty k = 0.307308
         8         7         6        11     9      180.000000        0.819629         4    ;  uncertainty k = 0.339588
         8         9        10        11     9        0.000000        0.003338         1    ;  uncertainty k = 0.036528
         8         9        10        11     9      180.000000       15.061872         2    ;  uncertainty k = 0.266781
         8         9        10        11     9        0.000000       -1.241530         3    ;  uncertainty k = 0.510933
         8         9        10        11     9      180.000000        0.486539         4    ;  uncertainty k = 0.300059
         8         9        10        32     9        0.000000        0.045944         1    ;  uncertainty k = 0.040456
         8         9        10        32     9      180.000000        7.527538         2    ;  uncertainty k = 0.325490
         8         9        10        32     9        0.000000        1.433628         3    ;  uncertainty k = 0.327115
         8         9        10        32     9      180.000000        1.790207         4    ;  uncertainty k = 0.158460
         9         8         7        29     9        0.000000        0.053110         1    ;  uncertainty k = 0.076537
         9         8         7        29     9      180.000000        7.946075         2    ;  uncertainty k = 0.338883
         9         8         7        29     9        0.000000        1.427769         3    ;  uncertainty k = 0.326159
         9         8         7        29     9      180.000000        1.836126         4    ;  uncertainty k = 0.159402
         9        10        11        33     9        0.000000        0.053110         1    ;  uncertainty k = 0.076538
         9        10        11        33     9      180.000000        7.946075         2    ;  uncertainty k = 0.338884
         9        10        11        33     9        0.000000        1.427770         3    ;  uncertainty k = 0.326160
         9        10        11        33     9      180.000000        1.836126         4    ;  uncertainty k = 0.159402
        10         9         8        30     9        0.000000        0.045944         1    ;  uncertainty k = 0.040456
        10         9         8        30     9      180.000000        7.527538         2    ;  uncertainty k = 0.325490
        10         9         8        30     9        0.000000        1.433628         3    ;  uncertainty k = 0.327115
        10         9         8        30     9      180.000000        1.790207         4    ;  uncertainty k = 0.158460
        11         6         5        12     9        0.000000       -0.590756         1    ;  uncertainty k = 0.525590
        11         6         5        12     9      180.000000        2.732820         2    ;  uncertainty k = 0.257489
        11         6         5        12     9        0.000000        0.629229         3    ;  uncertainty k = 0.228491
        11         6         5        12     9      180.000000        0.435378         4    ;  uncertainty k = 0.023802
        11         6         5        28     9        0.000000       -0.618195         1    ;  uncertainty k = 0.243536
        11         6         5        28     9      180.000000        2.285545         2    ;  uncertainty k = 0.337301
        11         6         5        28     9        0.000000        0.482603         3    ;  uncertainty k = 0.112818
        11         6         5        28     9      180.000000        0.236140         4    ;  uncertainty k = 0.049741
        11         6         7        29     9        0.000000        0.103786         1    ;  uncertainty k = 0.115164
        11         6         7        29     9      180.000000        7.232565         2    ;  uncertainty k = 0.479326
        11         6         7        29     9        0.000000        1.441610         3    ;  uncertainty k = 0.358040
        11         6         7        29     9      180.000000        1.626932         4    ;  uncertainty k = 0.180626
        11        10         9        31     9        0.000000        0.055743         1    ;  uncertainty k = 0.094833
        11        10         9        31     9      180.000000        7.490470         2    ;  uncertainty k = 0.333390
        11        10         9        31     9        0.000000        1.467122         3    ;  uncertainty k = 0.292765
        11        10         9        31     9      180.000000        1.797081         4    ;  uncertainty k = 0.179699
        12         5         4        20     9        0.000000        0.112249         1    ;  uncertainty k = 1.960888
        12         5         4        20     9      180.000000       -1.228825         2    ;  uncertainty k = 0.317137
        12         5         4        20     9        0.000000        0.555516         3    ;  uncertainty k = 0.447720
        12         5         4        20     9      180.000000       -0.168783         4    ;  uncertainty k = 0.369824
        12         5         4        27     9        0.000000       -0.939089         1    ;  uncertainty k = 0.596800
        12         5         4        27     9      180.000000        0.164887         2    ;  uncertainty k = 0.417950
        12         5         4        27     9        0.000000        0.637484         3    ;  uncertainty k = 0.269057
        12         5         4        27     9      180.000000        0.053786         4    ;  uncertainty k = 0.091379
        12        13        14        15     9        0.000000        0.264646         1    ;  uncertainty k = 0.222367
        12        13        14        15     9      180.000000       10.374619         2    ;  uncertainty k = 0.472547
        12        13        14        15     9        0.000000        1.224539         3    ;  uncertainty k = 0.204086
        12        13        14        15     9      180.000000        1.672692         4    ;  uncertainty k = 0.270997
        12        13        14        35     9        0.000000       -0.294265         1    ;  uncertainty k = 0.612580
        12        13        14        35     9      180.000000        8.016588         2    ;  uncertainty k = 0.268906
        12        13        14        35     9        0.000000        1.047074         3    ;  uncertainty k = 0.173808
        12        13        14        35     9      180.000000        1.237860         4    ;  uncertainty k = 0.305041
        12        13        19        18     9        0.000000        0.443521         1    ;  uncertainty k = 0.462427
        12        13        19        18     9      180.000000        7.801117         2    ;  uncertainty k = 0.330119
        12        13        19        18     9        0.000000        0.968981         3    ;  uncertainty k = 0.179669
        12        13        19        18     9      180.000000        1.329129         4    ;  uncertainty k = 0.378319
        12        13        19        20     9        0.000000       -0.069204         1    ;  uncertainty k = 0.573695
        12        13        19        20     9      180.000000        7.565394         2    ;  uncertainty k = 0.960680
        12        13        19        20     9        0.000000        0.665039         3    ;  uncertainty k = 0.544823
        12        13        19        20     9      180.000000        1.160048         4    ;  uncertainty k = 0.516804
        13        12         5        28     9        0.000000       -0.859914         1    ;  uncertainty k = 0.376970
        13        12         5        28     9      180.000000       -0.534872         2    ;  uncertainty k = 0.442170
        13        12         5        28     9        0.000000        0.715681         3    ;  uncertainty k = 0.162009
        13        12         5        28     9      180.000000        0.204030         4    ;  uncertainty k = 0.096027
        13        14        15        16     9        0.000000       -0.014497         1    ;  uncertainty k = 0.186200
        13        14        15        16     9      180.000000       14.223653         2    ;  uncertainty k = 0.246912
        13        14        15        16     9        0.000000       -0.661610         3    ;  uncertainty k = 0.515815
        13        14        15        16     9      180.000000        0.836018         4    ;  uncertainty k = 0.380754
        13        14        15        36     9        0.000000        0.328990         1    ;  uncertainty k = 0.438142
        13        14        15        36     9      180.000000        9.258604         2    ;  uncertainty k = 0.504251
        13        14        15        36     9        0.000000        1.290200         3    ;  uncertainty k = 0.276267
        13        14        15        36     9      180.000000        1.518443         4    ;  uncertainty k = 0.279276
        13        19        18        16     9        0.000000       -0.235976         1    ;  uncertainty k = 0.461718
        13        19        18        16     9      180.000000       12.471065         2    ;  uncertainty k = 0.286910
        13        19        18        16     9        0.000000       -0.385510         3    ;  uncertainty k = 0.382430
        13        19        18        16     9      180.000000        0.865319         4    ;  uncertainty k = 0.379431
        13        19        18        38     9        0.000000        0.205736         1    ;  uncertainty k = 0.418823
        13        19        18        38     9      180.000000        8.416730         2    ;  uncertainty k = 0.592203
        13        19        18        38     9        0.000000        1.356019         3    ;  uncertainty k = 0.279329
        13        19        18        38     9      180.000000        1.510015         4    ;  uncertainty k = 0.181895
        13        19        20        21     9        0.000000       -1.798663         1    ;  uncertainty k = 2.376225
        13        19        20        21     9      180.000000        0.346717         2    ;  uncertainty k = 1.144275
        13        19        20        21     9        0.000000        1.526417         3    ;  uncertainty k = 0.359356
        13        19        20        21     9      180.000000       -0.032188         4    ;  uncertainty k = 0.198755
        13        19        20        39     9        0.000000       -0.282632         1    ;  uncertainty k = 0.760128
        13        19        20        39     9      180.000000        2.101539         2    ;  uncertainty k = 0.233980
        13        19        20        39     9        0.000000        0.454267         3    ;  uncertainty k = 0.202143
        13        19        20        39     9      180.000000       -0.205180         4    ;  uncertainty k = 0.132167
        14        13        12        34     9        0.000000        1.628043         1    ;  uncertainty k = 0.631923
        14        13        12        34     9      180.000000        4.505239         2    ;  uncertainty k = 0.399258
        14        13        12        34     9        0.000000        0.725161         3    ;  uncertainty k = 0.269616
        14        13        12        34     9      180.000000        0.013333         4    ;  uncertainty k = 0.175146
        14        13        19        18     9        0.000000        0.230975         1    ;  uncertainty k = 0.243434
        14        13        19        18     9      180.000000        6.164125         2    ;  uncertainty k = 0.554035
        14        13        19        18     9        0.000000        0.352665         3    ;  uncertainty k = 0.545700
        14        13        19        18     9      180.000000        1.335789         4    ;  uncertainty k = 0.224088
        14        13        19        20     9        0.000000        0.580890         1    ;  uncertainty k = 0.578942
        14        13        19        20     9      180.000000        5.565727         2    ;  uncertainty k = 0.484506
        14        13        19        20     9        0.000000        1.291144         3    ;  uncertainty k = 0.220735
        14        13        19        20     9      180.000000        1.608327         4    ;  uncertainty k = 0.265288
        14        15        16        17     9        0.000000        0.149472         1    ;  uncertainty k = 0.191190
        14        15        16        17     9      180.000000        9.257342         2    ;  uncertainty k = 0.231431
        14        15        16        17     9        0.000000        1.234314         3    ;  uncertainty k = 0.278496
        14        15        16        17     9      180.000000        1.819366         4    ;  uncertainty k = 0.110546
        14        15        16        18     9        0.000000       -0.102684         1    ;  uncertainty k = 0.155513
        14        15        16        18     9      180.000000       11.874117         2    ;  uncertainty k = 0.497439
        14        15        16        18     9        0.000000       -0.586001         3    ;  uncertainty k = 0.322690
        14        15        16        18     9      180.000000        0.884550         4    ;  uncertainty k = 0.282492
        15        14        13        19     9        0.000000        0.211845         1    ;  uncertainty k = 0.245129
        15        14        13        19     9      180.000000        7.749704         2    ;  uncertainty k = 0.494654
        15        14        13        19     9        0.000000        0.306471         3    ;  uncertainty k = 0.570377
        15        14        13        19     9      180.000000        1.373486         4    ;  uncertainty k = 0.169599
        15        16        17        37     9        0.000000       -0.088959         1    ;  uncertainty k = 0.057426
        15        16        17        37     9      180.000000        0.974420         2    ;  uncertainty k = 0.062020
        15        16        17        37     9        0.000000        0.375226         3    ;  uncertainty k = 0.057555
        15        16        17        37     9      180.000000        0.169464         4    ;  uncertainty k = 0.045018
        15        16        17        40     9        0.000000       -0.088959         1    ;  uncertainty k = 0.057426
        15        16        17        40     9      180.000000        0.974420         2    ;  uncertainty k = 0.062020
        15        16        17        40     9        0.000000        0.375226         3    ;  uncertainty k = 0.057555
        15        16        17        40     9      180.000000        0.169464         4    ;  uncertainty k = 0.045018
        15        16        17        41     9        0.000000       -0.088959         1    ;  uncertainty k = 0.057426
        15        16        17        41     9      180.000000        0.974420         2    ;  uncertainty k = 0.062020
        15        16        17        41     9        0.000000        0.375226         3    ;  uncertainty k = 0.057555
        15        16        17        41     9      180.000000        0.169464         4    ;  uncertainty k = 0.045018
        15        16        18        19     9        0.000000        0.072884         1    ;  uncertainty k = 0.274784
        15        16        18        19     9      180.000000       11.123824         2    ;  uncertainty k = 0.460576
        15        16        18        19     9        0.000000       -0.209923         3    ;  uncertainty k = 0.627507
        15        16        18        19     9      180.000000        1.094530         4    ;  uncertainty k = 0.544112
        15        16        18        38     9        0.000000       -0.036746         1    ;  uncertainty k = 0.168755
        15        16        18        38     9      180.000000        7.479701         2    ;  uncertainty k = 0.195976
        15        16        18        38     9        0.000000        1.476648         3    ;  uncertainty k = 0.408009
        15        16        18        38     9      180.000000        1.643070         4    ;  uncertainty k = 0.091815
        16        15        14        35     9        0.000000        0.137974         1    ;  uncertainty k = 0.199962
        16        15        14        35     9      180.000000        8.075409         2    ;  uncertainty k = 0.399040
        16        15        14        35     9        0.000000        1.519767         3    ;  uncertainty k = 0.278227
        16        15        14        35     9      180.000000        1.904931         4    ;  uncertainty k = 0.232692
        16        18        19        20     9        0.000000        0.113623         1    ;  uncertainty k = 0.293706
        16        18        19        20     9      180.000000        9.537752         2    ;  uncertainty k = 0.253270
        16        18        19        20     9        0.000000        1.419185         3    ;  uncertainty k = 0.212690
        16        18        19        20     9      180.000000        1.880013         4    ;  uncertainty k = 0.327207
        17        16        15        36     9        0.000000       -0.429593         1    ;  uncertainty k = 0.414029
        17        16        15        36     9      180.000000        8.221765         2    ;  uncertainty k = 0.189524
        17        16        15        36     9        0.000000        0.458387         3    ;  uncertainty k = 0.217309
        17        16        15        36     9      180.000000        0.837096         4    ;  uncertainty k = 0.209578
        17        16        18        19     9        0.000000        0.131206         1    ;  uncertainty k = 0.275825
        17        16        18        19     9      180.000000       10.023725         2    ;  uncertainty k = 0.342052
        17        16        18        19     9        0.000000        1.261388         3    ;  uncertainty k = 0.233507
        17        16        18        19     9      180.000000        1.704687         4    ;  uncertainty k = 0.072320
        17        16        18        38     9        0.000000       -0.259591         1    ;  uncertainty k = 0.283542
        17        16        18        38     9      180.000000        8.306938         2    ;  uncertainty k = 0.127986
        17        16        18        38     9        0.000000        0.532500         3    ;  uncertainty k = 0.287603
        17        16        18        38     9      180.000000        1.000066         4    ;  uncertainty k = 0.176778
        18        16        15        36     9        0.000000        0.093380         1    ;  uncertainty k = 0.110811
        18        16        15        36     9      180.000000        6.979400         2    ;  uncertainty k = 0.536196
        18        16        15        36     9        0.000000        1.494407         3    ;  uncertainty k = 0.317400
        18        16        15        36     9      180.000000        1.590699         4    ;  uncertainty k = 0.135777
        18        16        17        37     9        0.000000        0.073203         1    ;  uncertainty k = 0.119774
        18        16        17        37     9      180.000000        1.014962         2    ;  uncertainty k = 0.089252
        18        16        17        37     9        0.000000        0.387395         3    ;  uncertainty k = 0.063415
        18        16        17        37     9      180.000000        0.183472         4    ;  uncertainty k = 0.023367
        18        16        17        40     9        0.000000        0.073203         1    ;  uncertainty k = 0.119774
        18        16        17        40     9      180.000000        1.014962         2    ;  uncertainty k = 0.089252
        18        16        17        40     9        0.000000        0.387395         3    ;  uncertainty k = 0.063415
        18        16        17        40     9      180.000000        0.183472         4    ;  uncertainty k = 0.023367
        18        16        17        41     9        0.000000        0.073203         1    ;  uncertainty k = 0.119774
        18        16        17        41     9      180.000000        1.014962         2    ;  uncertainty k = 0.089252
        18        16        17        41     9        0.000000        0.387395         3    ;  uncertainty k = 0.063415
        18        16        17        41     9      180.000000        0.183472         4    ;  uncertainty k = 0.023367
        18        19        20        21     9        0.000000       -0.029041         1    ;  uncertainty k = 0.542365
        18        19        20        21     9      180.000000        1.526855         2    ;  uncertainty k = 0.624554
        18        19        20        21     9        0.000000       -0.267350         3    ;  uncertainty k = 0.333290
        18        19        20        21     9      180.000000        0.089134         4    ;  uncertainty k = 0.147695
        18        19        20        39     9        0.000000        0.470053         1    ;  uncertainty k = 0.714730
        18        19        20        39     9      180.000000        1.882130         2    ;  uncertainty k = 0.359846
        18        19        20        39     9        0.000000        0.085208         3    ;  uncertainty k = 0.159013
        18        19        20        39     9      180.000000       -0.012153         4    ;  uncertainty k = 0.164991
        19        13        12        34     9        0.000000       11.769285         1    ;  uncertainty k = 0.522719
        19        13        12        34     9      180.000000        4.715181         2    ;  uncertainty k = 0.571018
        19        13        12        34     9        0.000000        0.214697         3    ;  uncertainty k = 0.224364
        19        13        12        34     9      180.000000        0.235068         4    ;  uncertainty k = 0.183059
        19        13        14        35     9        0.000000        0.193659         1    ;  uncertainty k = 0.962821
        19        13        14        35     9      180.000000        6.104186         2    ;  uncertainty k = 0.665485
        19        13        14        35     9        0.000000        1.317985         3    ;  uncertainty k = 0.309418
        19        13        14        35     9      180.000000        1.290253         4    ;  uncertainty k = 0.208508
        19        20         4        27     9        0.000000       -0.417319         1    ;  uncertainty k = 1.016252
        19        20         4        27     9      180.000000        0.820508         2    ;  uncertainty k = 0.538548
        19        20         4        27     9        0.000000        0.022323         3    ;  uncertainty k = 0.085968
        19        20         4        27     9      180.000000       -0.061315         4    ;  uncertainty k = 0.114199
        20         4         3        25     9        0.000000       -0.463214         1    ;  uncertainty k = 0.384420
        20         4         3        25     9      180.000000       -0.656603         2    ;  uncertainty k = 0.117716
        20         4         3        25     9        0.000000        0.334480         3    ;  uncertainty k = 0.109149
        20         4         3        25     9      180.000000       -0.006047         4    ;  uncertainty k = 0.043439
        20         4         3        26     9        0.000000       -0.463214         1    ;  uncertainty k = 0.384420
        20         4         3        26     9      180.000000       -0.656603         2    ;  uncertainty k = 0.117716
        20         4         3        26     9        0.000000        0.334480         3    ;  uncertainty k = 0.109149
        20         4         3        26     9      180.000000       -0.006047         4    ;  uncertainty k = 0.043439
        20         4         5        28     9        0.000000        0.758199         1    ;  uncertainty k = 0.741755
        20         4         5        28     9      180.000000       -1.387461         2    ;  uncertainty k = 0.737119
        20         4         5        28     9        0.000000       -0.441849         3    ;  uncertainty k = 0.151617
        20         4         5        28     9      180.000000        0.032832         4    ;  uncertainty k = 0.149349
        20        19        18        38     9        0.000000       -0.177813         1    ;  uncertainty k = 0.429110
        20        19        18        38     9      180.000000        8.318597         2    ;  uncertainty k = 0.774108
        20        19        18        38     9        0.000000        0.784831         3    ;  uncertainty k = 0.266323
        20        19        18        38     9      180.000000        1.075243         4    ;  uncertainty k = 0.409850
        20        21         1        22     9        0.000000       -3.571313         1    ;  uncertainty k = 1.523571
        20        21         1        22     9      180.000000       -0.555372         2    ;  uncertainty k = 0.291502
        20        21         1        22     9        0.000000        0.353963         3    ;  uncertainty k = 0.223685
        20        21         1        22     9      180.000000       -0.116305         4    ;  uncertainty k = 0.126923
        20        21         1        42     9        0.000000       -3.571313         1    ;  uncertainty k = 1.523571
        20        21         1        42     9      180.000000       -0.555371         2    ;  uncertainty k = 0.291502
        20        21         1        42     9        0.000000        0.353963         3    ;  uncertainty k = 0.223685
        20        21         1        42     9      180.000000       -0.116305         4    ;  uncertainty k = 0.126923
        21         1         2        23     9        0.000000       -1.395868         1    ;  uncertainty k = 0.482615
        21         1         2        23     9      180.000000       -0.573583         2    ;  uncertainty k = 0.311178
        21         1         2        23     9        0.000000        1.274117         3    ;  uncertainty k = 0.171800
        21         1         2        23     9      180.000000       -0.148010         4    ;  uncertainty k = 0.122827
        21         1         2        24     9        0.000000       -1.395868         1    ;  uncertainty k = 0.482615
        21         1         2        24     9      180.000000       -0.573583         2    ;  uncertainty k = 0.311178
        21         1         2        24     9        0.000000        1.274117         3    ;  uncertainty k = 0.171800
        21         1         2        24     9      180.000000       -0.148010         4    ;  uncertainty k = 0.122827
        21        20         4        27     9        0.000000       -0.677446         1    ;  uncertainty k = 0.589244
        21        20         4        27     9      180.000000        0.580889         2    ;  uncertainty k = 0.560668
        21        20         4        27     9        0.000000        0.181308         3    ;  uncertainty k = 0.288898
        21        20         4        27     9      180.000000       -0.140361         4    ;  uncertainty k = 0.144927
        22         1         2        23     9        0.000000       -0.274869         1    ;  uncertainty k = 0.378414
        22         1         2        23     9      180.000000        0.798972         2    ;  uncertainty k = 0.452568
        22         1         2        23     9        0.000000        0.200804         3    ;  uncertainty k = 0.151527
        22         1         2        23     9      180.000000       -0.352311         4    ;  uncertainty k = 0.070139
        22         1         2        24     9        0.000000       -0.274869         1    ;  uncertainty k = 0.378414
        22         1         2        24     9      180.000000        0.798972         2    ;  uncertainty k = 0.452568
        22         1         2        24     9        0.000000        0.200804         3    ;  uncertainty k = 0.151527
        22         1         2        24     9      180.000000       -0.352311         4    ;  uncertainty k = 0.070139
        23         2         1        42     9        0.000000       -0.274867         1    ;  uncertainty k = 0.378415
        23         2         1        42     9      180.000000        0.798974         2    ;  uncertainty k = 0.452568
        23         2         1        42     9        0.000000        0.200804         3    ;  uncertainty k = 0.151527
        23         2         1        42     9      180.000000       -0.352311         4    ;  uncertainty k = 0.070138
        23         2         3        25     9        0.000000        1.884565         1    ;  uncertainty k = 0.391703
        23         2         3        25     9      180.000000        0.108172         2    ;  uncertainty k = 0.140230
        23         2         3        25     9        0.000000        0.315320         3    ;  uncertainty k = 0.092655
        23         2         3        25     9      180.000000        0.071629         4    ;  uncertainty k = 0.021587
        23         2         3        26     9        0.000000        1.884565         1    ;  uncertainty k = 0.391703
        23         2         3        26     9      180.000000        0.108172         2    ;  uncertainty k = 0.140230
        23         2         3        26     9        0.000000        0.315320         3    ;  uncertainty k = 0.092655
        23         2         3        26     9      180.000000        0.071629         4    ;  uncertainty k = 0.021587
        24         2         1        42     9        0.000000       -0.274867         1    ;  uncertainty k = 0.378415
        24         2         1        42     9      180.000000        0.798974         2    ;  uncertainty k = 0.452568
        24         2         1        42     9        0.000000        0.200804         3    ;  uncertainty k = 0.151527
        24         2         1        42     9      180.000000       -0.352311         4    ;  uncertainty k = 0.070138
        24         2         3        25     9        0.000000        1.884565         1    ;  uncertainty k = 0.391703
        24         2         3        25     9      180.000000        0.108172         2    ;  uncertainty k = 0.140230
        24         2         3        25     9        0.000000        0.315320         3    ;  uncertainty k = 0.092655
        24         2         3        25     9      180.000000        0.071629         4    ;  uncertainty k = 0.021587
        24         2         3        26     9        0.000000        1.884565         1    ;  uncertainty k = 0.391703
        24         2         3        26     9      180.000000        0.108172         2    ;  uncertainty k = 0.140230
        24         2         3        26     9        0.000000        0.315320         3    ;  uncertainty k = 0.092655
        24         2         3        26     9      180.000000        0.071629         4    ;  uncertainty k = 0.021587
        25         3         4        27     9        0.000000        1.587362         1    ;  uncertainty k = 0.258659
        25         3         4        27     9      180.000000       -0.027774         2    ;  uncertainty k = 0.315848
        25         3         4        27     9        0.000000       -0.059218         3    ;  uncertainty k = 0.119422
        25         3         4        27     9      180.000000        0.010985         4    ;  uncertainty k = 0.065672
        26         3         4        27     9        0.000000        1.587362         1    ;  uncertainty k = 0.258659
        26         3         4        27     9      180.000000       -0.027774         2    ;  uncertainty k = 0.315848
        26         3         4        27     9        0.000000       -0.059218         3    ;  uncertainty k = 0.119422
        26         3         4        27     9      180.000000        0.010985         4    ;  uncertainty k = 0.065672
        27         4         5        28     9        0.000000        1.072490         1    ;  uncertainty k = 0.444187
        27         4         5        28     9      180.000000       -0.046095         2    ;  uncertainty k = 0.241923
        27         4         5        28     9        0.000000       -0.346052         3    ;  uncertainty k = 0.178924
        27         4         5        28     9      180.000000       -0.268855         4    ;  uncertainty k = 0.104119
        27         4        20        39     9        0.000000        2.055952         1    ;  uncertainty k = 0.460860
        27         4        20        39     9      180.000000        0.801068         2    ;  uncertainty k = 0.474692
        27         4        20        39     9        0.000000       -0.495403         3    ;  uncertainty k = 0.235504
        27         4        20        39     9      180.000000       -0.176208         4    ;  uncertainty k = 0.072900
        28         5        12        34     9        0.000000        0.468542         1    ;  uncertainty k = 0.563664
        28         5        12        34     9      180.000000       -0.983993         2    ;  uncertainty k = 0.285944
        28         5        12        34     9        0.000000        0.482175         3    ;  uncertainty k = 0.277173
        28         5        12        34     9      180.000000        0.028441         4    ;  uncertainty k = 0.127509
        29         7         8        30     9        0.000000       -0.038400         1    ;  uncertainty k = 0.034127
        29         7         8        30     9      180.000000        7.644156         2    ;  uncertainty k = 0.255449
        29         7         8        30     9        0.000000       -0.470075         3    ;  uncertainty k = 0.270053
        29         7         8        30     9      180.000000        0.106023         4    ;  uncertainty k = 0.117776
        30         8         9        31     9        0.000000       -0.016279         1    ;  uncertainty k = 0.090335
        30         8         9        31     9      180.000000        7.510682         2    ;  uncertainty k = 0.369436
        30         8         9        31     9        0.000000       -0.422665         3    ;  uncertainty k = 0.276611
        30         8         9        31     9      180.000000        0.041075         4    ;  uncertainty k = 0.155578
        31         9        10        32     9        0.000000       -0.016279         1    ;  uncertainty k = 0.090335
        31         9        10        32     9      180.000000        7.510682         2    ;  uncertainty k = 0.369436
        31         9        10        32     9        0.000000       -0.422665         3    ;  uncertainty k = 0.276611
        31         9        10        32     9      180.000000        0.041075         4    ;  uncertainty k = 0.155578
        32        10        11        33     9        0.000000       -0.038400         1    ;  uncertainty k = 0.034125
        32        10        11        33     9      180.000000        7.644156         2    ;  uncertainty k = 0.255447
        32        10        11        33     9        0.000000       -0.470076         3    ;  uncertainty k = 0.270053
        32        10        11        33     9      180.000000        0.106023         4    ;  uncertainty k = 0.117776
        35        14        15        36     9        0.000000        0.130346         1    ;  uncertainty k = 0.568934
        35        14        15        36     9      180.000000        7.766141         2    ;  uncertainty k = 0.356894
        35        14        15        36     9        0.000000       -0.368904         3    ;  uncertainty k = 0.314448
        35        14        15        36     9      180.000000        0.157990         4    ;  uncertainty k = 0.162229

[ dihedrals ] ; impropers
;       ai        aj        ak        al funct           phase               k        pn
         6         5         7        11     4      180.000000       12.903618         2    ;  uncertainty k = 0.121797
         6         7        11         5     4      180.000000       12.903618         2    ;  uncertainty k = 0.121797
         6        11         5         7     4      180.000000       12.903618         2    ;  uncertainty k = 0.121797
         7         6         8        29     4      180.000000        4.073200         2    ;  uncertainty k = 0.089532
         7         8        29         6     4      180.000000        4.073200         2    ;  uncertainty k = 0.089532
         7        29         6         8     4      180.000000        4.073200         2    ;  uncertainty k = 0.089532
         8         7         9        30     4      180.000000        4.075594         2    ;  uncertainty k = 0.076312
         8         9        30         7     4      180.000000        4.075594         2    ;  uncertainty k = 0.076312
         8        30         7         9     4      180.000000        4.075594         2    ;  uncertainty k = 0.076312
         9         8        10        31     4      180.000000        4.286751         2    ;  uncertainty k = 0.163795
         9        10        31         8     4      180.000000        4.286751         2    ;  uncertainty k = 0.163795
         9        31         8        10     4      180.000000        4.286751         2    ;  uncertainty k = 0.163795
        10         9        11        32     4      180.000000        4.075594         2    ;  uncertainty k = 0.076312
        10        11        32         9     4      180.000000        4.075594         2    ;  uncertainty k = 0.076312
        10        32         9        11     4      180.000000        4.075594         2    ;  uncertainty k = 0.076312
        11         6        10        33     4      180.000000        4.073199         2    ;  uncertainty k = 0.089533
        11        10        33         6     4      180.000000        4.073199         2    ;  uncertainty k = 0.089533
        11        33         6        10     4      180.000000        4.073199         2    ;  uncertainty k = 0.089533
        13        12        14        19     4      180.000000       20.850905         2    ;  uncertainty k = 0.158344
        13        14        19        12     4      180.000000       20.850905         2    ;  uncertainty k = 0.158344
        13        19        12        14     4      180.000000       20.850905         2    ;  uncertainty k = 0.158344
        14        13        15        35     4      180.000000        2.126141         2    ;  uncertainty k = 0.276387
        14        15        35        13     4      180.000000        2.126141         2    ;  uncertainty k = 0.276387
        14        35        13        15     4      180.000000        2.126141         2    ;  uncertainty k = 0.276387
        15        14        16        36     4      180.000000        4.099092         2    ;  uncertainty k = 0.131694
        15        16        36        14     4      180.000000        4.099092         2    ;  uncertainty k = 0.131694
        15        36        14        16     4      180.000000        4.099092         2    ;  uncertainty k = 0.131694
        16        15        17        18     4      180.000000       13.714165         2    ;  uncertainty k = 0.066157
        16        17        18        15     4      180.000000       13.714165         2    ;  uncertainty k = 0.066157
        16        18        15        17     4      180.000000       13.714165         2    ;  uncertainty k = 0.066157
        18        16        19        38     4      180.000000        3.813359         2    ;  uncertainty k = 0.351286
        18        19        38        16     4      180.000000        3.813359         2    ;  uncertainty k = 0.351286
        18        38        16        19     4      180.000000        3.813359         2    ;  uncertainty k = 0.351286
        19        13        18        20     4      180.000000       11.142000         2    ;  uncertainty k = 0.200308
        19        18        20        13     4      180.000000       11.142000         2    ;  uncertainty k = 0.200308
        19        20        13        18     4      180.000000       11.142000         2    ;  uncertainty k = 0.200308

[ pairs ]
;       ai        aj funct
         1         4     1
         1        19     1
         1        25     1
         1        26     1
         1        39     1
         2         5     1
         2        20     1
         2        27     1
         3         6     1
         3        12     1
         3        19     1
         3        21     1
         3        22     1
         3        28     1
         3        39     1
         3        42     1
         4         7     1
         4        11     1
         4        13     1
         4        18     1
         4        23     1
         4        24     1
         4        34     1
         5         8     1
         5        10     1
         5        14     1
         5        19     1
         5        21     1
         5        25     1
         5        26     1
         5        29     1
         5        33     1
         5        39     1
         6         9     1
         6        13     1
         6        20     1
         6        27     1
         6        30     1
         6        32     1
         6        34     1
         7        10     1
         7        12     1
         7        28     1
         7        31     1
         7        33     1
         8        11     1
         8        32     1
         9        29     1
         9        33     1
        10        30     1
        11        12     1
        11        28     1
        11        29     1
        11        31     1
        12        15     1
        12        18     1
        12        20     1
        12        27     1
        12        35     1
        13        16     1
        13        21     1
        13        28     1
        13        36     1
        13        38     1
        13        39     1
        14        17     1
        14        18     1
        14        20     1
        14        34     1
        15        19     1
        15        37     1
        15        38     1
        15        40     1
        15        41     1
        16        20     1
        16        35     1
        17        19     1
        17        36     1
        17        38     1
        18        21     1
        18        36     1
        18        37     1
        18        39     1
        18        40     1
        18        41     1
        19        27     1
        19        34     1
        19        35     1
        20        22     1
        20        25     1
        20        26     1
        20        28     1
        20        38     1
        20        42     1
        21        23     1
        21        24     1
        21        27     1
        22        23     1
        22        24     1
        23        25     1
        23        26     1
        23        42     1
        24        25     1
        24        26     1
        24        42     1
        25        27     1
        26        27     1
        27        28     1
        27        39     1
        28        34     1
        29        30     1
        30        31     1
        31        32     1
        32        33     1
        35        36     1
