; ITP file created by ByteFF-joint-25, 2026-02-17 09:12:17.450655

[ atomtypes ]
;name           bonded.type        at.num        mass        charge   ptype           sigma         epsilon
 c0bf                                   6      0.0000       0.00000       A     3.39750e-01     4.50798e-01    ;  uncertainty sigma = 0.000007, epsilon = 0.000518
 c1bf                                   6      0.0000       0.00000       A     3.39747e-01     4.50029e-01    ;  uncertainty sigma = 0.000009, epsilon = 0.001190
 n2bf                                   7      0.0000       0.00000       A     3.36362e-01     3.58508e-01    ;  uncertainty sigma = 0.000087, epsilon = 0.002914
 c3bf                                   6      0.0000       0.00000       A     3.39782e-01     4.50277e-01    ;  uncertainty sigma = 0.000022, epsilon = 0.001593
 c4bf                                   6      0.0000       0.00000       A     3.39781e-01     4.50597e-01    ;  uncertainty sigma = 0.000019, epsilon = 0.000504
 o5bf                                   8      0.0000       0.00000       A     3.24276e-01     3.88135e-01    ;  uncertainty sigma = 0.000029, epsilon = 0.001367
 c6bf                                   6      0.0000       0.00000       A     3.39745e-01     4.49924e-01    ;  uncertainty sigma = 0.000012, epsilon = 0.001126
 c7bf                                   6      0.0000       0.00000       A     3.39766e-01     4.50913e-01    ;  uncertainty sigma = 0.000010, epsilon = 0.001203
 c8bf                                   6      0.0000       0.00000       A     3.39789e-01     4.50788e-01    ;  uncertainty sigma = 0.000007, epsilon = 0.000744
 c9bf                                   6      0.0000       0.00000       A     3.39750e-01     4.51142e-01    ;  uncertainty sigma = 0.000011, epsilon = 0.000651
 c10bf                                  6      0.0000       0.00000       A     3.39755e-01     4.50973e-01    ;  uncertainty sigma = 0.000035, epsilon = 0.000615
 c11bf                                  6      0.0000       0.00000       A     3.39774e-01     4.51693e-01    ;  uncertainty sigma = 0.000009, epsilon = 0.001676
 c12bf                                  6      0.0000       0.00000       A     3.31532e-01     4.13295e-01    ;  uncertainty sigma = 0.000012, epsilon = 0.000849
 c13bf                                  6      0.0000       0.00000       A     3.31519e-01     4.13329e-01    ;  uncertainty sigma = 0.000002, epsilon = 0.000632
 c14bf                                  6      0.0000       0.00000       A     3.31520e-01     4.13328e-01    ;  uncertainty sigma = 0.000003, epsilon = 0.000582
 c15bf                                  6      0.0000       0.00000       A     3.31518e-01     4.13340e-01    ;  uncertainty sigma = 0.000003, epsilon = 0.000579
 c16bf                                  6      0.0000       0.00000       A     3.31520e-01     4.13328e-01    ;  uncertainty sigma = 0.000003, epsilon = 0.000582
 c17bf                                  6      0.0000       0.00000       A     3.31519e-01     4.13329e-01    ;  uncertainty sigma = 0.000002, epsilon = 0.000632
 n18bf                                  7      0.0000       0.00000       A     3.27909e-01     6.44315e-01    ;  uncertainty sigma = 0.000015, epsilon = 0.004120
 c19bf                                  6      0.0000       0.00000       A     3.31548e-01     4.13221e-01    ;  uncertainty sigma = 0.000016, epsilon = 0.001142
 c20bf                                  6      0.0000       0.00000       A     3.31520e-01     4.13574e-01    ;  uncertainty sigma = 0.000004, epsilon = 0.000453
 c21bf                                  6      0.0000       0.00000       A     3.31524e-01     4.13573e-01    ;  uncertainty sigma = 0.000007, epsilon = 0.000695
 c22bf                                  6      0.0000       0.00000       A     3.31532e-01     4.13402e-01    ;  uncertainty sigma = 0.000010, epsilon = 0.001004
 c23bf                                  6      0.0000       0.00000       A     3.39774e-01     4.51167e-01    ;  uncertainty sigma = 0.000015, epsilon = 0.000796
 c24bf                                  6      0.0000       0.00000       A     3.39771e-01     4.50897e-01    ;  uncertainty sigma = 0.000007, epsilon = 0.000479
 c25bf                                  6      0.0000       0.00000       A     3.39771e-01     4.50897e-01    ;  uncertainty sigma = 0.000007, epsilon = 0.000479
 c26bf                                  6      0.0000       0.00000       A     3.39771e-01     4.50897e-01    ;  uncertainty sigma = 0.000007, epsilon = 0.000479
 c27bf                                  6      0.0000       0.00000       A     3.31545e-01     4.13403e-01    ;  uncertainty sigma = 0.000008, epsilon = 0.000917
 c28bf                                  6      0.0000       0.00000       A     3.31541e-01     4.13423e-01    ;  uncertainty sigma = 0.000017, epsilon = 0.000586
 c29bf                                  6      0.0000       0.00000       A     3.39758e-01     4.50739e-01    ;  uncertainty sigma = 0.000017, epsilon = 0.001669
 o30bf                                  8      0.0000       0.00000       A     3.15655e-01     3.03527e-01    ;  uncertainty sigma = 0.000036, epsilon = 0.001272
 h31bf                                  1      0.0000       0.00000       A     2.60028e-01     8.68879e-02    ;  uncertainty sigma = 0.000010, epsilon = 0.000622
 h32bf                                  1      0.0000       0.00000       A     2.60028e-01     8.68879e-02    ;  uncertainty sigma = 0.000010, epsilon = 0.000622
 h33bf                                  1      0.0000       0.00000       A     2.60028e-01     8.68879e-02    ;  uncertainty sigma = 0.000010, epsilon = 0.000622
 h34bf                                  1      0.0000       0.00000       A     2.42191e-01     8.65612e-02    ;  uncertainty sigma = 0.000026, epsilon = 0.000627
 h35bf                                  1      0.0000       0.00000       A     2.42191e-01     8.65612e-02    ;  uncertainty sigma = 0.000026, epsilon = 0.000627
 h36bf                                  1      0.0000       0.00000       A     2.42195e-01     8.63319e-02    ;  uncertainty sigma = 0.000030, epsilon = 0.000904
 h37bf                                  1      0.0000       0.00000       A     2.42195e-01     8.63319e-02    ;  uncertainty sigma = 0.000030, epsilon = 0.000904
 h38bf                                  1      0.0000       0.00000       A     2.42130e-01     8.63226e-02    ;  uncertainty sigma = 0.000018, epsilon = 0.000721
 h39bf                                  1      0.0000       0.00000       A     2.42130e-01     8.63226e-02    ;  uncertainty sigma = 0.000018, epsilon = 0.000721
 h40bf                                  1      0.0000       0.00000       A     5.37995e-02     1.93814e-02    ;  uncertainty sigma = 0.000100, epsilon = 0.001338
 h41bf                                  1      0.0000       0.00000       A     2.42203e-01     8.65795e-02    ;  uncertainty sigma = 0.000026, epsilon = 0.000657
 h42bf                                  1      0.0000       0.00000       A     2.42203e-01     8.65795e-02    ;  uncertainty sigma = 0.000026, epsilon = 0.000657
 h43bf                                  1      0.0000       0.00000       A     2.42194e-01     8.72336e-02    ;  uncertainty sigma = 0.000054, epsilon = 0.001176
 h44bf                                  1      0.0000       0.00000       A     2.60026e-01     8.66991e-02    ;  uncertainty sigma = 0.000012, epsilon = 0.000652
 h45bf                                  1      0.0000       0.00000       A     2.60026e-01     8.66991e-02    ;  uncertainty sigma = 0.000012, epsilon = 0.000652
 h46bf                                  1      0.0000       0.00000       A     2.60028e-01     8.66831e-02    ;  uncertainty sigma = 0.000010, epsilon = 0.000720
 h47bf                                  1      0.0000       0.00000       A     2.60028e-01     8.66831e-02    ;  uncertainty sigma = 0.000010, epsilon = 0.000720
 h48bf                                  1      0.0000       0.00000       A     2.59938e-01     8.64077e-02    ;  uncertainty sigma = 0.000052, epsilon = 0.000980
 h49bf                                  1      0.0000       0.00000       A     2.42303e-01     8.69596e-02    ;  uncertainty sigma = 0.000074, epsilon = 0.001557
 h50bf                                  1      0.0000       0.00000       A     2.62560e-01     6.70316e-02    ;  uncertainty sigma = 0.000006, epsilon = 0.000529
 h51bf                                  1      0.0000       0.00000       A     2.62559e-01     6.70249e-02    ;  uncertainty sigma = 0.000010, epsilon = 0.000440
 h52bf                                  1      0.0000       0.00000       A     2.62552e-01     6.70645e-02    ;  uncertainty sigma = 0.000011, epsilon = 0.000453
 h53bf                                  1      0.0000       0.00000       A     2.62559e-01     6.70249e-02    ;  uncertainty sigma = 0.000010, epsilon = 0.000440
 h54bf                                  1      0.0000       0.00000       A     2.62560e-01     6.70316e-02    ;  uncertainty sigma = 0.000006, epsilon = 0.000529
 h55bf                                  1      0.0000       0.00000       A     1.10675e-01     4.07503e-02    ;  uncertainty sigma = 0.000109, epsilon = 0.000764
 h56bf                                  1      0.0000       0.00000       A     2.62577e-01     6.70680e-02    ;  uncertainty sigma = 0.000013, epsilon = 0.000535
 h57bf                                  1      0.0000       0.00000       A     2.62546e-01     6.71184e-02    ;  uncertainty sigma = 0.000010, epsilon = 0.000474
 h58bf                                  1      0.0000       0.00000       A     2.60023e-01     8.66592e-02    ;  uncertainty sigma = 0.000006, epsilon = 0.000286
 h59bf                                  1      0.0000       0.00000       A     2.60023e-01     8.66592e-02    ;  uncertainty sigma = 0.000006, epsilon = 0.000286
 h60bf                                  1      0.0000       0.00000       A     2.60023e-01     8.66592e-02    ;  uncertainty sigma = 0.000006, epsilon = 0.000286
 h61bf                                  1      0.0000       0.00000       A     2.60023e-01     8.66592e-02    ;  uncertainty sigma = 0.000006, epsilon = 0.000286
 h62bf                                  1      0.0000       0.00000       A     2.60023e-01     8.66592e-02    ;  uncertainty sigma = 0.000006, epsilon = 0.000286
 h63bf                                  1      0.0000       0.00000       A     2.60023e-01     8.66592e-02    ;  uncertainty sigma = 0.000006, epsilon = 0.000286
 h64bf                                  1      0.0000       0.00000       A     2.60023e-01     8.66592e-02    ;  uncertainty sigma = 0.000006, epsilon = 0.000286
 h65bf                                  1      0.0000       0.00000       A     2.60023e-01     8.66592e-02    ;  uncertainty sigma = 0.000006, epsilon = 0.000286
 h66bf                                  1      0.0000       0.00000       A     2.60023e-01     8.66592e-02    ;  uncertainty sigma = 0.000006, epsilon = 0.000286
 h67bf                                  1      0.0000       0.00000       A     2.62494e-01     6.70933e-02    ;  uncertainty sigma = 0.000026, epsilon = 0.000462
 h68bf                                  1      0.0000       0.00000       A     2.42239e-01     8.76589e-02    ;  uncertainty sigma = 0.000274, epsilon = 0.002166

[ moleculetype ]
;name             nrexcl
 MOL                   3

[ atoms ]
;       nr            type      resi   res      atom      cgnr      charge          mass ; qtot
         1            c0bf         1   UNL        c0         1    -0.10171       12.0110 ; qtot   -0.102
         2            c1bf         1   UNL        c1         2     0.17215       12.0110 ; qtot    0.070
         3            n2bf         1   UNL        n2         3    -0.74720       14.0070 ; qtot   -0.677
         4            c3bf         1   UNL        c3         4     0.14708       12.0110 ; qtot   -0.530
         5            c4bf         1   UNL        c4         5     0.12422       12.0110 ; qtot   -0.405
         6            o5bf         1   UNL        o5         6    -0.60244       15.9990 ; qtot   -1.008
         7            c6bf         1   UNL        c6         7     0.17025       12.0110 ; qtot   -0.838
         8            c7bf         1   UNL        c7         8     0.13465       12.0110 ; qtot   -0.703
         9            c8bf         1   UNL        c8         9    -0.10370       12.0110 ; qtot   -0.807
        10            c9bf         1   UNL        c9        10    -0.06725       12.0110 ; qtot   -0.874
        11           c10bf         1   UNL       c10        11    -0.09461       12.0110 ; qtot   -0.969
        12           c11bf         1   UNL       c11        12     0.25867       12.0110 ; qtot   -0.710
        13           c12bf         1   UNL       c12        13    -0.10560       12.0110 ; qtot   -0.815
        14           c13bf         1   UNL       c13        14    -0.11888       12.0110 ; qtot   -0.934
        15           c14bf         1   UNL       c14        15    -0.13078       12.0110 ; qtot   -1.065
        16           c15bf         1   UNL       c15        16    -0.12452       12.0110 ; qtot   -1.190
        17           c16bf         1   UNL       c16        17    -0.13078       12.0110 ; qtot   -1.320
        18           c17bf         1   UNL       c17        18    -0.11888       12.0110 ; qtot   -1.439
        19           n18bf         1   UNL       n18        19    -0.73726       14.0070 ; qtot   -2.177
        20           c19bf         1   UNL       c19        20     0.15401       12.0110 ; qtot   -2.023
        21           c20bf         1   UNL       c20        21    -0.19001       12.0110 ; qtot   -2.213
        22           c21bf         1   UNL       c21        22    -0.08956       12.0110 ; qtot   -2.302
        23           c22bf         1   UNL       c22        23    -0.09788       12.0110 ; qtot   -2.400
        24           c23bf         1   UNL       c23        24    -0.00014       12.0110 ; qtot   -2.400
        25           c24bf         1   UNL       c24        25    -0.08520       12.0110 ; qtot   -2.485
        26           c25bf         1   UNL       c25        26    -0.08520       12.0110 ; qtot   -2.571
        27           c26bf         1   UNL       c26        27    -0.08520       12.0110 ; qtot   -2.656
        28           c27bf         1   UNL       c27        28    -0.07684       12.0110 ; qtot   -2.733
        29           c28bf         1   UNL       c28        29    -0.14426       12.0110 ; qtot   -2.877
        30           c29bf         1   UNL       c29        30     0.20113       12.0110 ; qtot   -2.676
        31           o30bf         1   UNL       o30        31    -0.41808       15.9990 ; qtot   -3.094
        32           h31bf         1   UNL       h31        32     0.03619        1.0080 ; qtot   -3.058
        33           h32bf         1   UNL       h32        33     0.03619        1.0080 ; qtot   -3.021
        34           h33bf         1   UNL       h33        34     0.03619        1.0080 ; qtot   -2.985
        35           h34bf         1   UNL       h34        35     0.03764        1.0080 ; qtot   -2.948
        36           h35bf         1   UNL       h35        36     0.03764        1.0080 ; qtot   -2.910
        37           h36bf         1   UNL       h36        37     0.04643        1.0080 ; qtot   -2.864
        38           h37bf         1   UNL       h37        38     0.04643        1.0080 ; qtot   -2.817
        39           h38bf         1   UNL       h38        39     0.03959        1.0080 ; qtot   -2.778
        40           h39bf         1   UNL       h39        40     0.03959        1.0080 ; qtot   -2.738
        41           h40bf         1   UNL       h40        41     0.40764        1.0080 ; qtot   -2.330
        42           h41bf         1   UNL       h41        42     0.04546        1.0080 ; qtot   -2.285
        43           h42bf         1   UNL       h42        43     0.04546        1.0080 ; qtot   -2.239
        44           h43bf         1   UNL       h43        44     0.05148        1.0080 ; qtot   -2.188
        45           h44bf         1   UNL       h44        45     0.05483        1.0080 ; qtot   -2.133
        46           h45bf         1   UNL       h45        46     0.05483        1.0080 ; qtot   -2.078
        47           h46bf         1   UNL       h46        47     0.04984        1.0080 ; qtot   -2.028
        48           h47bf         1   UNL       h47        48     0.04984        1.0080 ; qtot   -1.979
        49           h48bf         1   UNL       h48        49     0.06904        1.0080 ; qtot   -1.910
        50           h49bf         1   UNL       h49        50     0.05360        1.0080 ; qtot   -1.856
        51           h50bf         1   UNL       h50        51     0.13512        1.0080 ; qtot   -1.721
        52           h51bf         1   UNL       h51        52     0.13172        1.0080 ; qtot   -1.589
        53           h52bf         1   UNL       h52        53     0.13373        1.0080 ; qtot   -1.455
        54           h53bf         1   UNL       h53        54     0.13172        1.0080 ; qtot   -1.324
        55           h54bf         1   UNL       h54        55     0.13512        1.0080 ; qtot   -1.188
        56           h55bf         1   UNL       h55        56     0.40889        1.0080 ; qtot   -0.780
        57           h56bf         1   UNL       h56        57     0.13013        1.0080 ; qtot   -0.649
        58           h57bf         1   UNL       h57        58     0.13382        1.0080 ; qtot   -0.516
        59           h58bf         1   UNL       h58        59     0.03604        1.0080 ; qtot   -0.480
        60           h59bf         1   UNL       h59        60     0.03604        1.0080 ; qtot   -0.444
        61           h60bf         1   UNL       h60        61     0.03604        1.0080 ; qtot   -0.408
        62           h61bf         1   UNL       h61        62     0.03604        1.0080 ; qtot   -0.371
        63           h62bf         1   UNL       h62        63     0.03604        1.0080 ; qtot   -0.335
        64           h63bf         1   UNL       h63        64     0.03604        1.0080 ; qtot   -0.299
        65           h64bf         1   UNL       h64        65     0.03604        1.0080 ; qtot   -0.263
        66           h65bf         1   UNL       h65        66     0.03604        1.0080 ; qtot   -0.227
        67           h66bf         1   UNL       h66        67     0.03604        1.0080 ; qtot   -0.191
        68           h67bf         1   UNL       h67        68     0.13358        1.0080 ; qtot   -0.058
        69           h68bf         1   UNL       h68        69     0.05772        1.0080 ; qtot    0.000

[ bonds ]
;       ai        aj funct               r               k
         1         2     1        0.153852   223197.936670    ;  uncertainty r = 0.000047, k = 3.582963
         1        32     1        0.109649   310739.070996    ;  uncertainty r = 0.000012, k = 2.014661
         1        33     1        0.109649   310739.070996    ;  uncertainty r = 0.000012, k = 2.014661
         1        34     1        0.109649   310739.070996    ;  uncertainty r = 0.000012, k = 2.014661
         2         3     1        0.143410   199164.911963    ;  uncertainty r = 0.000100, k = 11.289475
         2        35     1        0.109903   304755.215527    ;  uncertainty r = 0.000033, k = 2.045545
         2        36     1        0.109903   304755.215527    ;  uncertainty r = 0.000033, k = 2.045545
         3         4     1        0.142666   219318.313477    ;  uncertainty r = 0.000157, k = 11.239556
         3         7     1        0.142980   237757.996191    ;  uncertainty r = 0.000200, k = 17.002037
         4         5     1        0.152908   207890.865625    ;  uncertainty r = 0.000040, k = 4.101894
         4        37     1        0.109924   304132.544189    ;  uncertainty r = 0.000041, k = 1.684096
         4        38     1        0.109924   304132.544189    ;  uncertainty r = 0.000041, k = 1.684096
         5         6     1        0.142295   259987.079492    ;  uncertainty r = 0.000046, k = 5.308809
         5        39     1        0.109865   307319.115771    ;  uncertainty r = 0.000040, k = 1.393205
         5        40     1        0.109865   307319.115771    ;  uncertainty r = 0.000040, k = 1.393205
         6        41     1        0.096981   460439.087305    ;  uncertainty r = 0.000026, k = 2.799469
         7         8     1        0.152836   205722.050000    ;  uncertainty r = 0.000037, k = 7.789429
         7        42     1        0.109923   305235.185498    ;  uncertainty r = 0.000027, k = 1.734868
         7        43     1        0.109923   305235.185498    ;  uncertainty r = 0.000027, k = 1.734868
         8         9     1        0.152865   205184.468311    ;  uncertainty r = 0.000063, k = 8.704113
         8        31     1        0.142871   232269.177588    ;  uncertainty r = 0.000164, k = 10.502948
         8        44     1        0.110054   304783.817090    ;  uncertainty r = 0.000061, k = 3.237286
         9        10     1        0.153372   213832.878540    ;  uncertainty r = 0.000061, k = 3.086482
         9        45     1        0.109669   309927.425049    ;  uncertainty r = 0.000019, k = 0.707158
         9        46     1        0.109669   309927.425049    ;  uncertainty r = 0.000019, k = 0.707158
        10        11     1        0.153242   204627.146436    ;  uncertainty r = 0.000107, k = 8.446574
        10        47     1        0.109603   307691.242529    ;  uncertainty r = 0.000022, k = 1.054580
        10        48     1        0.109603   307691.242529    ;  uncertainty r = 0.000022, k = 1.054580
        11        12     1        0.153739   194039.869482    ;  uncertainty r = 0.000049, k = 9.258954
        11        30     1        0.153400   194695.917822    ;  uncertainty r = 0.000160, k = 12.259017
        11        49     1        0.109712   307584.676172    ;  uncertainty r = 0.000061, k = 3.997495
        12        13     1        0.151697   221951.751270    ;  uncertainty r = 0.000088, k = 6.014300
        12        19     1        0.146438   246437.344629    ;  uncertainty r = 0.000120, k = 17.715141
        12        50     1        0.110060   298327.090967    ;  uncertainty r = 0.000134, k = 4.183520
        13        14     1        0.139859   350947.632764    ;  uncertainty r = 0.000040, k = 0.862450
        13        18     1        0.139859   350947.632764    ;  uncertainty r = 0.000040, k = 0.862450
        14        15     1        0.139620   365997.698340    ;  uncertainty r = 0.000023, k = 1.204481
        14        51     1        0.108883   334327.826611    ;  uncertainty r = 0.000023, k = 0.510248
        15        16     1        0.139607   371240.977637    ;  uncertainty r = 0.000016, k = 0.703184
        15        52     1        0.108851   333986.906201    ;  uncertainty r = 0.000010, k = 1.017345
        16        17     1        0.139607   371240.977637    ;  uncertainty r = 0.000016, k = 0.703184
        16        53     1        0.108841   334518.920801    ;  uncertainty r = 0.000012, k = 0.635624
        17        18     1        0.139620   365997.698340    ;  uncertainty r = 0.000023, k = 1.204481
        17        54     1        0.108851   333986.906201    ;  uncertainty r = 0.000010, k = 1.017345
        18        55     1        0.108883   334327.826611    ;  uncertainty r = 0.000023, k = 0.510248
        19        20     1        0.139955   343991.400781    ;  uncertainty r = 0.000126, k = 9.082252
        19        56     1        0.101439   412844.274170    ;  uncertainty r = 0.000047, k = 2.472848
        20        21     1        0.140556   370764.429639    ;  uncertainty r = 0.000088, k = 8.886549
        20        29     1        0.140569   348542.675488    ;  uncertainty r = 0.000154, k = 24.557417
        21        22     1        0.139237   369140.295020    ;  uncertainty r = 0.000080, k = 6.065473
        21        57     1        0.108972   336335.579688    ;  uncertainty r = 0.000020, k = 1.961560
        22        23     1        0.139993   342791.437549    ;  uncertainty r = 0.000055, k = 3.149920
        22        58     1        0.108722   334842.271680    ;  uncertainty r = 0.000029, k = 1.142413
        23        24     1        0.151796   210318.755225    ;  uncertainty r = 0.000061, k = 4.451904
        23        28     1        0.139700   338297.621338    ;  uncertainty r = 0.000123, k = 7.301122
        24        25     1        0.153655   198668.802539    ;  uncertainty r = 0.000045, k = 2.713768
        24        26     1        0.153655   198668.802539    ;  uncertainty r = 0.000045, k = 2.713768
        24        27     1        0.153655   198668.802539    ;  uncertainty r = 0.000045, k = 2.713768
        25        59     1        0.109659   308676.668506    ;  uncertainty r = 0.000022, k = 1.372170
        25        60     1        0.109659   308676.668506    ;  uncertainty r = 0.000022, k = 1.372170
        25        61     1        0.109659   308676.668506    ;  uncertainty r = 0.000022, k = 1.372170
        26        62     1        0.109659   308676.668506    ;  uncertainty r = 0.000022, k = 1.372170
        26        63     1        0.109659   308676.668506    ;  uncertainty r = 0.000022, k = 1.372170
        26        64     1        0.109659   308676.668506    ;  uncertainty r = 0.000022, k = 1.372170
        27        65     1        0.109659   308676.642969    ;  uncertainty r = 0.000022, k = 1.372170
        27        66     1        0.109659   308676.642969    ;  uncertainty r = 0.000022, k = 1.372170
        27        67     1        0.109659   308676.642969    ;  uncertainty r = 0.000022, k = 1.372170
        28        29     1        0.139488   352171.932861    ;  uncertainty r = 0.000086, k = 3.608711
        28        68     1        0.108815   334998.303418    ;  uncertainty r = 0.000071, k = 3.653190
        29        30     1        0.150970   220690.550049    ;  uncertainty r = 0.000113, k = 8.322401
        30        31     1        0.143135   226650.681543    ;  uncertainty r = 0.000162, k = 8.892125
        30        69     1        0.110073   304804.348926    ;  uncertainty r = 0.000100, k = 3.298894

[ angles ]
;       ai        aj        ak funct           theta             cth
         1         2         3     1      111.736427      668.973692    ;  uncertainty theta = 0.001546, k = 0.058558
         1         2        35     1      108.243225      429.089483    ;  uncertainty theta = 0.001994, k = 0.027986
         1         2        36     1      108.243225      429.089483    ;  uncertainty theta = 0.001994, k = 0.027986
         2         1        32     1      108.143028      402.901720    ;  uncertainty theta = 0.001651, k = 0.018472
         2         1        33     1      108.143028      402.901720    ;  uncertainty theta = 0.001651, k = 0.018472
         2         1        34     1      108.143028      402.901720    ;  uncertainty theta = 0.001651, k = 0.018472
         2         3         4     1      105.081345      480.868558    ;  uncertainty theta = 0.001215, k = 0.091380
         2         3         7     1      105.292381      471.832826    ;  uncertainty theta = 0.002331, k = 0.083501
         3         2        35     1      106.417397      431.197571    ;  uncertainty theta = 0.003102, k = 0.046387
         3         2        36     1      106.417397      431.197571    ;  uncertainty theta = 0.003102, k = 0.046387
         3         4         5     1      109.231003      571.956043    ;  uncertainty theta = 0.002505, k = 0.037019
         3         4        37     1      107.195068      433.059641    ;  uncertainty theta = 0.002588, k = 0.057151
         3         4        38     1      107.195068      433.059641    ;  uncertainty theta = 0.002588, k = 0.057151
         3         7         8     1      110.190369      554.728198    ;  uncertainty theta = 0.000966, k = 0.084635
         3         7        42     1      107.461548      435.677195    ;  uncertainty theta = 0.001289, k = 0.080320
         3         7        43     1      107.461548      435.677195    ;  uncertainty theta = 0.001289, k = 0.080320
         4         3         7     1      105.046219      466.192604    ;  uncertainty theta = 0.003076, k = 0.133165
         4         5         6     1      111.073219      754.990529    ;  uncertainty theta = 0.001319, k = 0.135811
         4         5        39     1      108.899170      402.940919    ;  uncertainty theta = 0.001524, k = 0.020421
         4         5        40     1      108.899170      402.940919    ;  uncertainty theta = 0.001524, k = 0.020421
         5         4        37     1      107.863121      417.108269    ;  uncertainty theta = 0.001765, k = 0.065176
         5         4        38     1      107.863121      417.108269    ;  uncertainty theta = 0.001765, k = 0.065176
         5         6        41     1      107.387192      451.292882    ;  uncertainty theta = 0.001589, k = 0.044528
         6         5        39     1      108.332375      474.992788    ;  uncertainty theta = 0.000859, k = 0.044659
         6         5        40     1      108.332375      474.992788    ;  uncertainty theta = 0.000859, k = 0.044659
         7         8         9     1      111.651855      553.747446    ;  uncertainty theta = 0.002151, k = 0.094559
         7         8        31     1      107.186996      568.555011    ;  uncertainty theta = 0.002200, k = 0.054423
         7         8        44     1      108.323074      398.428959    ;  uncertainty theta = 0.003090, k = 0.099847
         8         7        42     1      107.108032      408.198499    ;  uncertainty theta = 0.002458, k = 0.062030
         8         7        43     1      107.108032      408.198499    ;  uncertainty theta = 0.002458, k = 0.062030
         8         9        10     1      109.295631      593.547158    ;  uncertainty theta = 0.003158, k = 0.061093
         8         9        45     1      107.805557      381.892148    ;  uncertainty theta = 0.001437, k = 0.088946
         8         9        46     1      107.805557      381.892148    ;  uncertainty theta = 0.001437, k = 0.088946
         8        31        30     1      110.788818      506.191411    ;  uncertainty theta = 0.005823, k = 0.165325
         9         8        31     1      110.178566      685.298481    ;  uncertainty theta = 0.003132, k = 0.152637
         9         8        44     1      109.079063      401.439337    ;  uncertainty theta = 0.001775, k = 0.063880
         9        10        11     1      109.528549      575.326239    ;  uncertainty theta = 0.001878, k = 0.111686
         9        10        47     1      108.677223      404.365411    ;  uncertainty theta = 0.001698, k = 0.085298
         9        10        48     1      108.677223      404.365411    ;  uncertainty theta = 0.001698, k = 0.085298
        10         9        45     1      109.053627      398.455198    ;  uncertainty theta = 0.000838, k = 0.057153
        10         9        46     1      109.053627      398.455198    ;  uncertainty theta = 0.000838, k = 0.057153
        10        11        12     1      110.668663      549.457275    ;  uncertainty theta = 0.001592, k = 0.164942
        10        11        30     1      109.757545      586.243673    ;  uncertainty theta = 0.001743, k = 0.104953
        10        11        49     1      108.033615      400.292593    ;  uncertainty theta = 0.002769, k = 0.102571
        11        10        47     1      108.106873      388.738041    ;  uncertainty theta = 0.001573, k = 0.068099
        11        10        48     1      108.106873      388.738041    ;  uncertainty theta = 0.001573, k = 0.068099
        11        12        13     1      111.667801      538.117586    ;  uncertainty theta = 0.002515, k = 0.172335
        11        12        19     1      108.357506      705.618040    ;  uncertainty theta = 0.004557, k = 0.110168
        11        12        50     1      107.075500      386.196237    ;  uncertainty theta = 0.002778, k = 0.128014
        11        30        29     1      111.590050      557.536834    ;  uncertainty theta = 0.004305, k = 0.213281
        11        30        31     1      110.983864      663.083813    ;  uncertainty theta = 0.005571, k = 0.093097
        11        30        69     1      107.766991      393.384167    ;  uncertainty theta = 0.003517, k = 0.113971
        12        11        30     1      109.545090      552.757117    ;  uncertainty theta = 0.004180, k = 0.136617
        12        11        49     1      105.964149      389.824836    ;  uncertainty theta = 0.001608, k = 0.093762
        12        13        14     1      119.922928      425.651326    ;  uncertainty theta = 0.003113, k = 0.143043
        12        13        18     1      119.922928      425.651326    ;  uncertainty theta = 0.003113, k = 0.143043
        12        19        20     1      114.218895      391.657475    ;  uncertainty theta = 0.007311, k = 0.149022
        12        19        56     1      110.064499      352.462577    ;  uncertainty theta = 0.003551, k = 0.095281
        13        12        19     1      111.031082      663.623221    ;  uncertainty theta = 0.001203, k = 0.168660
        13        12        50     1      106.340919      410.762170    ;  uncertainty theta = 0.002105, k = 0.098132
        13        14        15     1      121.166641      520.323009    ;  uncertainty theta = 0.001889, k = 0.047519
        13        14        51     1      118.895851      266.730000    ;  uncertainty theta = 0.002264, k = 0.064094
        13        18        17     1      121.166641      520.323009    ;  uncertainty theta = 0.001889, k = 0.047519
        13        18        55     1      118.895851      266.730000    ;  uncertainty theta = 0.002264, k = 0.064094
        14        13        18     1      120.206970      460.017476    ;  uncertainty theta = 0.003029, k = 0.098153
        14        15        16     1      119.685776      513.267201    ;  uncertainty theta = 0.000971, k = 0.012607
        14        15        52     1      120.211227      283.897545    ;  uncertainty theta = 0.001315, k = 0.018226
        15        14        51     1      120.235497      292.477280    ;  uncertainty theta = 0.001696, k = 0.031106
        15        16        17     1      118.246803      526.555213    ;  uncertainty theta = 0.000903, k = 0.024013
        15        16        53     1      120.647278      289.320829    ;  uncertainty theta = 0.001403, k = 0.006566
        16        15        52     1      120.620949      287.638764    ;  uncertainty theta = 0.001444, k = 0.012507
        16        17        18     1      119.685776      513.267201    ;  uncertainty theta = 0.000971, k = 0.012607
        16        17        54     1      120.620949      287.638764    ;  uncertainty theta = 0.001444, k = 0.012507
        17        16        53     1      120.647278      289.320829    ;  uncertainty theta = 0.001403, k = 0.006566
        17        18        55     1      120.235497      292.477280    ;  uncertainty theta = 0.001696, k = 0.031106
        18        17        54     1      120.211227      283.897545    ;  uncertainty theta = 0.001315, k = 0.018226
        19        12        50     1      107.894577      455.839254    ;  uncertainty theta = 0.003753, k = 0.115430
        19        20        21     1      123.195900      579.546502    ;  uncertainty theta = 0.003901, k = 0.120660
        19        20        29     1      122.183632      502.043897    ;  uncertainty theta = 0.009956, k = 0.232538
        20        19        56     1      111.105759      386.782760    ;  uncertainty theta = 0.005516, k = 0.186771
        20        21        22     1      120.532898      517.885587    ;  uncertainty theta = 0.002391, k = 0.088136
        20        21        57     1      119.057823      279.340288    ;  uncertainty theta = 0.004521, k = 0.179263
        20        29        28     1      120.545067      452.259206    ;  uncertainty theta = 0.006623, k = 0.113832
        20        29        30     1      120.208557      353.915032    ;  uncertainty theta = 0.008847, k = 0.488386
        21        20        29     1      118.531960      383.718116    ;  uncertainty theta = 0.004614, k = 0.149296
        21        22        23     1      122.393967      522.473616    ;  uncertainty theta = 0.002616, k = 0.107909
        21        22        58     1      119.129318      294.022594    ;  uncertainty theta = 0.002554, k = 0.038659
        22        21        57     1      121.047104      286.721471    ;  uncertainty theta = 0.002259, k = 0.093934
        22        23        24     1      120.109047      398.552559    ;  uncertainty theta = 0.004264, k = 0.135852
        22        23        28     1      119.761192      460.192150    ;  uncertainty theta = 0.003180, k = 0.102434
        23        22        58     1      118.233643      267.977999    ;  uncertainty theta = 0.002193, k = 0.135443
        23        24        25     1      108.206238      553.041217    ;  uncertainty theta = 0.002231, k = 0.088894
        23        24        26     1      108.206238      553.041217    ;  uncertainty theta = 0.002231, k = 0.088894
        23        24        27     1      108.206238      553.041217    ;  uncertainty theta = 0.002231, k = 0.088894
        23        28        29     1      124.342102      515.754962    ;  uncertainty theta = 0.003602, k = 0.158074
        23        28        68     1      117.703430      270.875982    ;  uncertainty theta = 0.002530, k = 0.122470
        24        23        28     1      119.806641      384.076337    ;  uncertainty theta = 0.004197, k = 0.110948
        24        25        59     1      107.702896      383.895375    ;  uncertainty theta = 0.000831, k = 0.040751
        24        25        60     1      107.702896      383.895375    ;  uncertainty theta = 0.000831, k = 0.040751
        24        25        61     1      107.702896      383.895375    ;  uncertainty theta = 0.000831, k = 0.040751
        24        26        62     1      107.702896      383.895375    ;  uncertainty theta = 0.000831, k = 0.040751
        24        26        63     1      107.702896      383.895375    ;  uncertainty theta = 0.000831, k = 0.040751
        24        26        64     1      107.702896      383.895375    ;  uncertainty theta = 0.000831, k = 0.040751
        24        27        65     1      107.702896      383.895375    ;  uncertainty theta = 0.000831, k = 0.040751
        24        27        66     1      107.702896      383.895375    ;  uncertainty theta = 0.000831, k = 0.040751
        24        27        67     1      107.702896      383.895375    ;  uncertainty theta = 0.000831, k = 0.040751
        25        24        26     1      108.458336      575.992949    ;  uncertainty theta = 0.002954, k = 0.058060
        25        24        27     1      108.458336      575.992949    ;  uncertainty theta = 0.002954, k = 0.058060
        26        24        27     1      108.458336      575.992949    ;  uncertainty theta = 0.002954, k = 0.058060
        28        29        30     1      119.312012      399.275578    ;  uncertainty theta = 0.003855, k = 0.069650
        29        28        68     1      117.366898      276.869988    ;  uncertainty theta = 0.005098, k = 0.120745
        29        30        31     1      109.085526      649.861592    ;  uncertainty theta = 0.006994, k = 0.376453
        29        30        69     1      108.530869      392.836779    ;  uncertainty theta = 0.004526, k = 0.084647
        30        11        49     1      106.452866      398.861845    ;  uncertainty theta = 0.002907, k = 0.084787
        31         8        44     1      106.583763      456.936456    ;  uncertainty theta = 0.005276, k = 0.170567
        31        30        69     1      106.282326      448.137038    ;  uncertainty theta = 0.002866, k = 0.167314
        32         1        33     1      105.171219      314.563719    ;  uncertainty theta = 0.001614, k = 0.033234
        32         1        34     1      105.171219      314.563719    ;  uncertainty theta = 0.001614, k = 0.033234
        33         1        34     1      105.171219      314.563719    ;  uncertainty theta = 0.001614, k = 0.033234
        35         2        36     1      105.033791      315.735713    ;  uncertainty theta = 0.002817, k = 0.038323
        37         4        38     1      105.805031      320.304972    ;  uncertainty theta = 0.002176, k = 0.040763
        39         5        40     1      107.324768      319.895900    ;  uncertainty theta = 0.001818, k = 0.046974
        42         7        43     1      105.602356      324.793279    ;  uncertainty theta = 0.001413, k = 0.023930
        45         9        46     1      105.201256      313.898222    ;  uncertainty theta = 0.000860, k = 0.027212
        47        10        48     1      104.585793      315.268990    ;  uncertainty theta = 0.002093, k = 0.030266
        59        25        60     1      105.347046      318.192287    ;  uncertainty theta = 0.000899, k = 0.012007
        59        25        61     1      105.347046      318.192287    ;  uncertainty theta = 0.000899, k = 0.012007
        60        25        61     1      105.347046      318.192287    ;  uncertainty theta = 0.000899, k = 0.012007
        62        26        63     1      105.347046      318.192319    ;  uncertainty theta = 0.000899, k = 0.012007
        62        26        64     1      105.347046      318.192319    ;  uncertainty theta = 0.000899, k = 0.012007
        63        26        64     1      105.347046      318.192319    ;  uncertainty theta = 0.000899, k = 0.012007
        65        27        66     1      105.347046      318.192319    ;  uncertainty theta = 0.000899, k = 0.012007
        65        27        67     1      105.347046      318.192319    ;  uncertainty theta = 0.000899, k = 0.012007
        66        27        67     1      105.347046      318.192319    ;  uncertainty theta = 0.000899, k = 0.012007

[ dihedrals ] ; propers for gromacs 4.5 or higher, use funct 9
;       ai        aj        ak        al funct           phase               k        pn
         1         2         3         4     9        0.000000       -2.092797         1    ;  uncertainty k = 0.401466
         1         2         3         4     9      180.000000       -1.406647         2    ;  uncertainty k = 0.189261
         1         2         3         4     9        0.000000        1.244903         3    ;  uncertainty k = 0.048523
         1         2         3         4     9      180.000000        0.204760         4    ;  uncertainty k = 0.046696
         1         2         3         7     9        0.000000       -1.943042         1    ;  uncertainty k = 0.369700
         1         2         3         7     9      180.000000       -1.384680         2    ;  uncertainty k = 0.187283
         1         2         3         7     9        0.000000        1.189500         3    ;  uncertainty k = 0.071786
         1         2         3         7     9      180.000000        0.199474         4    ;  uncertainty k = 0.046788
         2         3         4         5     9        0.000000       -2.006066         1    ;  uncertainty k = 0.567469
         2         3         4         5     9      180.000000       -2.016700         2    ;  uncertainty k = 0.136229
         2         3         4         5     9        0.000000        1.047796         3    ;  uncertainty k = 0.100878
         2         3         4         5     9      180.000000        0.153903         4    ;  uncertainty k = 0.026191
         2         3         4        37     9        0.000000       -2.047128         1    ;  uncertainty k = 0.296608
         2         3         4        37     9      180.000000       -0.524314         2    ;  uncertainty k = 0.185081
         2         3         4        37     9        0.000000        0.565041         3    ;  uncertainty k = 0.080945
         2         3         4        37     9      180.000000       -0.039036         4    ;  uncertainty k = 0.028337
         2         3         4        38     9        0.000000       -2.047128         1    ;  uncertainty k = 0.296608
         2         3         4        38     9      180.000000       -0.524314         2    ;  uncertainty k = 0.185081
         2         3         4        38     9        0.000000        0.565041         3    ;  uncertainty k = 0.080945
         2         3         4        38     9      180.000000       -0.039036         4    ;  uncertainty k = 0.028337
         2         3         7         8     9        0.000000       -2.007334         1    ;  uncertainty k = 0.668164
         2         3         7         8     9      180.000000       -2.355883         2    ;  uncertainty k = 0.305999
         2         3         7         8     9        0.000000        0.913066         3    ;  uncertainty k = 0.074376
         2         3         7         8     9      180.000000        0.253329         4    ;  uncertainty k = 0.113736
         2         3         7        42     9        0.000000       -1.881261         1    ;  uncertainty k = 0.346989
         2         3         7        42     9      180.000000       -0.474667         2    ;  uncertainty k = 0.331535
         2         3         7        42     9        0.000000        0.544077         3    ;  uncertainty k = 0.075097
         2         3         7        42     9      180.000000       -0.063072         4    ;  uncertainty k = 0.037998
         2         3         7        43     9        0.000000       -1.881261         1    ;  uncertainty k = 0.346989
         2         3         7        43     9      180.000000       -0.474667         2    ;  uncertainty k = 0.331535
         2         3         7        43     9        0.000000        0.544077         3    ;  uncertainty k = 0.075097
         2         3         7        43     9      180.000000       -0.063072         4    ;  uncertainty k = 0.037998
         3         2         1        32     9        0.000000       -0.464392         1    ;  uncertainty k = 0.322461
         3         2         1        32     9      180.000000       -1.008334         2    ;  uncertainty k = 0.492550
         3         2         1        32     9        0.000000        1.340427         3    ;  uncertainty k = 0.031196
         3         2         1        32     9      180.000000       -0.207052         4    ;  uncertainty k = 0.094837
         3         2         1        33     9        0.000000       -0.464392         1    ;  uncertainty k = 0.322461
         3         2         1        33     9      180.000000       -1.008334         2    ;  uncertainty k = 0.492550
         3         2         1        33     9        0.000000        1.340427         3    ;  uncertainty k = 0.031196
         3         2         1        33     9      180.000000       -0.207052         4    ;  uncertainty k = 0.094837
         3         2         1        34     9        0.000000       -0.464392         1    ;  uncertainty k = 0.322461
         3         2         1        34     9      180.000000       -1.008334         2    ;  uncertainty k = 0.492550
         3         2         1        34     9        0.000000        1.340427         3    ;  uncertainty k = 0.031196
         3         2         1        34     9      180.000000       -0.207052         4    ;  uncertainty k = 0.094837
         3         4         5         6     9        0.000000       -1.949948         1    ;  uncertainty k = 0.935639
         3         4         5         6     9      180.000000       -1.730277         2    ;  uncertainty k = 0.347164
         3         4         5         6     9        0.000000        2.288256         3    ;  uncertainty k = 0.284434
         3         4         5         6     9      180.000000       -0.290366         4    ;  uncertainty k = 0.151269
         3         4         5        39     9        0.000000        1.647078         1    ;  uncertainty k = 0.757355
         3         4         5        39     9      180.000000       -1.633875         2    ;  uncertainty k = 0.310500
         3         4         5        39     9        0.000000        0.701936         3    ;  uncertainty k = 0.094176
         3         4         5        39     9      180.000000        0.060478         4    ;  uncertainty k = 0.083341
         3         4         5        40     9        0.000000        1.647078         1    ;  uncertainty k = 0.757355
         3         4         5        40     9      180.000000       -1.633875         2    ;  uncertainty k = 0.310500
         3         4         5        40     9        0.000000        0.701936         3    ;  uncertainty k = 0.094176
         3         4         5        40     9      180.000000        0.060478         4    ;  uncertainty k = 0.083341
         3         7         8         9     9        0.000000        0.319756         1    ;  uncertainty k = 0.856674
         3         7         8         9     9      180.000000        0.022256         2    ;  uncertainty k = 0.380171
         3         7         8         9     9        0.000000        1.525982         3    ;  uncertainty k = 0.166227
         3         7         8         9     9      180.000000       -0.283350         4    ;  uncertainty k = 0.069981
         3         7         8        31     9        0.000000       -2.148900         1    ;  uncertainty k = 1.137862
         3         7         8        31     9      180.000000       -2.462329         2    ;  uncertainty k = 0.539931
         3         7         8        31     9        0.000000        2.046580         3    ;  uncertainty k = 0.171061
         3         7         8        31     9      180.000000       -0.086195         4    ;  uncertainty k = 0.142266
         3         7         8        44     9        0.000000        1.610600         1    ;  uncertainty k = 0.864264
         3         7         8        44     9      180.000000       -1.192674         2    ;  uncertainty k = 0.499745
         3         7         8        44     9        0.000000        0.514657         3    ;  uncertainty k = 0.154135
         3         7         8        44     9      180.000000        0.125080         4    ;  uncertainty k = 0.177526
         4         3         2        35     9        0.000000       -2.090492         1    ;  uncertainty k = 0.354250
         4         3         2        35     9      180.000000       -0.915024         2    ;  uncertainty k = 0.116521
         4         3         2        35     9        0.000000        0.506316         3    ;  uncertainty k = 0.066639
         4         3         2        35     9      180.000000       -0.003248         4    ;  uncertainty k = 0.033956
         4         3         2        36     9        0.000000       -2.090492         1    ;  uncertainty k = 0.354250
         4         3         2        36     9      180.000000       -0.915024         2    ;  uncertainty k = 0.116521
         4         3         2        36     9        0.000000        0.506316         3    ;  uncertainty k = 0.066639
         4         3         2        36     9      180.000000       -0.003248         4    ;  uncertainty k = 0.033956
         4         3         7         8     9        0.000000       -2.151675         1    ;  uncertainty k = 0.481063
         4         3         7         8     9      180.000000       -2.362020         2    ;  uncertainty k = 0.271947
         4         3         7         8     9        0.000000        0.868738         3    ;  uncertainty k = 0.028448
         4         3         7         8     9      180.000000        0.239005         4    ;  uncertainty k = 0.098398
         4         3         7        42     9        0.000000       -1.795016         1    ;  uncertainty k = 0.303499
         4         3         7        42     9      180.000000       -0.665731         2    ;  uncertainty k = 0.242615
         4         3         7        42     9        0.000000        0.491385         3    ;  uncertainty k = 0.060967
         4         3         7        42     9      180.000000       -0.060098         4    ;  uncertainty k = 0.044080
         4         3         7        43     9        0.000000       -1.795016         1    ;  uncertainty k = 0.303499
         4         3         7        43     9      180.000000       -0.665731         2    ;  uncertainty k = 0.242615
         4         3         7        43     9        0.000000        0.491385         3    ;  uncertainty k = 0.060967
         4         3         7        43     9      180.000000       -0.060098         4    ;  uncertainty k = 0.044080
         4         5         6        41     9        0.000000       14.764314         1    ;  uncertainty k = 0.201127
         4         5         6        41     9      180.000000       -3.993422         2    ;  uncertainty k = 0.358158
         4         5         6        41     9        0.000000        1.250491         3    ;  uncertainty k = 0.187622
         4         5         6        41     9      180.000000        0.402094         4    ;  uncertainty k = 0.160935
         5         4         3         7     9        0.000000       -1.787418         1    ;  uncertainty k = 0.643984
         5         4         3         7     9      180.000000       -1.977001         2    ;  uncertainty k = 0.093552
         5         4         3         7     9        0.000000        0.936249         3    ;  uncertainty k = 0.137834
         5         4         3         7     9      180.000000        0.144023         4    ;  uncertainty k = 0.060227
         6         5         4        37     9        0.000000       -2.217292         1    ;  uncertainty k = 0.693357
         6         5         4        37     9      180.000000        0.472902         2    ;  uncertainty k = 0.251298
         6         5         4        37     9        0.000000        1.903748         3    ;  uncertainty k = 0.240444
         6         5         4        37     9      180.000000       -0.276255         4    ;  uncertainty k = 0.104328
         6         5         4        38     9        0.000000       -2.217292         1    ;  uncertainty k = 0.693357
         6         5         4        38     9      180.000000        0.472902         2    ;  uncertainty k = 0.251298
         6         5         4        38     9        0.000000        1.903748         3    ;  uncertainty k = 0.240444
         6         5         4        38     9      180.000000       -0.276255         4    ;  uncertainty k = 0.104328
         7         3         2        35     9        0.000000       -2.092272         1    ;  uncertainty k = 0.330347
         7         3         2        35     9      180.000000       -0.937716         2    ;  uncertainty k = 0.091173
         7         3         2        35     9        0.000000        0.434375         3    ;  uncertainty k = 0.069125
         7         3         2        35     9      180.000000       -0.004743         4    ;  uncertainty k = 0.034067
         7         3         2        36     9        0.000000       -2.092272         1    ;  uncertainty k = 0.330347
         7         3         2        36     9      180.000000       -0.937716         2    ;  uncertainty k = 0.091173
         7         3         2        36     9        0.000000        0.434375         3    ;  uncertainty k = 0.069125
         7         3         2        36     9      180.000000       -0.004743         4    ;  uncertainty k = 0.034067
         7         3         4        37     9        0.000000       -1.985732         1    ;  uncertainty k = 0.298276
         7         3         4        37     9      180.000000       -0.719226         2    ;  uncertainty k = 0.168216
         7         3         4        37     9        0.000000        0.464587         3    ;  uncertainty k = 0.101870
         7         3         4        37     9      180.000000       -0.043633         4    ;  uncertainty k = 0.031151
         7         3         4        38     9        0.000000       -1.985732         1    ;  uncertainty k = 0.298276
         7         3         4        38     9      180.000000       -0.719226         2    ;  uncertainty k = 0.168216
         7         3         4        38     9        0.000000        0.464587         3    ;  uncertainty k = 0.101870
         7         3         4        38     9      180.000000       -0.043633         4    ;  uncertainty k = 0.031151
         7         8         9        10     9        0.000000       -2.978290         1    ;  uncertainty k = 0.509011
         7         8         9        10     9      180.000000        0.237476         2    ;  uncertainty k = 0.421824
         7         8         9        10     9        0.000000        0.441346         3    ;  uncertainty k = 0.101554
         7         8         9        10     9      180.000000       -0.320625         4    ;  uncertainty k = 0.150291
         7         8         9        45     9        0.000000       -0.394290         1    ;  uncertainty k = 0.282850
         7         8         9        45     9      180.000000       -0.257812         2    ;  uncertainty k = 0.305429
         7         8         9        45     9        0.000000        0.199910         3    ;  uncertainty k = 0.081041
         7         8         9        45     9      180.000000       -0.228609         4    ;  uncertainty k = 0.097198
         7         8         9        46     9        0.000000       -0.394290         1    ;  uncertainty k = 0.282850
         7         8         9        46     9      180.000000       -0.257812         2    ;  uncertainty k = 0.305429
         7         8         9        46     9        0.000000        0.199910         3    ;  uncertainty k = 0.081041
         7         8         9        46     9      180.000000       -0.228609         4    ;  uncertainty k = 0.097198
         7         8        31        30     9        0.000000       -3.794326         1    ;  uncertainty k = 0.797498
         7         8        31        30     9      180.000000       -0.095327         2    ;  uncertainty k = 0.268683
         7         8        31        30     9        0.000000        0.605594         3    ;  uncertainty k = 0.308768
         7         8        31        30     9      180.000000       -0.069589         4    ;  uncertainty k = 0.197953
         8         9        10        11     9        0.000000       -4.916241         1    ;  uncertainty k = 1.179350
         8         9        10        11     9      180.000000       -0.596616         2    ;  uncertainty k = 0.622259
         8         9        10        11     9        0.000000        1.228034         3    ;  uncertainty k = 0.220084
         8         9        10        11     9      180.000000       -0.981239         4    ;  uncertainty k = 0.190323
         8         9        10        47     9        0.000000       -1.018783         1    ;  uncertainty k = 0.615406
         8         9        10        47     9      180.000000       -0.546910         2    ;  uncertainty k = 0.219798
         8         9        10        47     9        0.000000        0.423442         3    ;  uncertainty k = 0.143167
         8         9        10        47     9      180.000000        0.043723         4    ;  uncertainty k = 0.034280
         8         9        10        48     9        0.000000       -1.018783         1    ;  uncertainty k = 0.615406
         8         9        10        48     9      180.000000       -0.546910         2    ;  uncertainty k = 0.219798
         8         9        10        48     9        0.000000        0.423442         3    ;  uncertainty k = 0.143167
         8         9        10        48     9      180.000000        0.043723         4    ;  uncertainty k = 0.034280
         8        31        30        11     9        0.000000        4.126769         1    ;  uncertainty k = 1.635921
         8        31        30        11     9      180.000000       -1.877872         2    ;  uncertainty k = 1.174678
         8        31        30        11     9        0.000000        0.063044         3    ;  uncertainty k = 0.339560
         8        31        30        11     9      180.000000        0.075857         4    ;  uncertainty k = 0.218179
         8        31        30        29     9        0.000000       -3.016423         1    ;  uncertainty k = 1.586691
         8        31        30        29     9      180.000000       -0.906492         2    ;  uncertainty k = 0.806662
         8        31        30        29     9        0.000000        0.935066         3    ;  uncertainty k = 0.575786
         8        31        30        29     9      180.000000       -0.079948         4    ;  uncertainty k = 0.195661
         8        31        30        69     9        0.000000       -1.604812         1    ;  uncertainty k = 0.612183
         8        31        30        69     9      180.000000       -0.444733         2    ;  uncertainty k = 0.349612
         8        31        30        69     9        0.000000        0.426187         3    ;  uncertainty k = 0.091024
         8        31        30        69     9      180.000000       -0.097349         4    ;  uncertainty k = 0.212844
         9         8         7        42     9        0.000000       -1.115931         1    ;  uncertainty k = 0.442907
         9         8         7        42     9      180.000000        0.061525         2    ;  uncertainty k = 0.390849
         9         8         7        42     9        0.000000        0.383217         3    ;  uncertainty k = 0.135109
         9         8         7        42     9      180.000000       -0.186048         4    ;  uncertainty k = 0.081557
         9         8         7        43     9        0.000000       -1.115931         1    ;  uncertainty k = 0.442907
         9         8         7        43     9      180.000000        0.061525         2    ;  uncertainty k = 0.390849
         9         8         7        43     9        0.000000        0.383217         3    ;  uncertainty k = 0.135109
         9         8         7        43     9      180.000000       -0.186048         4    ;  uncertainty k = 0.081557
         9         8        31        30     9        0.000000        2.627352         1    ;  uncertainty k = 3.039661
         9         8        31        30     9      180.000000       -1.268438         2    ;  uncertainty k = 0.423637
         9         8        31        30     9        0.000000       -0.094144         3    ;  uncertainty k = 0.654540
         9         8        31        30     9      180.000000        0.022709         4    ;  uncertainty k = 0.168499
         9        10        11        12     9        0.000000       -3.443009         1    ;  uncertainty k = 0.608179
         9        10        11        12     9      180.000000        0.070627         2    ;  uncertainty k = 0.162240
         9        10        11        12     9        0.000000        1.150476         3    ;  uncertainty k = 0.146037
         9        10        11        12     9      180.000000       -0.543778         4    ;  uncertainty k = 0.161389
         9        10        11        30     9        0.000000       -3.563441         1    ;  uncertainty k = 0.307586
         9        10        11        30     9      180.000000        0.176643         2    ;  uncertainty k = 0.386290
         9        10        11        30     9        0.000000        1.023471         3    ;  uncertainty k = 0.169038
         9        10        11        30     9      180.000000       -0.791233         4    ;  uncertainty k = 0.071847
         9        10        11        49     9        0.000000       -2.388522         1    ;  uncertainty k = 0.521187
         9        10        11        49     9      180.000000        0.117606         2    ;  uncertainty k = 0.252935
         9        10        11        49     9        0.000000        0.024988         3    ;  uncertainty k = 0.081075
         9        10        11        49     9      180.000000       -0.101909         4    ;  uncertainty k = 0.082236
        10         9         8        31     9        0.000000       -2.243699         1    ;  uncertainty k = 1.024716
        10         9         8        31     9      180.000000       -1.018057         2    ;  uncertainty k = 0.495966
        10         9         8        31     9        0.000000        1.409679         3    ;  uncertainty k = 0.410883
        10         9         8        31     9      180.000000       -0.496074         4    ;  uncertainty k = 0.319822
        10         9         8        44     9        0.000000        0.684254         1    ;  uncertainty k = 0.765822
        10         9         8        44     9      180.000000       -1.923931         2    ;  uncertainty k = 0.733409
        10         9         8        44     9        0.000000       -0.284361         3    ;  uncertainty k = 0.146348
        10         9         8        44     9      180.000000        0.156470         4    ;  uncertainty k = 0.073971
        10        11        12        13     9        0.000000       -0.461049         1    ;  uncertainty k = 0.381282
        10        11        12        13     9      180.000000        0.080824         2    ;  uncertainty k = 0.232856
        10        11        12        13     9        0.000000        1.015758         3    ;  uncertainty k = 0.130571
        10        11        12        13     9      180.000000       -0.026766         4    ;  uncertainty k = 0.089496
        10        11        12        19     9        0.000000       -2.649434         1    ;  uncertainty k = 0.376989
        10        11        12        19     9      180.000000        0.575633         2    ;  uncertainty k = 0.355540
        10        11        12        19     9        0.000000        1.148062         3    ;  uncertainty k = 0.198879
        10        11        12        19     9      180.000000       -0.322936         4    ;  uncertainty k = 0.282819
        10        11        12        50     9        0.000000       -0.245811         1    ;  uncertainty k = 0.386688
        10        11        12        50     9      180.000000       -0.315546         2    ;  uncertainty k = 0.172061
        10        11        12        50     9        0.000000        0.086688         3    ;  uncertainty k = 0.150677
        10        11        12        50     9      180.000000       -0.119145         4    ;  uncertainty k = 0.084487
        10        11        30        29     9        0.000000       -1.840164         1    ;  uncertainty k = 0.888594
        10        11        30        29     9      180.000000       -0.688645         2    ;  uncertainty k = 0.146547
        10        11        30        29     9        0.000000        0.634955         3    ;  uncertainty k = 0.206862
        10        11        30        29     9      180.000000       -0.221448         4    ;  uncertainty k = 0.122069
        10        11        30        31     9        0.000000       -1.617761         1    ;  uncertainty k = 0.867953
        10        11        30        31     9      180.000000       -1.466967         2    ;  uncertainty k = 0.969035
        10        11        30        31     9        0.000000        0.890014         3    ;  uncertainty k = 0.272685
        10        11        30        31     9      180.000000       -0.030199         4    ;  uncertainty k = 0.249355
        10        11        30        69     9        0.000000        0.363062         1    ;  uncertainty k = 0.565972
        10        11        30        69     9      180.000000       -0.520923         2    ;  uncertainty k = 0.414610
        10        11        30        69     9        0.000000       -0.168774         3    ;  uncertainty k = 0.117464
        10        11        30        69     9      180.000000       -0.047661         4    ;  uncertainty k = 0.135136
        11        10         9        45     9        0.000000       -0.785141         1    ;  uncertainty k = 0.229869
        11        10         9        45     9      180.000000       -0.688501         2    ;  uncertainty k = 0.213969
        11        10         9        45     9        0.000000        0.408435         3    ;  uncertainty k = 0.128766
        11        10         9        45     9      180.000000       -0.048998         4    ;  uncertainty k = 0.116549
        11        10         9        46     9        0.000000       -0.785141         1    ;  uncertainty k = 0.229869
        11        10         9        46     9      180.000000       -0.688501         2    ;  uncertainty k = 0.213969
        11        10         9        46     9        0.000000        0.408435         3    ;  uncertainty k = 0.128766
        11        10         9        46     9      180.000000       -0.048998         4    ;  uncertainty k = 0.116549
        11        12        13        14     9        0.000000       -0.128230         1    ;  uncertainty k = 0.712209
        11        12        13        14     9      180.000000        1.832448         2    ;  uncertainty k = 0.216281
        11        12        13        14     9        0.000000        0.279323         3    ;  uncertainty k = 0.140015
        11        12        13        14     9      180.000000        0.244071         4    ;  uncertainty k = 0.076874
        11        12        13        18     9        0.000000       -0.128230         1    ;  uncertainty k = 0.712209
        11        12        13        18     9      180.000000        1.832448         2    ;  uncertainty k = 0.216281
        11        12        13        18     9        0.000000        0.279323         3    ;  uncertainty k = 0.140015
        11        12        13        18     9      180.000000        0.244071         4    ;  uncertainty k = 0.076874
        11        12        19        20     9        0.000000        0.719691         1    ;  uncertainty k = 1.244019
        11        12        19        20     9      180.000000        0.209000         2    ;  uncertainty k = 0.601735
        11        12        19        20     9        0.000000        0.378516         3    ;  uncertainty k = 0.264051
        11        12        19        20     9      180.000000        0.142878         4    ;  uncertainty k = 0.153976
        11        12        19        56     9        0.000000        3.620497         1    ;  uncertainty k = 0.960162
        11        12        19        56     9      180.000000       -1.866274         2    ;  uncertainty k = 1.297278
        11        12        19        56     9        0.000000        0.466328         3    ;  uncertainty k = 0.292683
        11        12        19        56     9      180.000000       -0.015212         4    ;  uncertainty k = 0.082183
        11        30        29        20     9        0.000000        0.352270         1    ;  uncertainty k = 2.703302
        11        30        29        20     9      180.000000       -0.249274         2    ;  uncertainty k = 1.394813
        11        30        29        20     9        0.000000        0.102393         3    ;  uncertainty k = 0.653576
        11        30        29        20     9      180.000000        0.693975         4    ;  uncertainty k = 0.237149
        11        30        29        28     9        0.000000       -1.669955         1    ;  uncertainty k = 0.815488
        11        30        29        28     9      180.000000        0.085622         2    ;  uncertainty k = 0.465860
        11        30        29        28     9        0.000000       -0.190627         3    ;  uncertainty k = 0.169759
        11        30        29        28     9      180.000000        0.407280         4    ;  uncertainty k = 0.167696
        12        11        10        47     9        0.000000        0.094101         1    ;  uncertainty k = 0.301635
        12        11        10        47     9      180.000000       -0.638646         2    ;  uncertainty k = 0.223261
        12        11        10        47     9        0.000000        0.477645         3    ;  uncertainty k = 0.098813
        12        11        10        47     9      180.000000       -0.051282         4    ;  uncertainty k = 0.102093
        12        11        10        48     9        0.000000        0.094101         1    ;  uncertainty k = 0.301635
        12        11        10        48     9      180.000000       -0.638646         2    ;  uncertainty k = 0.223261
        12        11        10        48     9        0.000000        0.477645         3    ;  uncertainty k = 0.098813
        12        11        10        48     9      180.000000       -0.051282         4    ;  uncertainty k = 0.102093
        12        11        30        29     9        0.000000        0.851952         1    ;  uncertainty k = 1.146184
        12        11        30        29     9      180.000000       -2.061306         2    ;  uncertainty k = 0.377811
        12        11        30        29     9        0.000000        0.278302         3    ;  uncertainty k = 0.246860
        12        11        30        29     9      180.000000       -0.149253         4    ;  uncertainty k = 0.127097
        12        11        30        31     9        0.000000       -1.086320         1    ;  uncertainty k = 1.583191
        12        11        30        31     9      180.000000       -3.329487         2    ;  uncertainty k = 1.570623
        12        11        30        31     9        0.000000        0.626985         3    ;  uncertainty k = 0.267638
        12        11        30        31     9      180.000000        0.116292         4    ;  uncertainty k = 0.327289
        12        11        30        69     9        0.000000        0.827756         1    ;  uncertainty k = 0.782493
        12        11        30        69     9      180.000000       -1.073944         2    ;  uncertainty k = 0.477123
        12        11        30        69     9        0.000000       -0.239465         3    ;  uncertainty k = 0.093000
        12        11        30        69     9      180.000000        0.001971         4    ;  uncertainty k = 0.193082
        12        13        14        15     9        0.000000        0.312413         1    ;  uncertainty k = 0.242921
        12        13        14        15     9      180.000000        8.638336         2    ;  uncertainty k = 0.468597
        12        13        14        15     9        0.000000        1.448800         3    ;  uncertainty k = 0.340804
        12        13        14        15     9      180.000000        1.905016         4    ;  uncertainty k = 0.200485
        12        13        14        51     9        0.000000        0.035754         1    ;  uncertainty k = 0.305799
        12        13        14        51     9      180.000000        7.827037         2    ;  uncertainty k = 0.268348
        12        13        14        51     9        0.000000        0.557555         3    ;  uncertainty k = 0.370059
        12        13        14        51     9      180.000000        0.865304         4    ;  uncertainty k = 0.172707
        12        13        18        17     9        0.000000        0.312413         1    ;  uncertainty k = 0.242921
        12        13        18        17     9      180.000000        8.638336         2    ;  uncertainty k = 0.468597
        12        13        18        17     9        0.000000        1.448800         3    ;  uncertainty k = 0.340804
        12        13        18        17     9      180.000000        1.905016         4    ;  uncertainty k = 0.200485
        12        13        18        55     9        0.000000        0.035754         1    ;  uncertainty k = 0.305799
        12        13        18        55     9      180.000000        7.827037         2    ;  uncertainty k = 0.268348
        12        13        18        55     9        0.000000        0.557555         3    ;  uncertainty k = 0.370059
        12        13        18        55     9      180.000000        0.865304         4    ;  uncertainty k = 0.172707
        12        19        20        21     9        0.000000        0.593217         1    ;  uncertainty k = 0.725808
        12        19        20        21     9      180.000000        3.821017         2    ;  uncertainty k = 0.919032
        12        19        20        21     9        0.000000        0.411357         3    ;  uncertainty k = 0.530779
        12        19        20        21     9      180.000000        0.392364         4    ;  uncertainty k = 0.260322
        12        19        20        29     9        0.000000        4.148159         1    ;  uncertainty k = 1.964572
        12        19        20        29     9      180.000000        1.743229         2    ;  uncertainty k = 0.791788
        12        19        20        29     9        0.000000        0.008415         3    ;  uncertainty k = 0.400629
        12        19        20        29     9      180.000000        0.711872         4    ;  uncertainty k = 0.250957
        13        12        11        30     9        0.000000       -0.717354         1    ;  uncertainty k = 0.748357
        13        12        11        30     9      180.000000       -0.367660         2    ;  uncertainty k = 0.370216
        13        12        11        30     9        0.000000        0.397290         3    ;  uncertainty k = 0.216596
        13        12        11        30     9      180.000000       -0.018207         4    ;  uncertainty k = 0.136272
        13        12        11        49     9        0.000000        0.530296         1    ;  uncertainty k = 0.246709
        13        12        11        49     9      180.000000        0.121251         2    ;  uncertainty k = 0.617133
        13        12        11        49     9        0.000000        0.451811         3    ;  uncertainty k = 0.081496
        13        12        11        49     9      180.000000       -0.031873         4    ;  uncertainty k = 0.108858
        13        12        19        20     9        0.000000       -1.240811         1    ;  uncertainty k = 0.913861
        13        12        19        20     9      180.000000        0.100980         2    ;  uncertainty k = 0.285956
        13        12        19        20     9        0.000000        1.048824         3    ;  uncertainty k = 0.262246
        13        12        19        20     9      180.000000        0.199554         4    ;  uncertainty k = 0.098576
        13        12        19        56     9        0.000000        4.878357         1    ;  uncertainty k = 0.569248
        13        12        19        56     9      180.000000       -1.058871         2    ;  uncertainty k = 0.283860
        13        12        19        56     9        0.000000        0.413857         3    ;  uncertainty k = 0.297007
        13        12        19        56     9      180.000000       -0.032689         4    ;  uncertainty k = 0.182555
        13        14        15        16     9        0.000000       -0.073185         1    ;  uncertainty k = 0.135861
        13        14        15        16     9      180.000000       13.840581         2    ;  uncertainty k = 0.218469
        13        14        15        16     9        0.000000       -0.942123         3    ;  uncertainty k = 0.500158
        13        14        15        16     9      180.000000        0.720226         4    ;  uncertainty k = 0.249573
        13        14        15        52     9        0.000000        0.078938         1    ;  uncertainty k = 0.238409
        13        14        15        52     9      180.000000        7.523903         2    ;  uncertainty k = 0.411010
        13        14        15        52     9        0.000000        1.486223         3    ;  uncertainty k = 0.266909
        13        14        15        52     9      180.000000        1.791253         4    ;  uncertainty k = 0.130361
        13        18        17        16     9        0.000000       -0.073185         1    ;  uncertainty k = 0.135861
        13        18        17        16     9      180.000000       13.840581         2    ;  uncertainty k = 0.218469
        13        18        17        16     9        0.000000       -0.942123         3    ;  uncertainty k = 0.500158
        13        18        17        16     9      180.000000        0.720226         4    ;  uncertainty k = 0.249573
        13        18        17        54     9        0.000000        0.078938         1    ;  uncertainty k = 0.238409
        13        18        17        54     9      180.000000        7.523903         2    ;  uncertainty k = 0.411010
        13        18        17        54     9        0.000000        1.486223         3    ;  uncertainty k = 0.266909
        13        18        17        54     9      180.000000        1.791253         4    ;  uncertainty k = 0.130361
        14        13        12        19     9        0.000000       -0.590756         1    ;  uncertainty k = 0.525590
        14        13        12        19     9      180.000000        2.732820         2    ;  uncertainty k = 0.257489
        14        13        12        19     9        0.000000        0.629229         3    ;  uncertainty k = 0.228491
        14        13        12        19     9      180.000000        0.435377         4    ;  uncertainty k = 0.023802
        14        13        12        50     9        0.000000       -0.618195         1    ;  uncertainty k = 0.243533
        14        13        12        50     9      180.000000        2.285546         2    ;  uncertainty k = 0.337301
        14        13        12        50     9        0.000000        0.482603         3    ;  uncertainty k = 0.112818
        14        13        12        50     9      180.000000        0.236140         4    ;  uncertainty k = 0.049741
        14        13        18        17     9        0.000000       -0.244750         1    ;  uncertainty k = 0.085029
        14        13        18        17     9      180.000000       11.550237         2    ;  uncertainty k = 0.281781
        14        13        18        17     9        0.000000       -0.471965         3    ;  uncertainty k = 0.307308
        14        13        18        17     9      180.000000        0.819629         4    ;  uncertainty k = 0.339588
        14        13        18        55     9        0.000000        0.103785         1    ;  uncertainty k = 0.115164
        14        13        18        55     9      180.000000        7.232563         2    ;  uncertainty k = 0.479326
        14        13        18        55     9        0.000000        1.441610         3    ;  uncertainty k = 0.358040
        14        13        18        55     9      180.000000        1.626932         4    ;  uncertainty k = 0.180626
        14        15        16        17     9        0.000000        0.003336         1    ;  uncertainty k = 0.036527
        14        15        16        17     9      180.000000       15.061872         2    ;  uncertainty k = 0.266782
        14        15        16        17     9        0.000000       -1.241530         3    ;  uncertainty k = 0.510934
        14        15        16        17     9      180.000000        0.486540         4    ;  uncertainty k = 0.300058
        14        15        16        53     9        0.000000        0.055741         1    ;  uncertainty k = 0.094832
        14        15        16        53     9      180.000000        7.490470         2    ;  uncertainty k = 0.333391
        14        15        16        53     9        0.000000        1.467122         3    ;  uncertainty k = 0.292764
        14        15        16        53     9      180.000000        1.797081         4    ;  uncertainty k = 0.179699
        15        14        13        18     9        0.000000       -0.244750         1    ;  uncertainty k = 0.085029
        15        14        13        18     9      180.000000       11.550237         2    ;  uncertainty k = 0.281781
        15        14        13        18     9        0.000000       -0.471965         3    ;  uncertainty k = 0.307308
        15        14        13        18     9      180.000000        0.819629         4    ;  uncertainty k = 0.339588
        15        16        17        18     9        0.000000        0.003336         1    ;  uncertainty k = 0.036527
        15        16        17        18     9      180.000000       15.061872         2    ;  uncertainty k = 0.266782
        15        16        17        18     9        0.000000       -1.241530         3    ;  uncertainty k = 0.510934
        15        16        17        18     9      180.000000        0.486540         4    ;  uncertainty k = 0.300058
        15        16        17        54     9        0.000000        0.045944         1    ;  uncertainty k = 0.040455
        15        16        17        54     9      180.000000        7.527538         2    ;  uncertainty k = 0.325492
        15        16        17        54     9        0.000000        1.433628         3    ;  uncertainty k = 0.327115
        15        16        17        54     9      180.000000        1.790207         4    ;  uncertainty k = 0.158460
        16        15        14        51     9        0.000000        0.053110         1    ;  uncertainty k = 0.076538
        16        15        14        51     9      180.000000        7.946076         2    ;  uncertainty k = 0.338882
        16        15        14        51     9        0.000000        1.427769         3    ;  uncertainty k = 0.326160
        16        15        14        51     9      180.000000        1.836126         4    ;  uncertainty k = 0.159402
        16        17        18        55     9        0.000000        0.053110         1    ;  uncertainty k = 0.076538
        16        17        18        55     9      180.000000        7.946076         2    ;  uncertainty k = 0.338882
        16        17        18        55     9        0.000000        1.427769         3    ;  uncertainty k = 0.326160
        16        17        18        55     9      180.000000        1.836126         4    ;  uncertainty k = 0.159402
        17        16        15        52     9        0.000000        0.045944         1    ;  uncertainty k = 0.040455
        17        16        15        52     9      180.000000        7.527538         2    ;  uncertainty k = 0.325492
        17        16        15        52     9        0.000000        1.433628         3    ;  uncertainty k = 0.327115
        17        16        15        52     9      180.000000        1.790207         4    ;  uncertainty k = 0.158460
        18        13        12        19     9        0.000000       -0.590756         1    ;  uncertainty k = 0.525590
        18        13        12        19     9      180.000000        2.732820         2    ;  uncertainty k = 0.257489
        18        13        12        19     9        0.000000        0.629229         3    ;  uncertainty k = 0.228491
        18        13        12        19     9      180.000000        0.435377         4    ;  uncertainty k = 0.023802
        18        13        12        50     9        0.000000       -0.618195         1    ;  uncertainty k = 0.243533
        18        13        12        50     9      180.000000        2.285546         2    ;  uncertainty k = 0.337301
        18        13        12        50     9        0.000000        0.482603         3    ;  uncertainty k = 0.112818
        18        13        12        50     9      180.000000        0.236140         4    ;  uncertainty k = 0.049741
        18        13        14        51     9        0.000000        0.103785         1    ;  uncertainty k = 0.115164
        18        13        14        51     9      180.000000        7.232563         2    ;  uncertainty k = 0.479326
        18        13        14        51     9        0.000000        1.441610         3    ;  uncertainty k = 0.358040
        18        13        14        51     9      180.000000        1.626932         4    ;  uncertainty k = 0.180626
        18        17        16        53     9        0.000000        0.055741         1    ;  uncertainty k = 0.094832
        18        17        16        53     9      180.000000        7.490470         2    ;  uncertainty k = 0.333391
        18        17        16        53     9        0.000000        1.467122         3    ;  uncertainty k = 0.292764
        18        17        16        53     9      180.000000        1.797081         4    ;  uncertainty k = 0.179699
        19        12        11        30     9        0.000000       -0.007594         1    ;  uncertainty k = 2.197311
        19        12        11        30     9      180.000000       -1.143082         2    ;  uncertainty k = 0.276445
        19        12        11        30     9        0.000000        0.537168         3    ;  uncertainty k = 0.459074
        19        12        11        30     9      180.000000       -0.178266         4    ;  uncertainty k = 0.357380
        19        12        11        49     9        0.000000       -0.947833         1    ;  uncertainty k = 0.627969
        19        12        11        49     9      180.000000        0.170574         2    ;  uncertainty k = 0.410475
        19        12        11        49     9        0.000000        0.627907         3    ;  uncertainty k = 0.278857
        19        12        11        49     9      180.000000        0.059564         4    ;  uncertainty k = 0.093137
        19        20        21        22     9        0.000000        0.275062         1    ;  uncertainty k = 0.339156
        19        20        21        22     9      180.000000       10.446244         2    ;  uncertainty k = 0.469378
        19        20        21        22     9        0.000000        1.235222         3    ;  uncertainty k = 0.221334
        19        20        21        22     9      180.000000        1.643603         4    ;  uncertainty k = 0.226734
        19        20        21        57     9        0.000000       -0.323884         1    ;  uncertainty k = 0.647803
        19        20        21        57     9      180.000000        8.078758         2    ;  uncertainty k = 0.274359
        19        20        21        57     9        0.000000        1.040695         3    ;  uncertainty k = 0.154407
        19        20        21        57     9      180.000000        1.233017         4    ;  uncertainty k = 0.296042
        19        20        29        28     9        0.000000        0.549330         1    ;  uncertainty k = 0.577912
        19        20        29        28     9      180.000000        7.809251         2    ;  uncertainty k = 0.312540
        19        20        29        28     9        0.000000        0.985712         3    ;  uncertainty k = 0.158909
        19        20        29        28     9      180.000000        1.312031         4    ;  uncertainty k = 0.361791
        19        20        29        30     9        0.000000        0.009123         1    ;  uncertainty k = 0.517463
        19        20        29        30     9      180.000000        7.645438         2    ;  uncertainty k = 0.986694
        19        20        29        30     9        0.000000        0.692114         3    ;  uncertainty k = 0.575252
        19        20        29        30     9      180.000000        1.188844         4    ;  uncertainty k = 0.472770
        20        19        12        50     9        0.000000       -0.859913         1    ;  uncertainty k = 0.376971
        20        19        12        50     9      180.000000       -0.534873         2    ;  uncertainty k = 0.442169
        20        19        12        50     9        0.000000        0.715681         3    ;  uncertainty k = 0.162008
        20        19        12        50     9      180.000000        0.204030         4    ;  uncertainty k = 0.096027
        20        21        22        23     9        0.000000       -0.155470         1    ;  uncertainty k = 0.135278
        20        21        22        23     9      180.000000       13.414342         2    ;  uncertainty k = 0.323257
        20        21        22        23     9        0.000000       -0.600785         3    ;  uncertainty k = 0.543739
        20        21        22        23     9      180.000000        0.829597         4    ;  uncertainty k = 0.308177
        20        21        22        58     9        0.000000        0.296132         1    ;  uncertainty k = 0.490824
        20        21        22        58     9      180.000000        9.215279         2    ;  uncertainty k = 0.526918
        20        21        22        58     9        0.000000        1.248290         3    ;  uncertainty k = 0.298927
        20        21        22        58     9      180.000000        1.573102         4    ;  uncertainty k = 0.321455
        20        29        28        23     9        0.000000       -0.123950         1    ;  uncertainty k = 0.285922
        20        29        28        23     9      180.000000       11.753959         2    ;  uncertainty k = 0.414844
        20        29        28        23     9        0.000000       -0.320006         3    ;  uncertainty k = 0.507615
        20        29        28        23     9      180.000000        0.875037         4    ;  uncertainty k = 0.436083
        20        29        28        68     9        0.000000        0.181592         1    ;  uncertainty k = 0.375493
        20        29        28        68     9      180.000000        8.361258         2    ;  uncertainty k = 0.480828
        20        29        28        68     9        0.000000        1.392288         3    ;  uncertainty k = 0.272512
        20        29        28        68     9      180.000000        1.536169         4    ;  uncertainty k = 0.201585
        20        29        30        31     9        0.000000       -2.104726         1    ;  uncertainty k = 2.455139
        20        29        30        31     9      180.000000        0.348970         2    ;  uncertainty k = 1.170826
        20        29        30        31     9        0.000000        1.519598         3    ;  uncertainty k = 0.353652
        20        29        30        31     9      180.000000       -0.000570         4    ;  uncertainty k = 0.157450
        20        29        30        69     9        0.000000       -0.398748         1    ;  uncertainty k = 0.801148
        20        29        30        69     9      180.000000        2.096459         2    ;  uncertainty k = 0.198718
        20        29        30        69     9        0.000000        0.484743         3    ;  uncertainty k = 0.234726
        20        29        30        69     9      180.000000       -0.189317         4    ;  uncertainty k = 0.131358
        21        20        19        56     9        0.000000        1.703198         1    ;  uncertainty k = 0.593669
        21        20        19        56     9      180.000000        4.585995         2    ;  uncertainty k = 0.346053
        21        20        19        56     9        0.000000        0.705300         3    ;  uncertainty k = 0.296874
        21        20        19        56     9      180.000000        0.009233         4    ;  uncertainty k = 0.176095
        21        20        29        28     9        0.000000        0.277335         1    ;  uncertainty k = 0.151367
        21        20        29        28     9      180.000000        6.242640         2    ;  uncertainty k = 0.575547
        21        20        29        28     9        0.000000        0.315396         3    ;  uncertainty k = 0.447584
        21        20        29        28     9      180.000000        1.316416         4    ;  uncertainty k = 0.213913
        21        20        29        30     9        0.000000        0.613200         1    ;  uncertainty k = 0.599367
        21        20        29        30     9      180.000000        5.675937         2    ;  uncertainty k = 0.486311
        21        20        29        30     9        0.000000        1.243612         3    ;  uncertainty k = 0.268849
        21        20        29        30     9      180.000000        1.596802         4    ;  uncertainty k = 0.300836
        21        22        23        24     9        0.000000        0.171939         1    ;  uncertainty k = 0.237998
        21        22        23        24     9      180.000000        8.086205         2    ;  uncertainty k = 0.335582
        21        22        23        24     9        0.000000        1.350918         3    ;  uncertainty k = 0.274555
        21        22        23        24     9      180.000000        1.836981         4    ;  uncertainty k = 0.170914
        21        22        23        28     9        0.000000       -0.191051         1    ;  uncertainty k = 0.058966
        21        22        23        28     9      180.000000       11.166448         2    ;  uncertainty k = 0.404883
        21        22        23        28     9        0.000000       -0.347580         3    ;  uncertainty k = 0.214175
        21        22        23        28     9      180.000000        0.958059         4    ;  uncertainty k = 0.255738
        22        21        20        29     9        0.000000        0.157099         1    ;  uncertainty k = 0.189600
        22        21        20        29     9      180.000000        7.858345         2    ;  uncertainty k = 0.559718
        22        21        20        29     9        0.000000        0.254311         3    ;  uncertainty k = 0.550576
        22        21        20        29     9      180.000000        1.348966         4    ;  uncertainty k = 0.188664
        22        23        24        25     9        0.000000       -0.257730         1    ;  uncertainty k = 0.371270
        22        23        24        25     9      180.000000        2.542546         2    ;  uncertainty k = 0.166546
        22        23        24        25     9        0.000000        0.361656         3    ;  uncertainty k = 0.070149
        22        23        24        25     9      180.000000        0.359540         4    ;  uncertainty k = 0.061767
        22        23        24        26     9        0.000000       -0.257730         1    ;  uncertainty k = 0.371270
        22        23        24        26     9      180.000000        2.542546         2    ;  uncertainty k = 0.166546
        22        23        24        26     9        0.000000        0.361656         3    ;  uncertainty k = 0.070149
        22        23        24        26     9      180.000000        0.359540         4    ;  uncertainty k = 0.061767
        22        23        24        27     9        0.000000       -0.257730         1    ;  uncertainty k = 0.371270
        22        23        24        27     9      180.000000        2.542546         2    ;  uncertainty k = 0.166546
        22        23        24        27     9        0.000000        0.361656         3    ;  uncertainty k = 0.070149
        22        23        24        27     9      180.000000        0.359540         4    ;  uncertainty k = 0.061767
        22        23        28        29     9        0.000000        0.058886         1    ;  uncertainty k = 0.266055
        22        23        28        29     9      180.000000       10.780074         2    ;  uncertainty k = 0.441284
        22        23        28        29     9        0.000000       -0.027254         3    ;  uncertainty k = 0.547500
        22        23        28        29     9      180.000000        1.075213         4    ;  uncertainty k = 0.496490
        22        23        28        68     9        0.000000        0.104355         1    ;  uncertainty k = 0.175314
        22        23        28        68     9      180.000000        7.746722         2    ;  uncertainty k = 0.371620
        22        23        28        68     9        0.000000        1.470944         3    ;  uncertainty k = 0.342445
        22        23        28        68     9      180.000000        1.696371         4    ;  uncertainty k = 0.172368
        23        22        21        57     9        0.000000        0.062469         1    ;  uncertainty k = 0.250550
        23        22        21        57     9      180.000000        7.894303         2    ;  uncertainty k = 0.351150
        23        22        21        57     9        0.000000        1.433525         3    ;  uncertainty k = 0.283966
        23        22        21        57     9      180.000000        1.906668         4    ;  uncertainty k = 0.257360
        23        24        25        59     9        0.000000        0.794442         1    ;  uncertainty k = 0.477539
        23        24        25        59     9      180.000000       -0.515179         2    ;  uncertainty k = 0.038670
        23        24        25        59     9        0.000000        0.711171         3    ;  uncertainty k = 0.051879
        23        24        25        59     9      180.000000        0.033781         4    ;  uncertainty k = 0.064290
        23        24        25        60     9        0.000000        0.794442         1    ;  uncertainty k = 0.477539
        23        24        25        60     9      180.000000       -0.515179         2    ;  uncertainty k = 0.038670
        23        24        25        60     9        0.000000        0.711171         3    ;  uncertainty k = 0.051879
        23        24        25        60     9      180.000000        0.033781         4    ;  uncertainty k = 0.064290
        23        24        25        61     9        0.000000        0.794442         1    ;  uncertainty k = 0.477539
        23        24        25        61     9      180.000000       -0.515179         2    ;  uncertainty k = 0.038670
        23        24        25        61     9        0.000000        0.711171         3    ;  uncertainty k = 0.051879
        23        24        25        61     9      180.000000        0.033781         4    ;  uncertainty k = 0.064290
        23        24        26        62     9        0.000000        0.794442         1    ;  uncertainty k = 0.477539
        23        24        26        62     9      180.000000       -0.515179         2    ;  uncertainty k = 0.038670
        23        24        26        62     9        0.000000        0.711171         3    ;  uncertainty k = 0.051879
        23        24        26        62     9      180.000000        0.033781         4    ;  uncertainty k = 0.064290
        23        24        26        63     9        0.000000        0.794442         1    ;  uncertainty k = 0.477539
        23        24        26        63     9      180.000000       -0.515179         2    ;  uncertainty k = 0.038670
        23        24        26        63     9        0.000000        0.711171         3    ;  uncertainty k = 0.051879
        23        24        26        63     9      180.000000        0.033781         4    ;  uncertainty k = 0.064290
        23        24        26        64     9        0.000000        0.794442         1    ;  uncertainty k = 0.477539
        23        24        26        64     9      180.000000       -0.515179         2    ;  uncertainty k = 0.038670
        23        24        26        64     9        0.000000        0.711171         3    ;  uncertainty k = 0.051879
        23        24        26        64     9      180.000000        0.033781         4    ;  uncertainty k = 0.064290
        23        24        27        65     9        0.000000        0.794442         1    ;  uncertainty k = 0.477539
        23        24        27        65     9      180.000000       -0.515179         2    ;  uncertainty k = 0.038670
        23        24        27        65     9        0.000000        0.711171         3    ;  uncertainty k = 0.051879
        23        24        27        65     9      180.000000        0.033781         4    ;  uncertainty k = 0.064290
        23        24        27        66     9        0.000000        0.794442         1    ;  uncertainty k = 0.477539
        23        24        27        66     9      180.000000       -0.515179         2    ;  uncertainty k = 0.038670
        23        24        27        66     9        0.000000        0.711171         3    ;  uncertainty k = 0.051879
        23        24        27        66     9      180.000000        0.033781         4    ;  uncertainty k = 0.064290
        23        24        27        67     9        0.000000        0.794442         1    ;  uncertainty k = 0.477539
        23        24        27        67     9      180.000000       -0.515179         2    ;  uncertainty k = 0.038670
        23        24        27        67     9        0.000000        0.711171         3    ;  uncertainty k = 0.051879
        23        24        27        67     9      180.000000        0.033781         4    ;  uncertainty k = 0.064290
        23        28        29        30     9        0.000000        0.005513         1    ;  uncertainty k = 0.448864
        23        28        29        30     9      180.000000        9.360281         2    ;  uncertainty k = 0.279181
        23        28        29        30     9        0.000000        1.290620         3    ;  uncertainty k = 0.189403
        23        28        29        30     9      180.000000        1.883946         4    ;  uncertainty k = 0.412318
        24        23        22        58     9        0.000000       -0.322150         1    ;  uncertainty k = 0.625486
        24        23        22        58     9      180.000000        7.620869         2    ;  uncertainty k = 0.555706
        24        23        22        58     9        0.000000        0.560174         3    ;  uncertainty k = 0.260776
        24        23        22        58     9      180.000000        0.966847         4    ;  uncertainty k = 0.215082
        24        23        28        29     9        0.000000        0.046289         1    ;  uncertainty k = 0.151688
        24        23        28        29     9      180.000000        8.787376         2    ;  uncertainty k = 0.456905
        24        23        28        29     9        0.000000        1.285867         3    ;  uncertainty k = 0.242435
        24        23        28        29     9      180.000000        1.685029         4    ;  uncertainty k = 0.137336
        24        23        28        68     9        0.000000       -0.224770         1    ;  uncertainty k = 0.659056
        24        23        28        68     9      180.000000        7.875342         2    ;  uncertainty k = 0.558847
        24        23        28        68     9        0.000000        0.633675         3    ;  uncertainty k = 0.256250
        24        23        28        68     9      180.000000        1.051674         4    ;  uncertainty k = 0.159946
        25        24        23        28     9        0.000000       -0.123495         1    ;  uncertainty k = 0.475831
        25        24        23        28     9      180.000000        2.583716         2    ;  uncertainty k = 0.233641
        25        24        23        28     9        0.000000        0.303046         3    ;  uncertainty k = 0.103944
        25        24        23        28     9      180.000000        0.385903         4    ;  uncertainty k = 0.055046
        25        24        26        62     9        0.000000       -1.188574         1    ;  uncertainty k = 0.286328
        25        24        26        62     9      180.000000       -0.229296         2    ;  uncertainty k = 0.093121
        25        24        26        62     9        0.000000        0.805968         3    ;  uncertainty k = 0.037187
        25        24        26        62     9      180.000000       -0.066025         4    ;  uncertainty k = 0.043591
        25        24        26        63     9        0.000000       -1.188574         1    ;  uncertainty k = 0.286328
        25        24        26        63     9      180.000000       -0.229296         2    ;  uncertainty k = 0.093121
        25        24        26        63     9        0.000000        0.805968         3    ;  uncertainty k = 0.037187
        25        24        26        63     9      180.000000       -0.066025         4    ;  uncertainty k = 0.043591
        25        24        26        64     9        0.000000       -1.188574         1    ;  uncertainty k = 0.286328
        25        24        26        64     9      180.000000       -0.229296         2    ;  uncertainty k = 0.093121
        25        24        26        64     9        0.000000        0.805968         3    ;  uncertainty k = 0.037187
        25        24        26        64     9      180.000000       -0.066025         4    ;  uncertainty k = 0.043591
        25        24        27        65     9        0.000000       -1.188574         1    ;  uncertainty k = 0.286328
        25        24        27        65     9      180.000000       -0.229296         2    ;  uncertainty k = 0.093121
        25        24        27        65     9        0.000000        0.805968         3    ;  uncertainty k = 0.037187
        25        24        27        65     9      180.000000       -0.066025         4    ;  uncertainty k = 0.043591
        25        24        27        66     9        0.000000       -1.188574         1    ;  uncertainty k = 0.286328
        25        24        27        66     9      180.000000       -0.229296         2    ;  uncertainty k = 0.093121
        25        24        27        66     9        0.000000        0.805968         3    ;  uncertainty k = 0.037187
        25        24        27        66     9      180.000000       -0.066025         4    ;  uncertainty k = 0.043591
        25        24        27        67     9        0.000000       -1.188574         1    ;  uncertainty k = 0.286328
        25        24        27        67     9      180.000000       -0.229296         2    ;  uncertainty k = 0.093121
        25        24        27        67     9        0.000000        0.805968         3    ;  uncertainty k = 0.037187
        25        24        27        67     9      180.000000       -0.066025         4    ;  uncertainty k = 0.043591
        26        24        23        28     9        0.000000       -0.123495         1    ;  uncertainty k = 0.475831
        26        24        23        28     9      180.000000        2.583716         2    ;  uncertainty k = 0.233641
        26        24        23        28     9        0.000000        0.303046         3    ;  uncertainty k = 0.103944
        26        24        23        28     9      180.000000        0.385903         4    ;  uncertainty k = 0.055046
        26        24        25        59     9        0.000000       -1.188574         1    ;  uncertainty k = 0.286328
        26        24        25        59     9      180.000000       -0.229296         2    ;  uncertainty k = 0.093121
        26        24        25        59     9        0.000000        0.805968         3    ;  uncertainty k = 0.037187
        26        24        25        59     9      180.000000       -0.066025         4    ;  uncertainty k = 0.043591
        26        24        25        60     9        0.000000       -1.188574         1    ;  uncertainty k = 0.286328
        26        24        25        60     9      180.000000       -0.229296         2    ;  uncertainty k = 0.093121
        26        24        25        60     9        0.000000        0.805968         3    ;  uncertainty k = 0.037187
        26        24        25        60     9      180.000000       -0.066025         4    ;  uncertainty k = 0.043591
        26        24        25        61     9        0.000000       -1.188574         1    ;  uncertainty k = 0.286328
        26        24        25        61     9      180.000000       -0.229296         2    ;  uncertainty k = 0.093121
        26        24        25        61     9        0.000000        0.805968         3    ;  uncertainty k = 0.037187
        26        24        25        61     9      180.000000       -0.066025         4    ;  uncertainty k = 0.043591
        26        24        27        65     9        0.000000       -1.188574         1    ;  uncertainty k = 0.286328
        26        24        27        65     9      180.000000       -0.229296         2    ;  uncertainty k = 0.093121
        26        24        27        65     9        0.000000        0.805968         3    ;  uncertainty k = 0.037187
        26        24        27        65     9      180.000000       -0.066025         4    ;  uncertainty k = 0.043591
        26        24        27        66     9        0.000000       -1.188574         1    ;  uncertainty k = 0.286328
        26        24        27        66     9      180.000000       -0.229296         2    ;  uncertainty k = 0.093121
        26        24        27        66     9        0.000000        0.805968         3    ;  uncertainty k = 0.037187
        26        24        27        66     9      180.000000       -0.066025         4    ;  uncertainty k = 0.043591
        26        24        27        67     9        0.000000       -1.188574         1    ;  uncertainty k = 0.286328
        26        24        27        67     9      180.000000       -0.229296         2    ;  uncertainty k = 0.093121
        26        24        27        67     9        0.000000        0.805968         3    ;  uncertainty k = 0.037187
        26        24        27        67     9      180.000000       -0.066025         4    ;  uncertainty k = 0.043591
        27        24        23        28     9        0.000000       -0.123495         1    ;  uncertainty k = 0.475831
        27        24        23        28     9      180.000000        2.583716         2    ;  uncertainty k = 0.233641
        27        24        23        28     9        0.000000        0.303046         3    ;  uncertainty k = 0.103944
        27        24        23        28     9      180.000000        0.385903         4    ;  uncertainty k = 0.055046
        27        24        25        59     9        0.000000       -1.188574         1    ;  uncertainty k = 0.286328
        27        24        25        59     9      180.000000       -0.229296         2    ;  uncertainty k = 0.093121
        27        24        25        59     9        0.000000        0.805968         3    ;  uncertainty k = 0.037187
        27        24        25        59     9      180.000000       -0.066025         4    ;  uncertainty k = 0.043591
        27        24        25        60     9        0.000000       -1.188574         1    ;  uncertainty k = 0.286328
        27        24        25        60     9      180.000000       -0.229296         2    ;  uncertainty k = 0.093121
        27        24        25        60     9        0.000000        0.805968         3    ;  uncertainty k = 0.037187
        27        24        25        60     9      180.000000       -0.066025         4    ;  uncertainty k = 0.043591
        27        24        25        61     9        0.000000       -1.188574         1    ;  uncertainty k = 0.286328
        27        24        25        61     9      180.000000       -0.229296         2    ;  uncertainty k = 0.093121
        27        24        25        61     9        0.000000        0.805968         3    ;  uncertainty k = 0.037187
        27        24        25        61     9      180.000000       -0.066025         4    ;  uncertainty k = 0.043591
        27        24        26        62     9        0.000000       -1.188574         1    ;  uncertainty k = 0.286328
        27        24        26        62     9      180.000000       -0.229296         2    ;  uncertainty k = 0.093121
        27        24        26        62     9        0.000000        0.805968         3    ;  uncertainty k = 0.037187
        27        24        26        62     9      180.000000       -0.066025         4    ;  uncertainty k = 0.043591
        27        24        26        63     9        0.000000       -1.188574         1    ;  uncertainty k = 0.286328
        27        24        26        63     9      180.000000       -0.229296         2    ;  uncertainty k = 0.093121
        27        24        26        63     9        0.000000        0.805968         3    ;  uncertainty k = 0.037187
        27        24        26        63     9      180.000000       -0.066025         4    ;  uncertainty k = 0.043591
        27        24        26        64     9        0.000000       -1.188574         1    ;  uncertainty k = 0.286328
        27        24        26        64     9      180.000000       -0.229296         2    ;  uncertainty k = 0.093121
        27        24        26        64     9        0.000000        0.805968         3    ;  uncertainty k = 0.037187
        27        24        26        64     9      180.000000       -0.066025         4    ;  uncertainty k = 0.043591
        28        23        22        58     9        0.000000        0.151318         1    ;  uncertainty k = 0.166031
        28        23        22        58     9      180.000000        7.285281         2    ;  uncertainty k = 0.645948
        28        23        22        58     9        0.000000        1.357278         3    ;  uncertainty k = 0.319035
        28        23        22        58     9      180.000000        1.619462         4    ;  uncertainty k = 0.231962
        28        29        30        31     9        0.000000       -0.333240         1    ;  uncertainty k = 0.511042
        28        29        30        31     9      180.000000        1.410235         2    ;  uncertainty k = 0.628700
        28        29        30        31     9        0.000000       -0.268828         3    ;  uncertainty k = 0.417954
        28        29        30        31     9      180.000000        0.119826         4    ;  uncertainty k = 0.157704
        28        29        30        69     9        0.000000        0.484589         1    ;  uncertainty k = 0.863663
        28        29        30        69     9      180.000000        1.867723         2    ;  uncertainty k = 0.372791
        28        29        30        69     9        0.000000        0.109889         3    ;  uncertainty k = 0.155170
        28        29        30        69     9      180.000000       -0.000578         4    ;  uncertainty k = 0.140775
        29        20        19        56     9        0.000000       11.972498         1    ;  uncertainty k = 0.583112
        29        20        19        56     9      180.000000        4.814548         2    ;  uncertainty k = 0.487270
        29        20        19        56     9        0.000000        0.186036         3    ;  uncertainty k = 0.232912
        29        20        19        56     9      180.000000        0.228756         4    ;  uncertainty k = 0.170929
        29        20        21        57     9        0.000000        0.104159         1    ;  uncertainty k = 0.911944
        29        20        21        57     9      180.000000        6.150903         2    ;  uncertainty k = 0.681775
        29        20        21        57     9        0.000000        1.303664         3    ;  uncertainty k = 0.312888
        29        20        21        57     9      180.000000        1.286585         4    ;  uncertainty k = 0.184252
        29        30        11        49     9        0.000000       -0.353491         1    ;  uncertainty k = 1.077357
        29        30        11        49     9      180.000000        0.787657         2    ;  uncertainty k = 0.473069
        29        30        11        49     9        0.000000        0.007806         3    ;  uncertainty k = 0.086813
        29        30        11        49     9      180.000000       -0.063350         4    ;  uncertainty k = 0.107223
        30        11        10        47     9        0.000000       -0.375195         1    ;  uncertainty k = 0.393019
        30        11        10        47     9      180.000000       -0.656805         2    ;  uncertainty k = 0.132762
        30        11        10        47     9        0.000000        0.281688         3    ;  uncertainty k = 0.117471
        30        11        10        47     9      180.000000       -0.009048         4    ;  uncertainty k = 0.054184
        30        11        10        48     9        0.000000       -0.375195         1    ;  uncertainty k = 0.393019
        30        11        10        48     9      180.000000       -0.656805         2    ;  uncertainty k = 0.132762
        30        11        10        48     9        0.000000        0.281688         3    ;  uncertainty k = 0.117471
        30        11        10        48     9      180.000000       -0.009048         4    ;  uncertainty k = 0.054184
        30        11        12        50     9        0.000000        0.737392         1    ;  uncertainty k = 0.719923
        30        11        12        50     9      180.000000       -1.388403         2    ;  uncertainty k = 0.748966
        30        11        12        50     9        0.000000       -0.423795         3    ;  uncertainty k = 0.141734
        30        11        12        50     9      180.000000        0.029718         4    ;  uncertainty k = 0.147484
        30        29        28        68     9        0.000000       -0.282863         1    ;  uncertainty k = 0.458352
        30        29        28        68     9      180.000000        8.319325         2    ;  uncertainty k = 0.733552
        30        29        28        68     9        0.000000        0.801320         3    ;  uncertainty k = 0.297267
        30        29        28        68     9      180.000000        1.136289         4    ;  uncertainty k = 0.457521
        30        31         8        44     9        0.000000       -1.955105         1    ;  uncertainty k = 1.234541
        30        31         8        44     9      180.000000       -0.685988         2    ;  uncertainty k = 0.312657
        30        31         8        44     9        0.000000        0.143122         3    ;  uncertainty k = 0.057740
        30        31         8        44     9      180.000000       -0.053151         4    ;  uncertainty k = 0.121576
        31         8         7        42     9        0.000000        0.326320         1    ;  uncertainty k = 0.247516
        31         8         7        42     9      180.000000       -1.218424         2    ;  uncertainty k = 0.304136
        31         8         7        42     9        0.000000        0.314587         3    ;  uncertainty k = 0.177421
        31         8         7        42     9      180.000000       -0.052702         4    ;  uncertainty k = 0.059597
        31         8         7        43     9        0.000000        0.326320         1    ;  uncertainty k = 0.247516
        31         8         7        43     9      180.000000       -1.218424         2    ;  uncertainty k = 0.304136
        31         8         7        43     9        0.000000        0.314587         3    ;  uncertainty k = 0.177421
        31         8         7        43     9      180.000000       -0.052702         4    ;  uncertainty k = 0.059597
        31         8         9        45     9        0.000000       -1.308835         1    ;  uncertainty k = 0.409265
        31         8         9        45     9      180.000000       -0.945907         2    ;  uncertainty k = 0.097341
        31         8         9        45     9        0.000000        0.851479         3    ;  uncertainty k = 0.156365
        31         8         9        45     9      180.000000       -0.127273         4    ;  uncertainty k = 0.108158
        31         8         9        46     9        0.000000       -1.308835         1    ;  uncertainty k = 0.409265
        31         8         9        46     9      180.000000       -0.945907         2    ;  uncertainty k = 0.097341
        31         8         9        46     9        0.000000        0.851479         3    ;  uncertainty k = 0.156365
        31         8         9        46     9      180.000000       -0.127273         4    ;  uncertainty k = 0.108158
        31        30        11        49     9        0.000000       -0.651364         1    ;  uncertainty k = 0.270961
        31        30        11        49     9      180.000000        0.601324         2    ;  uncertainty k = 0.505134
        31        30        11        49     9        0.000000        0.080564         3    ;  uncertainty k = 0.292264
        31        30        11        49     9      180.000000       -0.149327         4    ;  uncertainty k = 0.127471
        32         1         2        35     9        0.000000        0.306127         1    ;  uncertainty k = 0.182569
        32         1         2        35     9      180.000000       -0.400020         2    ;  uncertainty k = 0.264862
        32         1         2        35     9        0.000000        0.676082         3    ;  uncertainty k = 0.016706
        32         1         2        35     9      180.000000       -0.028012         4    ;  uncertainty k = 0.075963
        32         1         2        36     9        0.000000        0.306127         1    ;  uncertainty k = 0.182569
        32         1         2        36     9      180.000000       -0.400020         2    ;  uncertainty k = 0.264862
        32         1         2        36     9        0.000000        0.676082         3    ;  uncertainty k = 0.016706
        32         1         2        36     9      180.000000       -0.028012         4    ;  uncertainty k = 0.075963
        33         1         2        35     9        0.000000        0.306127         1    ;  uncertainty k = 0.182569
        33         1         2        35     9      180.000000       -0.400020         2    ;  uncertainty k = 0.264862
        33         1         2        35     9        0.000000        0.676082         3    ;  uncertainty k = 0.016706
        33         1         2        35     9      180.000000       -0.028012         4    ;  uncertainty k = 0.075963
        33         1         2        36     9        0.000000        0.306127         1    ;  uncertainty k = 0.182569
        33         1         2        36     9      180.000000       -0.400020         2    ;  uncertainty k = 0.264862
        33         1         2        36     9        0.000000        0.676082         3    ;  uncertainty k = 0.016706
        33         1         2        36     9      180.000000       -0.028012         4    ;  uncertainty k = 0.075963
        34         1         2        35     9        0.000000        0.306127         1    ;  uncertainty k = 0.182569
        34         1         2        35     9      180.000000       -0.400020         2    ;  uncertainty k = 0.264862
        34         1         2        35     9        0.000000        0.676082         3    ;  uncertainty k = 0.016706
        34         1         2        35     9      180.000000       -0.028012         4    ;  uncertainty k = 0.075963
        34         1         2        36     9        0.000000        0.306127         1    ;  uncertainty k = 0.182569
        34         1         2        36     9      180.000000       -0.400020         2    ;  uncertainty k = 0.264862
        34         1         2        36     9        0.000000        0.676082         3    ;  uncertainty k = 0.016706
        34         1         2        36     9      180.000000       -0.028012         4    ;  uncertainty k = 0.075963
        37         4         5        39     9        0.000000        0.043230         1    ;  uncertainty k = 0.314500
        37         4         5        39     9      180.000000       -0.161954         2    ;  uncertainty k = 0.174438
        37         4         5        39     9        0.000000        0.228826         3    ;  uncertainty k = 0.052303
        37         4         5        39     9      180.000000       -0.011085         4    ;  uncertainty k = 0.103551
        37         4         5        40     9        0.000000        0.043230         1    ;  uncertainty k = 0.314500
        37         4         5        40     9      180.000000       -0.161954         2    ;  uncertainty k = 0.174438
        37         4         5        40     9        0.000000        0.228826         3    ;  uncertainty k = 0.052303
        37         4         5        40     9      180.000000       -0.011085         4    ;  uncertainty k = 0.103551
        38         4         5        39     9        0.000000        0.043230         1    ;  uncertainty k = 0.314500
        38         4         5        39     9      180.000000       -0.161954         2    ;  uncertainty k = 0.174438
        38         4         5        39     9        0.000000        0.228826         3    ;  uncertainty k = 0.052303
        38         4         5        39     9      180.000000       -0.011085         4    ;  uncertainty k = 0.103551
        38         4         5        40     9        0.000000        0.043230         1    ;  uncertainty k = 0.314500
        38         4         5        40     9      180.000000       -0.161954         2    ;  uncertainty k = 0.174438
        38         4         5        40     9        0.000000        0.228826         3    ;  uncertainty k = 0.052303
        38         4         5        40     9      180.000000       -0.011085         4    ;  uncertainty k = 0.103551
        39         5         6        41     9        0.000000       10.816348         1    ;  uncertainty k = 0.251058
        39         5         6        41     9      180.000000       -1.919607         2    ;  uncertainty k = 0.230462
        39         5         6        41     9        0.000000        0.750764         3    ;  uncertainty k = 0.054904
        39         5         6        41     9      180.000000        0.102547         4    ;  uncertainty k = 0.082788
        40         5         6        41     9        0.000000       10.816348         1    ;  uncertainty k = 0.251058
        40         5         6        41     9      180.000000       -1.919607         2    ;  uncertainty k = 0.230462
        40         5         6        41     9        0.000000        0.750764         3    ;  uncertainty k = 0.054904
        40         5         6        41     9      180.000000        0.102547         4    ;  uncertainty k = 0.082788
        42         7         8        44     9        0.000000        0.022920         1    ;  uncertainty k = 0.260711
        42         7         8        44     9      180.000000       -0.311642         2    ;  uncertainty k = 0.158213
        42         7         8        44     9        0.000000        0.068074         3    ;  uncertainty k = 0.050203
        42         7         8        44     9      180.000000       -0.106165         4    ;  uncertainty k = 0.089869
        43         7         8        44     9        0.000000        0.022920         1    ;  uncertainty k = 0.260711
        43         7         8        44     9      180.000000       -0.311642         2    ;  uncertainty k = 0.158213
        43         7         8        44     9        0.000000        0.068074         3    ;  uncertainty k = 0.050203
        43         7         8        44     9      180.000000       -0.106165         4    ;  uncertainty k = 0.089869
        44         8         9        45     9        0.000000        0.238528         1    ;  uncertainty k = 0.315856
        44         8         9        45     9      180.000000        0.127347         2    ;  uncertainty k = 0.345652
        44         8         9        45     9        0.000000       -0.038162         3    ;  uncertainty k = 0.086965
        44         8         9        45     9      180.000000       -0.190749         4    ;  uncertainty k = 0.103528
        44         8         9        46     9        0.000000        0.238528         1    ;  uncertainty k = 0.315856
        44         8         9        46     9      180.000000        0.127347         2    ;  uncertainty k = 0.345652
        44         8         9        46     9        0.000000       -0.038162         3    ;  uncertainty k = 0.086965
        44         8         9        46     9      180.000000       -0.190749         4    ;  uncertainty k = 0.103528
        45         9        10        47     9        0.000000        1.668604         1    ;  uncertainty k = 0.442044
        45         9        10        47     9      180.000000        0.121229         2    ;  uncertainty k = 0.256286
        45         9        10        47     9        0.000000        0.347023         3    ;  uncertainty k = 0.104051
        45         9        10        47     9      180.000000        0.074261         4    ;  uncertainty k = 0.026280
        45         9        10        48     9        0.000000        1.668604         1    ;  uncertainty k = 0.442044
        45         9        10        48     9      180.000000        0.121229         2    ;  uncertainty k = 0.256286
        45         9        10        48     9        0.000000        0.347023         3    ;  uncertainty k = 0.104051
        45         9        10        48     9      180.000000        0.074261         4    ;  uncertainty k = 0.026280
        46         9        10        47     9        0.000000        1.668604         1    ;  uncertainty k = 0.442044
        46         9        10        47     9      180.000000        0.121229         2    ;  uncertainty k = 0.256286
        46         9        10        47     9        0.000000        0.347023         3    ;  uncertainty k = 0.104051
        46         9        10        47     9      180.000000        0.074261         4    ;  uncertainty k = 0.026280
        46         9        10        48     9        0.000000        1.668604         1    ;  uncertainty k = 0.442044
        46         9        10        48     9      180.000000        0.121229         2    ;  uncertainty k = 0.256286
        46         9        10        48     9        0.000000        0.347023         3    ;  uncertainty k = 0.104051
        46         9        10        48     9      180.000000        0.074261         4    ;  uncertainty k = 0.026280
        47        10        11        49     9        0.000000        1.545255         1    ;  uncertainty k = 0.344376
        47        10        11        49     9      180.000000       -0.020692         2    ;  uncertainty k = 0.342601
        47        10        11        49     9        0.000000       -0.070632         3    ;  uncertainty k = 0.119714
        47        10        11        49     9      180.000000        0.013810         4    ;  uncertainty k = 0.071778
        48        10        11        49     9        0.000000        1.545255         1    ;  uncertainty k = 0.344376
        48        10        11        49     9      180.000000       -0.020692         2    ;  uncertainty k = 0.342601
        48        10        11        49     9        0.000000       -0.070632         3    ;  uncertainty k = 0.119714
        48        10        11        49     9      180.000000        0.013810         4    ;  uncertainty k = 0.071778
        49        11        12        50     9        0.000000        1.077534         1    ;  uncertainty k = 0.458223
        49        11        12        50     9      180.000000       -0.042492         2    ;  uncertainty k = 0.250347
        49        11        12        50     9        0.000000       -0.346964         3    ;  uncertainty k = 0.176981
        49        11        12        50     9      180.000000       -0.270511         4    ;  uncertainty k = 0.102482
        49        11        30        69     9        0.000000        2.052517         1    ;  uncertainty k = 0.492056
        49        11        30        69     9      180.000000        0.874633         2    ;  uncertainty k = 0.464313
        49        11        30        69     9        0.000000       -0.485357         3    ;  uncertainty k = 0.218178
        49        11        30        69     9      180.000000       -0.175318         4    ;  uncertainty k = 0.074235
        50        12        19        56     9        0.000000        0.468542         1    ;  uncertainty k = 0.563664
        50        12        19        56     9      180.000000       -0.983993         2    ;  uncertainty k = 0.285944
        50        12        19        56     9        0.000000        0.482175         3    ;  uncertainty k = 0.277173
        50        12        19        56     9      180.000000        0.028441         4    ;  uncertainty k = 0.127509
        51        14        15        52     9        0.000000       -0.038400         1    ;  uncertainty k = 0.034128
        51        14        15        52     9      180.000000        7.644156         2    ;  uncertainty k = 0.255449
        51        14        15        52     9        0.000000       -0.470076         3    ;  uncertainty k = 0.270053
        51        14        15        52     9      180.000000        0.106023         4    ;  uncertainty k = 0.117777
        52        15        16        53     9        0.000000       -0.016279         1    ;  uncertainty k = 0.090334
        52        15        16        53     9      180.000000        7.510682         2    ;  uncertainty k = 0.369436
        52        15        16        53     9        0.000000       -0.422665         3    ;  uncertainty k = 0.276612
        52        15        16        53     9      180.000000        0.041075         4    ;  uncertainty k = 0.155578
        53        16        17        54     9        0.000000       -0.016279         1    ;  uncertainty k = 0.090334
        53        16        17        54     9      180.000000        7.510682         2    ;  uncertainty k = 0.369436
        53        16        17        54     9        0.000000       -0.422665         3    ;  uncertainty k = 0.276612
        53        16        17        54     9      180.000000        0.041075         4    ;  uncertainty k = 0.155578
        54        17        18        55     9        0.000000       -0.038400         1    ;  uncertainty k = 0.034128
        54        17        18        55     9      180.000000        7.644156         2    ;  uncertainty k = 0.255449
        54        17        18        55     9        0.000000       -0.470076         3    ;  uncertainty k = 0.270053
        54        17        18        55     9      180.000000        0.106023         4    ;  uncertainty k = 0.117777
        57        21        22        58     9        0.000000        0.029804         1    ;  uncertainty k = 0.527470
        57        21        22        58     9      180.000000        7.765195         2    ;  uncertainty k = 0.405104
        57        21        22        58     9        0.000000       -0.364688         3    ;  uncertainty k = 0.308167
        57        21        22        58     9      180.000000        0.241055         4    ;  uncertainty k = 0.183553

[ dihedrals ] ; impropers
;       ai        aj        ak        al funct           phase               k        pn
        13        12        14        18     4      180.000000       12.903617         2    ;  uncertainty k = 0.121797
        13        14        18        12     4      180.000000       12.903617         2    ;  uncertainty k = 0.121797
        13        18        12        14     4      180.000000       12.903617         2    ;  uncertainty k = 0.121797
        14        13        15        51     4      180.000000        4.073199         2    ;  uncertainty k = 0.089532
        14        15        51        13     4      180.000000        4.073199         2    ;  uncertainty k = 0.089532
        14        51        13        15     4      180.000000        4.073199         2    ;  uncertainty k = 0.089532
        15        14        16        52     4      180.000000        4.075590         2    ;  uncertainty k = 0.076310
        15        16        52        14     4      180.000000        4.075590         2    ;  uncertainty k = 0.076310
        15        52        14        16     4      180.000000        4.075590         2    ;  uncertainty k = 0.076310
        16        15        17        53     4      180.000000        4.286749         2    ;  uncertainty k = 0.163795
        16        17        53        15     4      180.000000        4.286749         2    ;  uncertainty k = 0.163795
        16        53        15        17     4      180.000000        4.286749         2    ;  uncertainty k = 0.163795
        17        16        18        54     4      180.000000        4.075590         2    ;  uncertainty k = 0.076310
        17        18        54        16     4      180.000000        4.075590         2    ;  uncertainty k = 0.076310
        17        54        16        18     4      180.000000        4.075590         2    ;  uncertainty k = 0.076310
        18        13        17        55     4      180.000000        4.073199         2    ;  uncertainty k = 0.089532
        18        17        55        13     4      180.000000        4.073199         2    ;  uncertainty k = 0.089532
        18        55        13        17     4      180.000000        4.073199         2    ;  uncertainty k = 0.089532
        20        19        21        29     4      180.000000       21.001481         2    ;  uncertainty k = 0.145691
        20        21        29        19     4      180.000000       21.001481         2    ;  uncertainty k = 0.145691
        20        29        19        21     4      180.000000       21.001481         2    ;  uncertainty k = 0.145691
        21        20        22        57     4      180.000000        1.853171         2    ;  uncertainty k = 0.420091
        21        22        57        20     4      180.000000        1.853171         2    ;  uncertainty k = 0.420091
        21        57        20        22     4      180.000000        1.853171         2    ;  uncertainty k = 0.420091
        22        21        23        58     4      180.000000        4.372419         2    ;  uncertainty k = 0.145357
        22        23        58        21     4      180.000000        4.372419         2    ;  uncertainty k = 0.145357
        22        58        21        23     4      180.000000        4.372419         2    ;  uncertainty k = 0.145357
        23        22        24        28     4      180.000000       12.714654         2    ;  uncertainty k = 0.097697
        23        24        28        22     4      180.000000       12.714654         2    ;  uncertainty k = 0.097697
        23        28        22        24     4      180.000000       12.714654         2    ;  uncertainty k = 0.097697
        28        23        29        68     4      180.000000        3.931582         2    ;  uncertainty k = 0.335389
        28        29        68        23     4      180.000000        3.931582         2    ;  uncertainty k = 0.335389
        28        68        23        29     4      180.000000        3.931582         2    ;  uncertainty k = 0.335389
        29        20        28        30     4      180.000000       10.762419         2    ;  uncertainty k = 0.237803
        29        28        30        20     4      180.000000       10.762419         2    ;  uncertainty k = 0.237803
        29        30        20        28     4      180.000000       10.762419         2    ;  uncertainty k = 0.237803

[ pairs ]
;       ai        aj funct
         1         4     1
         1         7     1
         2         5     1
         2         8     1
         2        37     1
         2        38     1
         2        42     1
         2        43     1
         3         6     1
         3         9     1
         3        31     1
         3        32     1
         3        33     1
         3        34     1
         3        39     1
         3        40     1
         3        44     1
         4         8     1
         4        35     1
         4        36     1
         4        41     1
         4        42     1
         4        43     1
         5         7     1
         6        37     1
         6        38     1
         7        10     1
         7        30     1
         7        35     1
         7        36     1
         7        37     1
         7        38     1
         7        45     1
         7        46     1
         8        11     1
         8        29     1
         8        47     1
         8        48     1
         8        69     1
         9        12     1
         9        30     1
         9        42     1
         9        43     1
         9        49     1
        10        13     1
        10        19     1
        10        29     1
        10        31     1
        10        44     1
        10        50     1
        10        69     1
        11        14     1
        11        18     1
        11        20     1
        11        28     1
        11        45     1
        11        46     1
        11        56     1
        12        15     1
        12        17     1
        12        21     1
        12        29     1
        12        31     1
        12        47     1
        12        48     1
        12        51     1
        12        55     1
        12        69     1
        13        16     1
        13        20     1
        13        30     1
        13        49     1
        13        52     1
        13        54     1
        13        56     1
        14        17     1
        14        19     1
        14        50     1
        14        53     1
        14        55     1
        15        18     1
        15        54     1
        16        51     1
        16        55     1
        17        52     1
        18        19     1
        18        50     1
        18        51     1
        18        53     1
        19        22     1
        19        28     1
        19        30     1
        19        49     1
        19        57     1
        20        23     1
        20        31     1
        20        50     1
        20        58     1
        20        68     1
        20        69     1
        21        24     1
        21        28     1
        21        30     1
        21        56     1
        22        25     1
        22        26     1
        22        27     1
        22        29     1
        22        68     1
        23        30     1
        23        57     1
        23        59     1
        23        60     1
        23        61     1
        23        62     1
        23        63     1
        23        64     1
        23        65     1
        23        66     1
        23        67     1
        24        29     1
        24        58     1
        24        68     1
        25        28     1
        25        62     1
        25        63     1
        25        64     1
        25        65     1
        25        66     1
        25        67     1
        26        28     1
        26        59     1
        26        60     1
        26        61     1
        26        65     1
        26        66     1
        26        67     1
        27        28     1
        27        59     1
        27        60     1
        27        61     1
        27        62     1
        27        63     1
        27        64     1
        28        31     1
        28        58     1
        28        69     1
        29        49     1
        29        56     1
        29        57     1
        30        44     1
        30        47     1
        30        48     1
        30        50     1
        30        68     1
        31        42     1
        31        43     1
        31        45     1
        31        46     1
        31        49     1
        32        35     1
        32        36     1
        33        35     1
        33        36     1
        34        35     1
        34        36     1
        37        39     1
        37        40     1
        38        39     1
        38        40     1
        39        41     1
        40        41     1
        42        44     1
        43        44     1
        44        45     1
        44        46     1
        45        47     1
        45        48     1
        46        47     1
        46        48     1
        47        49     1
        48        49     1
        49        50     1
        49        69     1
        50        56     1
        51        52     1
        52        53     1
        53        54     1
        54        55     1
        57        58     1
