; ITP file created by ByteFF-joint-25, 2026-02-17 09:15:56.252283

[ atomtypes ]
;name           bonded.type        at.num        mass        charge   ptype           sigma         epsilon
 c0bf                                   6      0.0000       0.00000       A     3.39774e-01     4.51031e-01    ;  uncertainty sigma = 0.000007, epsilon = 0.000494
 c1bf                                   6      0.0000       0.00000       A     3.31494e-01     4.13108e-01    ;  uncertainty sigma = 0.000024, epsilon = 0.001709
 o2bf                                   8      0.0000       0.00000       A     3.04829e-01     6.12688e-01    ;  uncertainty sigma = 0.000010, epsilon = 0.000997
 n3bf                                   7      0.0000       0.00000       A     3.26939e-01     4.89038e-01    ;  uncertainty sigma = 0.000058, epsilon = 0.004787
 c4bf                                   6      0.0000       0.00000       A     3.39721e-01     4.52238e-01    ;  uncertainty sigma = 0.000034, epsilon = 0.001859
 c5bf                                   6      0.0000       0.00000       A     3.39749e-01     4.51855e-01    ;  uncertainty sigma = 0.000014, epsilon = 0.000637
 n6bf                                   7      0.0000       0.00000       A     2.68069e-01     7.07408e+00    ;  uncertainty sigma = 0.000092, epsilon = 0.010664
 c7bf                                   6      0.0000       0.00000       A     3.39788e-01     4.52565e-01    ;  uncertainty sigma = 0.000036, epsilon = 0.001326
 c8bf                                   6      0.0000       0.00000       A     3.39779e-01     4.51663e-01    ;  uncertainty sigma = 0.000030, epsilon = 0.001910
 c9bf                                   6      0.0000       0.00000       A     3.39767e-01     4.50486e-01    ;  uncertainty sigma = 0.000012, epsilon = 0.000632
 c10bf                                  6      0.0000       0.00000       A     3.39742e-01     4.51320e-01    ;  uncertainty sigma = 0.000014, epsilon = 0.001137
 c11bf                                  6      0.0000       0.00000       A     3.39755e-01     4.50973e-01    ;  uncertainty sigma = 0.000035, epsilon = 0.000615
 c12bf                                  6      0.0000       0.00000       A     3.39771e-01     4.51627e-01    ;  uncertainty sigma = 0.000010, epsilon = 0.001353
 c13bf                                  6      0.0000       0.00000       A     3.31532e-01     4.13295e-01    ;  uncertainty sigma = 0.000012, epsilon = 0.000849
 c14bf                                  6      0.0000       0.00000       A     3.31519e-01     4.13329e-01    ;  uncertainty sigma = 0.000002, epsilon = 0.000632
 c15bf                                  6      0.0000       0.00000       A     3.31520e-01     4.13328e-01    ;  uncertainty sigma = 0.000003, epsilon = 0.000582
 c16bf                                  6      0.0000       0.00000       A     3.31518e-01     4.13340e-01    ;  uncertainty sigma = 0.000003, epsilon = 0.000580
 c17bf                                  6      0.0000       0.00000       A     3.31520e-01     4.13328e-01    ;  uncertainty sigma = 0.000003, epsilon = 0.000582
 c18bf                                  6      0.0000       0.00000       A     3.31519e-01     4.13329e-01    ;  uncertainty sigma = 0.000002, epsilon = 0.000632
 n19bf                                  7      0.0000       0.00000       A     3.27940e-01     6.43754e-01    ;  uncertainty sigma = 0.000013, epsilon = 0.005170
 c20bf                                  6      0.0000       0.00000       A     3.31564e-01     4.13412e-01    ;  uncertainty sigma = 0.000018, epsilon = 0.001459
 c21bf                                  6      0.0000       0.00000       A     3.31515e-01     4.13145e-01    ;  uncertainty sigma = 0.000013, epsilon = 0.000511
 f22bf                                  9      0.0000       0.00000       A     3.03373e-01     3.48504e-01    ;  uncertainty sigma = 0.000030, epsilon = 0.000936
 c23bf                                  6      0.0000       0.00000       A     3.31517e-01     4.13235e-01    ;  uncertainty sigma = 0.000010, epsilon = 0.000673
 c24bf                                  6      0.0000       0.00000       A     3.31502e-01     4.13225e-01    ;  uncertainty sigma = 0.000004, epsilon = 0.000605
 br25bf                                35      0.0000       0.00000       A     3.61266e-01     1.64607e+00    ;  uncertainty sigma = 0.000021, epsilon = 0.001033
 c26bf                                  6      0.0000       0.00000       A     3.31515e-01     4.13371e-01    ;  uncertainty sigma = 0.000005, epsilon = 0.000826
 c27bf                                  6      0.0000       0.00000       A     3.31542e-01     4.13616e-01    ;  uncertainty sigma = 0.000016, epsilon = 0.000603
 c28bf                                  6      0.0000       0.00000       A     3.39765e-01     4.51117e-01    ;  uncertainty sigma = 0.000021, epsilon = 0.001504
 o29bf                                  8      0.0000       0.00000       A     3.15622e-01     3.04459e-01    ;  uncertainty sigma = 0.000041, epsilon = 0.000889
 h30bf                                  1      0.0000       0.00000       A     2.60030e-01     8.67107e-02    ;  uncertainty sigma = 0.000011, epsilon = 0.000525
 h31bf                                  1      0.0000       0.00000       A     2.60030e-01     8.67107e-02    ;  uncertainty sigma = 0.000011, epsilon = 0.000525
 h32bf                                  1      0.0000       0.00000       A     2.60030e-01     8.67107e-02    ;  uncertainty sigma = 0.000011, epsilon = 0.000525
 h33bf                                  1      0.0000       0.00000       A     1.10695e-01     4.12659e-02    ;  uncertainty sigma = 0.000074, epsilon = 0.001461
 h34bf                                  1      0.0000       0.00000       A     2.42337e-01     8.68281e-02    ;  uncertainty sigma = 0.000045, epsilon = 0.001754
 h35bf                                  1      0.0000       0.00000       A     2.42337e-01     8.68281e-02    ;  uncertainty sigma = 0.000045, epsilon = 0.001754
 h36bf                                  1      0.0000       0.00000       A     1.88813e-01     8.61393e-02    ;  uncertainty sigma = 0.000091, epsilon = 0.000933
 h37bf                                  1      0.0000       0.00000       A     1.88813e-01     8.61393e-02    ;  uncertainty sigma = 0.000091, epsilon = 0.000933
 h38bf                                  1      0.0000       0.00000       A     1.10715e-01     4.14465e-02    ;  uncertainty sigma = 0.000085, epsilon = 0.001198
 h39bf                                  1      0.0000       0.00000       A     1.88689e-01     8.72833e-02    ;  uncertainty sigma = 0.000152, epsilon = 0.000577
 h40bf                                  1      0.0000       0.00000       A     1.88689e-01     8.72833e-02    ;  uncertainty sigma = 0.000152, epsilon = 0.000577
 h41bf                                  1      0.0000       0.00000       A     2.42333e-01     8.61424e-02    ;  uncertainty sigma = 0.000111, epsilon = 0.001611
 h42bf                                  1      0.0000       0.00000       A     2.60030e-01     8.64970e-02    ;  uncertainty sigma = 0.000010, epsilon = 0.000714
 h43bf                                  1      0.0000       0.00000       A     2.60030e-01     8.64970e-02    ;  uncertainty sigma = 0.000010, epsilon = 0.000714
 h44bf                                  1      0.0000       0.00000       A     2.60028e-01     8.66832e-02    ;  uncertainty sigma = 0.000010, epsilon = 0.000720
 h45bf                                  1      0.0000       0.00000       A     2.60028e-01     8.66832e-02    ;  uncertainty sigma = 0.000010, epsilon = 0.000720
 h46bf                                  1      0.0000       0.00000       A     2.59938e-01     8.64077e-02    ;  uncertainty sigma = 0.000052, epsilon = 0.000980
 h47bf                                  1      0.0000       0.00000       A     2.42303e-01     8.69597e-02    ;  uncertainty sigma = 0.000074, epsilon = 0.001557
 h48bf                                  1      0.0000       0.00000       A     2.62560e-01     6.70315e-02    ;  uncertainty sigma = 0.000006, epsilon = 0.000529
 h49bf                                  1      0.0000       0.00000       A     2.62559e-01     6.70249e-02    ;  uncertainty sigma = 0.000010, epsilon = 0.000440
 h50bf                                  1      0.0000       0.00000       A     2.62552e-01     6.70647e-02    ;  uncertainty sigma = 0.000011, epsilon = 0.000453
 h51bf                                  1      0.0000       0.00000       A     2.62559e-01     6.70249e-02    ;  uncertainty sigma = 0.000010, epsilon = 0.000440
 h52bf                                  1      0.0000       0.00000       A     2.62560e-01     6.70315e-02    ;  uncertainty sigma = 0.000006, epsilon = 0.000529
 h53bf                                  1      0.0000       0.00000       A     1.10680e-01     4.07052e-02    ;  uncertainty sigma = 0.000120, epsilon = 0.001586
 h54bf                                  1      0.0000       0.00000       A     2.62568e-01     6.72500e-02    ;  uncertainty sigma = 0.000019, epsilon = 0.000565
 h55bf                                  1      0.0000       0.00000       A     2.62541e-01     6.70362e-02    ;  uncertainty sigma = 0.000008, epsilon = 0.000583
 h56bf                                  1      0.0000       0.00000       A     2.42239e-01     8.76588e-02    ;  uncertainty sigma = 0.000274, epsilon = 0.002166
 h57bf                                  1      0.0000       0.00000       A     1.10715e-01     4.14464e-02    ;  uncertainty sigma = 0.000085, epsilon = 0.001198

[ moleculetype ]
;name             nrexcl
 MOL                   3

[ atoms ]
;       nr            type      resi   res      atom      cgnr      charge          mass ; qtot
         1            c0bf         1   UNL        c0         1    -0.16535       12.0110 ; qtot   -0.165
         2            c1bf         1   UNL        c1         2     0.68152       12.0110 ; qtot    0.516
         3            o2bf         1   UNL        o2         3    -0.63321       15.9990 ; qtot   -0.117
         4            n3bf         1   UNL        n3         4    -0.58493       14.0070 ; qtot   -0.702
         5            c4bf         1   UNL        c4         5     0.08340       12.0110 ; qtot   -0.619
         6            c5bf         1   UNL        c5         6     0.11306       12.0110 ; qtot   -0.506
         7            n6bf         1   UNL        n6         7    -0.78619       14.0070 ; qtot   -1.292
         8            c7bf         1   UNL        c7         8     0.13469       12.0110 ; qtot   -1.157
         9            c8bf         1   UNL        c8         9     0.12532       12.0110 ; qtot   -1.032
        10            c9bf         1   UNL        c9        10    -0.10280       12.0110 ; qtot   -1.134
        11           c10bf         1   UNL       c10        11    -0.06959       12.0110 ; qtot   -1.204
        12           c11bf         1   UNL       c11        12    -0.09480       12.0110 ; qtot   -1.299
        13           c12bf         1   UNL       c12        13     0.26381       12.0110 ; qtot   -1.035
        14           c13bf         1   UNL       c13        14    -0.10622       12.0110 ; qtot   -1.141
        15           c14bf         1   UNL       c14        15    -0.11888       12.0110 ; qtot   -1.260
        16           c15bf         1   UNL       c15        16    -0.13078       12.0110 ; qtot   -1.391
        17           c16bf         1   UNL       c16        17    -0.12452       12.0110 ; qtot   -1.515
        18           c17bf         1   UNL       c17        18    -0.13078       12.0110 ; qtot   -1.646
        19           c18bf         1   UNL       c18        19    -0.11888       12.0110 ; qtot   -1.765
        20           n19bf         1   UNL       n19        20    -0.73441       14.0070 ; qtot   -2.500
        21           c20bf         1   UNL       c20        21     0.15209       12.0110 ; qtot   -2.347
        22           c21bf         1   UNL       c21        22     0.06343       12.0110 ; qtot   -2.284
        23           f22bf         1   UNL       f22        23    -0.14897       18.9980 ; qtot   -2.433
        24           c23bf         1   UNL       c23        24    -0.09065       12.0110 ; qtot   -2.524
        25           c24bf         1   UNL       c24        25    -0.02779       12.0110 ; qtot   -2.551
        26          br25bf         1   UNL      br25        26    -0.09133       79.9040 ; qtot   -2.643
        27           c26bf         1   UNL       c26        27    -0.05324       12.0110 ; qtot   -2.696
        28           c27bf         1   UNL       c27        28    -0.13496       12.0110 ; qtot   -2.831
        29           c28bf         1   UNL       c28        29     0.20189       12.0110 ; qtot   -2.629
        30           o29bf         1   UNL       o29        30    -0.42502       15.9990 ; qtot   -3.054
        31           h30bf         1   UNL       h30        31     0.06140        1.0080 ; qtot   -2.993
        32           h31bf         1   UNL       h31        32     0.06140        1.0080 ; qtot   -2.931
        33           h32bf         1   UNL       h32        33     0.06140        1.0080 ; qtot   -2.870
        34           h33bf         1   UNL       h33        34     0.34312        1.0080 ; qtot   -2.527
        35           h34bf         1   UNL       h34        35     0.08639        1.0080 ; qtot   -2.440
        36           h35bf         1   UNL       h35        36     0.08639        1.0080 ; qtot   -2.354
        37           h36bf         1   UNL       h36        37     0.11494        1.0080 ; qtot   -2.239
        38           h37bf         1   UNL       h37        38     0.11494        1.0080 ; qtot   -2.124
        39           h38bf         1   UNL       h38        39     0.47252        1.0080 ; qtot   -1.652
        40           h39bf         1   UNL       h39        40     0.11409        1.0080 ; qtot   -1.538
        41           h40bf         1   UNL       h40        41     0.11409        1.0080 ; qtot   -1.423
        42           h41bf         1   UNL       h41        42     0.08402        1.0080 ; qtot   -1.339
        43           h42bf         1   UNL       h42        43     0.07203        1.0080 ; qtot   -1.267
        44           h43bf         1   UNL       h43        44     0.07203        1.0080 ; qtot   -1.195
        45           h44bf         1   UNL       h44        45     0.05761        1.0080 ; qtot   -1.138
        46           h45bf         1   UNL       h45        46     0.05761        1.0080 ; qtot   -1.080
        47           h46bf         1   UNL       h46        47     0.06904        1.0080 ; qtot   -1.011
        48           h47bf         1   UNL       h47        48     0.05551        1.0080 ; qtot   -0.956
        49           h48bf         1   UNL       h48        49     0.13512        1.0080 ; qtot   -0.820
        50           h49bf         1   UNL       h49        50     0.13172        1.0080 ; qtot   -0.689
        51           h50bf         1   UNL       h50        51     0.13373        1.0080 ; qtot   -0.555
        52           h51bf         1   UNL       h51        52     0.13172        1.0080 ; qtot   -0.423
        53           h52bf         1   UNL       h52        53     0.13512        1.0080 ; qtot   -0.288
        54           h53bf         1   UNL       h53        54     0.42097        1.0080 ; qtot    0.133
        55           h54bf         1   UNL       h54        55     0.17075        1.0080 ; qtot    0.304
        56           h55bf         1   UNL       h55        56     0.15631        1.0080 ; qtot    0.460
        57           h56bf         1   UNL       h56        57     0.06764        1.0080 ; qtot    0.528
        58           h57bf         1   UNL       h57        58     0.47248        1.0080 ; qtot    1.000

[ bonds ]
;       ai        aj funct               r               k
         1         2     1        0.151989   233592.178613    ;  uncertainty r = 0.000412, k = 12.401223
         1        31     1        0.109477   320871.455420    ;  uncertainty r = 0.000014, k = 2.394611
         1        32     1        0.109477   320871.455420    ;  uncertainty r = 0.000014, k = 2.394611
         1        33     1        0.109477   320871.455420    ;  uncertainty r = 0.000014, k = 2.394611
         2         3     1        0.124588   638888.372754    ;  uncertainty r = 0.000340, k = 35.061129
         2         4     1        0.137178   369896.167920    ;  uncertainty r = 0.000191, k = 58.928806
         4         5     1        0.145328   257021.735889    ;  uncertainty r = 0.000228, k = 12.096013
         4        34     1        0.101352   414239.953809    ;  uncertainty r = 0.000069, k = 14.384475
         5         6     1        0.153719   207548.195923    ;  uncertainty r = 0.000234, k = 6.817483
         5        35     1        0.109374   310299.577344    ;  uncertainty r = 0.000083, k = 4.472774
         5        36     1        0.109374   310299.577344    ;  uncertainty r = 0.000083, k = 4.472774
         6         7     1        0.150360   201829.556104    ;  uncertainty r = 0.000159, k = 22.031792
         6        37     1        0.108997   316463.980176    ;  uncertainty r = 0.000066, k = 4.632458
         6        38     1        0.108997   316463.980176    ;  uncertainty r = 0.000066, k = 4.632458
         7         8     1        0.150623   205375.026221    ;  uncertainty r = 0.000185, k = 28.242453
         7        39     1        0.103423   366668.711426    ;  uncertainty r = 0.000232, k = 6.133045
         7        58     1        0.103423   366668.711426    ;  uncertainty r = 0.000232, k = 6.133033
         8         9     1        0.152986   199010.118774    ;  uncertainty r = 0.000222, k = 18.769517
         8        40     1        0.109060   316656.121387    ;  uncertainty r = 0.000063, k = 2.247697
         8        41     1        0.109060   316656.121387    ;  uncertainty r = 0.000063, k = 2.247697
         9        10     1        0.152855   204784.876392    ;  uncertainty r = 0.000150, k = 9.450881
         9        30     1        0.142401   237205.986035    ;  uncertainty r = 0.000155, k = 13.559203
         9        42     1        0.110038   305180.765918    ;  uncertainty r = 0.000069, k = 6.440489
        10        11     1        0.153416   212553.456592    ;  uncertainty r = 0.000104, k = 6.460390
        10        43     1        0.109581   309786.868799    ;  uncertainty r = 0.000017, k = 2.349016
        10        44     1        0.109581   309786.868799    ;  uncertainty r = 0.000017, k = 2.349016
        11        12     1        0.153228   204659.846704    ;  uncertainty r = 0.000107, k = 7.769012
        11        45     1        0.109545   307326.674756    ;  uncertainty r = 0.000013, k = 1.975636
        11        46     1        0.109545   307326.674756    ;  uncertainty r = 0.000013, k = 1.975636
        12        13     1        0.153800   193320.744482    ;  uncertainty r = 0.000040, k = 8.694137
        12        29     1        0.153199   193150.156592    ;  uncertainty r = 0.000141, k = 7.813799
        12        47     1        0.109712   307584.676172    ;  uncertainty r = 0.000061, k = 3.997520
        13        14     1        0.151694   221715.481934    ;  uncertainty r = 0.000083, k = 6.119503
        13        20     1        0.146412   245465.070264    ;  uncertainty r = 0.000056, k = 13.015779
        13        48     1        0.110029   298346.754541    ;  uncertainty r = 0.000122, k = 4.232422
        14        15     1        0.139859   350947.632764    ;  uncertainty r = 0.000040, k = 0.862444
        14        19     1        0.139859   350947.632764    ;  uncertainty r = 0.000040, k = 0.862444
        15        16     1        0.139620   365997.698340    ;  uncertainty r = 0.000023, k = 1.204462
        15        49     1        0.108883   334327.852148    ;  uncertainty r = 0.000023, k = 0.510237
        16        17     1        0.139607   371240.977637    ;  uncertainty r = 0.000016, k = 0.703160
        16        50     1        0.108851   333986.906201    ;  uncertainty r = 0.000010, k = 1.017361
        17        18     1        0.139607   371240.977637    ;  uncertainty r = 0.000016, k = 0.703160
        17        51     1        0.108841   334518.920801    ;  uncertainty r = 0.000012, k = 0.635600
        18        19     1        0.139620   365997.698340    ;  uncertainty r = 0.000023, k = 1.204462
        18        52     1        0.108851   333986.906201    ;  uncertainty r = 0.000010, k = 1.017361
        19        53     1        0.108883   334327.852148    ;  uncertainty r = 0.000023, k = 0.510237
        20        21     1        0.138715   338410.137842    ;  uncertainty r = 0.000196, k = 8.125748
        20        54     1        0.101386   413993.878223    ;  uncertainty r = 0.000059, k = 1.811296
        21        22     1        0.140025   355452.455469    ;  uncertainty r = 0.000066, k = 5.609969
        21        28     1        0.140502   349651.981982    ;  uncertainty r = 0.000151, k = 20.785022
        22        23     1        0.136330   329964.045361    ;  uncertainty r = 0.000077, k = 7.580977
        22        24     1        0.138317   356654.691504    ;  uncertainty r = 0.000052, k = 9.468656
        24        25     1        0.139545   367292.940527    ;  uncertainty r = 0.000085, k = 1.181457
        24        55     1        0.108655   337506.890283    ;  uncertainty r = 0.000010, k = 1.171451
        25        26     1        0.191468   162338.510498    ;  uncertainty r = 0.000081, k = 1.510645
        25        27     1        0.139306   354828.200830    ;  uncertainty r = 0.000051, k = 4.899987
        27        28     1        0.139297   352459.250879    ;  uncertainty r = 0.000123, k = 4.267012
        27        56     1        0.108709   335543.265332    ;  uncertainty r = 0.000039, k = 1.690866
        28        29     1        0.150815   221802.001660    ;  uncertainty r = 0.000105, k = 12.740851
        29        30     1        0.144482   220255.065723    ;  uncertainty r = 0.000533, k = 5.581551
        29        57     1        0.109999   305561.115625    ;  uncertainty r = 0.000076, k = 4.906955

[ angles ]
;       ai        aj        ak funct           theta             cth
         1         2         3     1      124.358421      575.001790    ;  uncertainty theta = 0.003185, k = 0.150417
         1         2         4     1      116.552002      537.302186    ;  uncertainty theta = 0.007598, k = 0.155649
         2         1        31     1      108.083717      363.843094    ;  uncertainty theta = 0.001622, k = 0.072338
         2         1        32     1      108.083717      363.843094    ;  uncertainty theta = 0.001622, k = 0.072338
         2         1        33     1      108.083717      363.843094    ;  uncertainty theta = 0.001622, k = 0.072338
         2         4         5     1      115.332542      418.610234    ;  uncertainty theta = 0.005155, k = 0.289411
         2         4        34     1      116.014694      336.110783    ;  uncertainty theta = 0.005983, k = 0.161603
         3         2         4     1      124.698318      754.423414    ;  uncertainty theta = 0.004448, k = 0.147322
         4         5         6     1      112.405617      581.437908    ;  uncertainty theta = 0.004282, k = 0.213053
         4         5        35     1      107.509361      436.894294    ;  uncertainty theta = 0.004668, k = 0.104186
         4         5        36     1      107.509361      436.894294    ;  uncertainty theta = 0.004668, k = 0.104186
         5         4        34     1      111.067848      313.047932    ;  uncertainty theta = 0.005778, k = 0.299905
         5         6         7     1      111.027039      665.293923    ;  uncertainty theta = 0.007417, k = 0.152618
         5         6        37     1      110.165138      393.592167    ;  uncertainty theta = 0.003898, k = 0.066375
         5         6        38     1      110.165138      393.592167    ;  uncertainty theta = 0.003898, k = 0.066375
         6         5        35     1      108.318359      405.228374    ;  uncertainty theta = 0.005094, k = 0.062946
         6         5        36     1      108.318359      405.228374    ;  uncertainty theta = 0.005094, k = 0.062946
         6         7         8     1      113.965805      611.237544    ;  uncertainty theta = 0.002209, k = 0.098904
         6         7        39     1      108.418808      438.267105    ;  uncertainty theta = 0.003051, k = 0.084445
         6         7        58     1      108.418808      438.267041    ;  uncertainty theta = 0.003051, k = 0.084445
         7         6        37     1      105.902260      457.121855    ;  uncertainty theta = 0.004700, k = 0.078062
         7         6        38     1      105.902260      457.121855    ;  uncertainty theta = 0.004700, k = 0.078062
         7         8         9     1      109.534264      687.217276    ;  uncertainty theta = 0.002962, k = 0.296352
         7         8        40     1      106.029419      454.150836    ;  uncertainty theta = 0.003765, k = 0.066343
         7         8        41     1      106.029419      454.150836    ;  uncertainty theta = 0.003765, k = 0.066343
         8         7        39     1      108.875099      432.848577    ;  uncertainty theta = 0.003186, k = 0.112194
         8         7        58     1      108.875099      432.848577    ;  uncertainty theta = 0.003186, k = 0.112194
         8         9        10     1      111.575462      558.964613    ;  uncertainty theta = 0.007610, k = 0.178175
         8         9        30     1      105.648155      575.183870    ;  uncertainty theta = 0.004632, k = 0.122520
         8         9        42     1      108.342102      390.245273    ;  uncertainty theta = 0.003070, k = 0.119086
         9         8        40     1      110.352005      394.492765    ;  uncertainty theta = 0.002738, k = 0.132456
         9         8        41     1      110.352005      394.492765    ;  uncertainty theta = 0.002738, k = 0.132456
         9        10        11     1      108.889603      585.659511    ;  uncertainty theta = 0.003216, k = 0.199551
         9        10        43     1      107.553734      391.822445    ;  uncertainty theta = 0.001677, k = 0.060815
         9        10        44     1      107.553734      391.822445    ;  uncertainty theta = 0.001677, k = 0.060815
         9        30        29     1      110.438431      513.386108    ;  uncertainty theta = 0.009526, k = 0.134824
        10         9        30     1      111.182907      679.294387    ;  uncertainty theta = 0.004715, k = 0.107741
        10         9        42     1      109.823120      407.281206    ;  uncertainty theta = 0.003108, k = 0.040051
        10        11        12     1      109.833923      574.050916    ;  uncertainty theta = 0.003440, k = 0.116783
        10        11        45     1      108.479469      406.340866    ;  uncertainty theta = 0.002257, k = 0.104005
        10        11        46     1      108.479469      406.340866    ;  uncertainty theta = 0.002257, k = 0.104005
        11        10        43     1      109.112206      400.373163    ;  uncertainty theta = 0.000987, k = 0.042731
        11        10        44     1      109.112206      400.373163    ;  uncertainty theta = 0.000987, k = 0.042731
        11        12        13     1      110.518692      549.309224    ;  uncertainty theta = 0.001205, k = 0.168276
        11        12        29     1      109.545090      584.111580    ;  uncertainty theta = 0.001902, k = 0.135337
        11        12        47     1      107.962402      399.558210    ;  uncertainty theta = 0.002830, k = 0.103744
        12        11        45     1      108.184448      389.052562    ;  uncertainty theta = 0.001625, k = 0.073415
        12        11        46     1      108.184448      389.052562    ;  uncertainty theta = 0.001625, k = 0.073415
        12        13        14     1      111.710739      536.791444    ;  uncertainty theta = 0.002579, k = 0.172522
        12        13        20     1      108.273865      704.451505    ;  uncertainty theta = 0.003996, k = 0.104661
        12        13        48     1      107.093971      386.028905    ;  uncertainty theta = 0.002703, k = 0.126280
        12        29        28     1      111.874771      555.020598    ;  uncertainty theta = 0.005289, k = 0.255838
        12        29        30     1      110.862572      663.540289    ;  uncertainty theta = 0.005295, k = 0.082224
        12        29        57     1      108.289352      394.428475    ;  uncertainty theta = 0.004005, k = 0.125762
        13        12        29     1      109.371109      552.397937    ;  uncertainty theta = 0.004939, k = 0.134949
        13        12        47     1      105.919556      390.293698    ;  uncertainty theta = 0.001590, k = 0.089845
        13        14        15     1      119.869118      424.511222    ;  uncertainty theta = 0.003274, k = 0.143273
        13        14        19     1      119.869118      424.511222    ;  uncertainty theta = 0.003274, k = 0.143273
        13        20        21     1      113.560837      394.461514    ;  uncertainty theta = 0.004658, k = 0.146825
        13        20        54     1      110.517822      342.921051    ;  uncertainty theta = 0.003889, k = 0.119522
        14        13        20     1      110.952232      663.025206    ;  uncertainty theta = 0.001005, k = 0.195907
        14        13        48     1      106.363998      410.332508    ;  uncertainty theta = 0.001972, k = 0.092032
        14        15        16     1      121.166641      520.322945    ;  uncertainty theta = 0.001889, k = 0.047519
        14        15        49     1      118.895851      266.730000    ;  uncertainty theta = 0.002264, k = 0.064094
        14        19        18     1      121.166641      520.322945    ;  uncertainty theta = 0.001889, k = 0.047519
        14        19        53     1      118.895851      266.730000    ;  uncertainty theta = 0.002264, k = 0.064094
        15        14        19     1      120.206970      460.017476    ;  uncertainty theta = 0.003029, k = 0.098153
        15        16        17     1      119.685776      513.267201    ;  uncertainty theta = 0.000971, k = 0.012607
        15        16        50     1      120.211227      283.897609    ;  uncertainty theta = 0.001315, k = 0.018226
        16        15        49     1      120.235497      292.477280    ;  uncertainty theta = 0.001696, k = 0.031107
        16        17        18     1      118.246803      526.555213    ;  uncertainty theta = 0.000903, k = 0.024014
        16        17        51     1      120.647278      289.320829    ;  uncertainty theta = 0.001403, k = 0.006566
        17        16        50     1      120.620949      287.638700    ;  uncertainty theta = 0.001444, k = 0.012507
        17        18        19     1      119.685776      513.267201    ;  uncertainty theta = 0.000971, k = 0.012607
        17        18        52     1      120.620949      287.638700    ;  uncertainty theta = 0.001444, k = 0.012507
        18        17        51     1      120.647278      289.320829    ;  uncertainty theta = 0.001403, k = 0.006566
        18        19        53     1      120.235497      292.477280    ;  uncertainty theta = 0.001696, k = 0.031107
        19        18        52     1      120.211227      283.897609    ;  uncertainty theta = 0.001315, k = 0.018226
        20        13        48     1      107.718811      454.950307    ;  uncertainty theta = 0.004217, k = 0.106072
        20        21        22     1      121.037674      489.796203    ;  uncertainty theta = 0.004792, k = 0.295984
        20        21        28     1      123.093407      486.515291    ;  uncertainty theta = 0.010873, k = 0.287986
        21        20        54     1      111.821854      374.016185    ;  uncertainty theta = 0.005086, k = 0.141288
        21        22        23     1      115.949234      451.024487    ;  uncertainty theta = 0.002877, k = 0.265914
        21        22        24     1      124.355873      367.850824    ;  uncertainty theta = 0.001697, k = 0.147517
        21        28        27     1      121.983681      460.234541    ;  uncertainty theta = 0.005139, k = 0.158067
        21        28        29     1      119.085533      362.611567    ;  uncertainty theta = 0.006728, k = 0.404286
        22        21        28     1      117.610802      364.299889    ;  uncertainty theta = 0.009059, k = 0.291735
        22        24        25     1      117.952248      472.090176    ;  uncertainty theta = 0.002067, k = 0.086641
        22        24        55     1      120.341690      277.358194    ;  uncertainty theta = 0.001024, k = 0.084775
        23        22        24     1      119.427536      515.838277    ;  uncertainty theta = 0.002219, k = 0.137228
        24        25        26     1      119.638306      407.208362    ;  uncertainty theta = 0.002846, k = 0.057598
        24        25        27     1      121.726784      381.530639    ;  uncertainty theta = 0.003225, k = 0.205824
        25        24        55     1      122.663391      282.606166    ;  uncertainty theta = 0.001561, k = 0.051194
        25        27        28     1      120.531639      496.211508    ;  uncertainty theta = 0.004158, k = 0.075950
        25        27        56     1      120.944557      291.224174    ;  uncertainty theta = 0.001158, k = 0.097624
        26        25        27     1      120.038315      387.809544    ;  uncertainty theta = 0.002664, k = 0.116963
        27        28        29     1      119.189865      405.245356    ;  uncertainty theta = 0.004496, k = 0.165265
        28        27        56     1      118.930466      263.813359    ;  uncertainty theta = 0.003255, k = 0.113867
        28        29        30     1      108.711594      637.832017    ;  uncertainty theta = 0.007253, k = 0.317131
        28        29        57     1      108.651894      390.596504    ;  uncertainty theta = 0.004064, k = 0.078461
        29        12        47     1      106.208755      398.918569    ;  uncertainty theta = 0.003818, k = 0.099775
        30         9        42     1      107.428177      460.554266    ;  uncertainty theta = 0.002033, k = 0.138844
        30        29        57     1      105.892715      446.871994    ;  uncertainty theta = 0.004791, k = 0.109327
        31         1        32     1      106.845482      313.273616    ;  uncertainty theta = 0.000866, k = 0.017741
        31         1        33     1      106.845482      313.273616    ;  uncertainty theta = 0.000866, k = 0.017741
        32         1        33     1      106.845482      313.273616    ;  uncertainty theta = 0.000866, k = 0.017741
        35         5        36     1      107.241013      313.365167    ;  uncertainty theta = 0.006410, k = 0.199939
        37         6        38     1      108.763573      322.618890    ;  uncertainty theta = 0.005786, k = 0.090151
        39         7        58     1      108.250000      388.068681    ;  uncertainty theta = 0.006474, k = 0.111575
        40         8        41     1      108.387306      320.257728    ;  uncertainty theta = 0.003396, k = 0.029894
        43        10        44     1      105.294052      315.680074    ;  uncertainty theta = 0.003522, k = 0.050334
        45        11        46     1      104.613731      315.378257    ;  uncertainty theta = 0.002142, k = 0.035841

[ dihedrals ] ; propers for gromacs 4.5 or higher, use funct 9
;       ai        aj        ak        al funct           phase               k        pn
         1         2         4         5     9        0.000000        7.502415         1    ;  uncertainty k = 1.970338
         1         2         4         5     9      180.000000       10.097842         2    ;  uncertainty k = 0.342366
         1         2         4         5     9        0.000000        1.814169         3    ;  uncertainty k = 0.396054
         1         2         4         5     9      180.000000       -0.258281         4    ;  uncertainty k = 0.305830
         1         2         4        34     9        0.000000       -0.020087         1    ;  uncertainty k = 1.288826
         1         2         4        34     9      180.000000        6.631051         2    ;  uncertainty k = 0.893837
         1         2         4        34     9        0.000000        1.818931         3    ;  uncertainty k = 0.414584
         1         2         4        34     9      180.000000        0.598903         4    ;  uncertainty k = 0.336124
         2         4         5         6     9        0.000000        3.099338         1    ;  uncertainty k = 1.124262
         2         4         5         6     9      180.000000       -1.628963         2    ;  uncertainty k = 0.655967
         2         4         5         6     9        0.000000        0.156685         3    ;  uncertainty k = 0.198004
         2         4         5         6     9      180.000000        0.602669         4    ;  uncertainty k = 0.117155
         2         4         5        35     9        0.000000        0.214126         1    ;  uncertainty k = 1.689398
         2         4         5        35     9      180.000000       -0.036749         2    ;  uncertainty k = 0.546770
         2         4         5        35     9        0.000000       -0.042048         3    ;  uncertainty k = 0.200150
         2         4         5        35     9      180.000000        0.391842         4    ;  uncertainty k = 0.152841
         2         4         5        36     9        0.000000        0.214126         1    ;  uncertainty k = 1.689398
         2         4         5        36     9      180.000000       -0.036749         2    ;  uncertainty k = 0.546770
         2         4         5        36     9        0.000000       -0.042048         3    ;  uncertainty k = 0.200150
         2         4         5        36     9      180.000000        0.391842         4    ;  uncertainty k = 0.152841
         3         2         1        31     9        0.000000        0.089042         1    ;  uncertainty k = 0.322214
         3         2         1        31     9      180.000000        3.788035         2    ;  uncertainty k = 0.258022
         3         2         1        31     9        0.000000        0.471040         3    ;  uncertainty k = 0.055073
         3         2         1        31     9      180.000000        0.187341         4    ;  uncertainty k = 0.104578
         3         2         1        32     9        0.000000        0.089042         1    ;  uncertainty k = 0.322214
         3         2         1        32     9      180.000000        3.788035         2    ;  uncertainty k = 0.258022
         3         2         1        32     9        0.000000        0.471040         3    ;  uncertainty k = 0.055073
         3         2         1        32     9      180.000000        0.187341         4    ;  uncertainty k = 0.104578
         3         2         1        33     9        0.000000        0.089042         1    ;  uncertainty k = 0.322214
         3         2         1        33     9      180.000000        3.788035         2    ;  uncertainty k = 0.258022
         3         2         1        33     9        0.000000        0.471040         3    ;  uncertainty k = 0.055073
         3         2         1        33     9      180.000000        0.187341         4    ;  uncertainty k = 0.104578
         3         2         4         5     9        0.000000       10.286504         1    ;  uncertainty k = 0.757119
         3         2         4         5     9      180.000000       18.963528         2    ;  uncertainty k = 0.290308
         3         2         4         5     9        0.000000        0.322204         3    ;  uncertainty k = 0.692957
         3         2         4         5     9      180.000000       -1.352613         4    ;  uncertainty k = 0.544076
         3         2         4        34     9        0.000000        4.652549         1    ;  uncertainty k = 1.516465
         3         2         4        34     9      180.000000       16.397160         2    ;  uncertainty k = 0.253632
         3         2         4        34     9        0.000000        1.003399         3    ;  uncertainty k = 0.355508
         3         2         4        34     9      180.000000       -0.196148         4    ;  uncertainty k = 0.299846
         4         2         1        31     9        0.000000       -1.199285         1    ;  uncertainty k = 0.521887
         4         2         1        31     9      180.000000        1.979530         2    ;  uncertainty k = 0.271688
         4         2         1        31     9        0.000000        0.211156         3    ;  uncertainty k = 0.055875
         4         2         1        31     9      180.000000       -0.066405         4    ;  uncertainty k = 0.095290
         4         2         1        32     9        0.000000       -1.199285         1    ;  uncertainty k = 0.521887
         4         2         1        32     9      180.000000        1.979530         2    ;  uncertainty k = 0.271688
         4         2         1        32     9        0.000000        0.211156         3    ;  uncertainty k = 0.055875
         4         2         1        32     9      180.000000       -0.066405         4    ;  uncertainty k = 0.095290
         4         2         1        33     9        0.000000       -1.199285         1    ;  uncertainty k = 0.521887
         4         2         1        33     9      180.000000        1.979530         2    ;  uncertainty k = 0.271688
         4         2         1        33     9        0.000000        0.211156         3    ;  uncertainty k = 0.055875
         4         2         1        33     9      180.000000       -0.066405         4    ;  uncertainty k = 0.095290
         4         5         6         7     9        0.000000        4.668069         1    ;  uncertainty k = 1.429062
         4         5         6         7     9      180.000000       -4.747125         2    ;  uncertainty k = 1.963279
         4         5         6         7     9        0.000000        1.022680         3    ;  uncertainty k = 0.822664
         4         5         6         7     9      180.000000       -0.528051         4    ;  uncertainty k = 0.289965
         4         5         6        37     9        0.000000        0.379668         1    ;  uncertainty k = 0.889171
         4         5         6        37     9      180.000000       -0.621019         2    ;  uncertainty k = 0.362393
         4         5         6        37     9        0.000000        0.995301         3    ;  uncertainty k = 0.106757
         4         5         6        37     9      180.000000        0.022915         4    ;  uncertainty k = 0.182899
         4         5         6        38     9        0.000000        0.379668         1    ;  uncertainty k = 0.889171
         4         5         6        38     9      180.000000       -0.621019         2    ;  uncertainty k = 0.362393
         4         5         6        38     9        0.000000        0.995301         3    ;  uncertainty k = 0.106757
         4         5         6        38     9      180.000000        0.022915         4    ;  uncertainty k = 0.182899
         5         6         7         8     9        0.000000       -0.624680         1    ;  uncertainty k = 1.175304
         5         6         7         8     9      180.000000       -0.173930         2    ;  uncertainty k = 0.620940
         5         6         7         8     9        0.000000        0.902713         3    ;  uncertainty k = 0.266977
         5         6         7         8     9      180.000000       -0.071954         4    ;  uncertainty k = 0.162580
         5         6         7        39     9        0.000000       -0.138219         1    ;  uncertainty k = 0.729365
         5         6         7        39     9      180.000000       -0.539568         2    ;  uncertainty k = 0.554448
         5         6         7        39     9        0.000000        0.561178         3    ;  uncertainty k = 0.232946
         5         6         7        39     9      180.000000       -0.166149         4    ;  uncertainty k = 0.125103
         5         6         7        58     9        0.000000       -0.138218         1    ;  uncertainty k = 0.729364
         5         6         7        58     9      180.000000       -0.539568         2    ;  uncertainty k = 0.554449
         5         6         7        58     9        0.000000        0.561178         3    ;  uncertainty k = 0.232946
         5         6         7        58     9      180.000000       -0.166149         4    ;  uncertainty k = 0.125103
         6         5         4        34     9        0.000000        3.676346         1    ;  uncertainty k = 1.184869
         6         5         4        34     9      180.000000       -4.101888         2    ;  uncertainty k = 1.335356
         6         5         4        34     9        0.000000        0.505448         3    ;  uncertainty k = 0.162716
         6         5         4        34     9      180.000000        0.177402         4    ;  uncertainty k = 0.203787
         6         7         8         9     9        0.000000       -0.607696         1    ;  uncertainty k = 1.029130
         6         7         8         9     9      180.000000       -0.087853         2    ;  uncertainty k = 0.476790
         6         7         8         9     9        0.000000        0.956748         3    ;  uncertainty k = 0.175771
         6         7         8         9     9      180.000000       -0.101252         4    ;  uncertainty k = 0.185262
         6         7         8        40     9        0.000000       -0.066525         1    ;  uncertainty k = 0.684478
         6         7         8        40     9      180.000000       -0.544406         2    ;  uncertainty k = 0.350624
         6         7         8        40     9        0.000000        1.019614         3    ;  uncertainty k = 0.155680
         6         7         8        40     9      180.000000       -0.039051         4    ;  uncertainty k = 0.194892
         6         7         8        41     9        0.000000       -0.066525         1    ;  uncertainty k = 0.684478
         6         7         8        41     9      180.000000       -0.544406         2    ;  uncertainty k = 0.350624
         6         7         8        41     9        0.000000        1.019614         3    ;  uncertainty k = 0.155680
         6         7         8        41     9      180.000000       -0.039051         4    ;  uncertainty k = 0.194892
         7         6         5        35     9        0.000000       -0.744047         1    ;  uncertainty k = 0.899594
         7         6         5        35     9      180.000000       -1.652015         2    ;  uncertainty k = 0.835491
         7         6         5        35     9        0.000000        0.737468         3    ;  uncertainty k = 0.360404
         7         6         5        35     9      180.000000       -0.111181         4    ;  uncertainty k = 0.161335
         7         6         5        36     9        0.000000       -0.744047         1    ;  uncertainty k = 0.899594
         7         6         5        36     9      180.000000       -1.652015         2    ;  uncertainty k = 0.835491
         7         6         5        36     9        0.000000        0.737468         3    ;  uncertainty k = 0.360404
         7         6         5        36     9      180.000000       -0.111181         4    ;  uncertainty k = 0.161335
         7         8         9        10     9        0.000000        0.011676         1    ;  uncertainty k = 2.175281
         7         8         9        10     9      180.000000       -0.240252         2    ;  uncertainty k = 0.448800
         7         8         9        10     9        0.000000        1.318437         3    ;  uncertainty k = 0.194175
         7         8         9        10     9      180.000000       -0.275014         4    ;  uncertainty k = 0.227707
         7         8         9        30     9        0.000000        2.434137         1    ;  uncertainty k = 1.481197
         7         8         9        30     9      180.000000       -3.463845         2    ;  uncertainty k = 0.933711
         7         8         9        30     9        0.000000        1.585094         3    ;  uncertainty k = 0.564748
         7         8         9        30     9      180.000000       -0.444678         4    ;  uncertainty k = 0.256730
         7         8         9        42     9        0.000000       -1.644044         1    ;  uncertainty k = 0.981734
         7         8         9        42     9      180.000000       -3.375114         2    ;  uncertainty k = 0.975694
         7         8         9        42     9        0.000000        0.883584         3    ;  uncertainty k = 0.354389
         7         8         9        42     9      180.000000       -0.085358         4    ;  uncertainty k = 0.174977
         8         7         6        37     9        0.000000        0.004769         1    ;  uncertainty k = 0.549501
         8         7         6        37     9      180.000000       -0.515877         2    ;  uncertainty k = 0.559983
         8         7         6        37     9        0.000000        1.078090         3    ;  uncertainty k = 0.082102
         8         7         6        37     9      180.000000       -0.023889         4    ;  uncertainty k = 0.144586
         8         7         6        38     9        0.000000        0.004769         1    ;  uncertainty k = 0.549501
         8         7         6        38     9      180.000000       -0.515877         2    ;  uncertainty k = 0.559983
         8         7         6        38     9        0.000000        1.078090         3    ;  uncertainty k = 0.082102
         8         7         6        38     9      180.000000       -0.023889         4    ;  uncertainty k = 0.144586
         8         9        10        11     9        0.000000       -2.843855         1    ;  uncertainty k = 0.843112
         8         9        10        11     9      180.000000        0.098274         2    ;  uncertainty k = 0.399033
         8         9        10        11     9        0.000000        0.742583         3    ;  uncertainty k = 0.145329
         8         9        10        11     9      180.000000       -0.458942         4    ;  uncertainty k = 0.104982
         8         9        10        43     9        0.000000       -1.142598         1    ;  uncertainty k = 0.989541
         8         9        10        43     9      180.000000       -0.707656         2    ;  uncertainty k = 0.275423
         8         9        10        43     9        0.000000        0.399125         3    ;  uncertainty k = 0.163893
         8         9        10        43     9      180.000000       -0.297632         4    ;  uncertainty k = 0.138017
         8         9        10        44     9        0.000000       -1.142598         1    ;  uncertainty k = 0.989541
         8         9        10        44     9      180.000000       -0.707656         2    ;  uncertainty k = 0.275423
         8         9        10        44     9        0.000000        0.399125         3    ;  uncertainty k = 0.163893
         8         9        10        44     9      180.000000       -0.297632         4    ;  uncertainty k = 0.138017
         8         9        30        29     9        0.000000       -5.342539         1    ;  uncertainty k = 1.366756
         8         9        30        29     9      180.000000       -0.850886         2    ;  uncertainty k = 0.779400
         8         9        30        29     9        0.000000        0.658612         3    ;  uncertainty k = 0.324351
         8         9        30        29     9      180.000000       -0.111454         4    ;  uncertainty k = 0.163533
         9         8         7        39     9        0.000000        1.074896         1    ;  uncertainty k = 0.800694
         9         8         7        39     9      180.000000       -0.380258         2    ;  uncertainty k = 0.538776
         9         8         7        39     9        0.000000        0.600653         3    ;  uncertainty k = 0.113953
         9         8         7        39     9      180.000000       -0.156028         4    ;  uncertainty k = 0.132454
         9         8         7        58     9        0.000000        1.074897         1    ;  uncertainty k = 0.800694
         9         8         7        58     9      180.000000       -0.380257         2    ;  uncertainty k = 0.538775
         9         8         7        58     9        0.000000        0.600653         3    ;  uncertainty k = 0.113953
         9         8         7        58     9      180.000000       -0.156028         4    ;  uncertainty k = 0.132453
         9        10        11        12     9        0.000000       -4.320096         1    ;  uncertainty k = 0.768233
         9        10        11        12     9      180.000000       -0.586157         2    ;  uncertainty k = 0.854142
         9        10        11        12     9        0.000000        1.210084         3    ;  uncertainty k = 0.263819
         9        10        11        12     9      180.000000       -0.790653         4    ;  uncertainty k = 0.124515
         9        10        11        45     9        0.000000       -0.922498         1    ;  uncertainty k = 0.464882
         9        10        11        45     9      180.000000       -0.763101         2    ;  uncertainty k = 0.250830
         9        10        11        45     9        0.000000        0.443621         3    ;  uncertainty k = 0.162657
         9        10        11        45     9      180.000000        0.025004         4    ;  uncertainty k = 0.049793
         9        10        11        46     9        0.000000       -0.922498         1    ;  uncertainty k = 0.464882
         9        10        11        46     9      180.000000       -0.763101         2    ;  uncertainty k = 0.250830
         9        10        11        46     9        0.000000        0.443621         3    ;  uncertainty k = 0.162657
         9        10        11        46     9      180.000000        0.025004         4    ;  uncertainty k = 0.049793
         9        30        29        12     9        0.000000        4.081360         1    ;  uncertainty k = 1.671871
         9        30        29        12     9      180.000000       -1.576284         2    ;  uncertainty k = 1.254570
         9        30        29        12     9        0.000000        0.139182         3    ;  uncertainty k = 0.211264
         9        30        29        12     9      180.000000        0.092665         4    ;  uncertainty k = 0.211317
         9        30        29        28     9        0.000000       -1.929515         1    ;  uncertainty k = 1.424674
         9        30        29        28     9      180.000000       -1.189954         2    ;  uncertainty k = 0.921593
         9        30        29        28     9        0.000000        0.928791         3    ;  uncertainty k = 0.447855
         9        30        29        28     9      180.000000       -0.033316         4    ;  uncertainty k = 0.156154
         9        30        29        57     9        0.000000       -2.278240         1    ;  uncertainty k = 0.742006
         9        30        29        57     9      180.000000       -0.801852         2    ;  uncertainty k = 0.624764
         9        30        29        57     9        0.000000        0.471967         3    ;  uncertainty k = 0.136100
         9        30        29        57     9      180.000000       -0.111036         4    ;  uncertainty k = 0.131824
        10         9         8        40     9        0.000000       -1.216980         1    ;  uncertainty k = 0.741298
        10         9         8        40     9      180.000000        0.125533         2    ;  uncertainty k = 0.242126
        10         9         8        40     9        0.000000        0.512544         3    ;  uncertainty k = 0.153986
        10         9         8        40     9      180.000000       -0.153270         4    ;  uncertainty k = 0.073462
        10         9         8        41     9        0.000000       -1.216980         1    ;  uncertainty k = 0.741298
        10         9         8        41     9      180.000000        0.125533         2    ;  uncertainty k = 0.242126
        10         9         8        41     9        0.000000        0.512544         3    ;  uncertainty k = 0.153986
        10         9         8        41     9      180.000000       -0.153270         4    ;  uncertainty k = 0.073462
        10         9        30        29     9        0.000000        1.480492         1    ;  uncertainty k = 3.130606
        10         9        30        29     9      180.000000       -1.581293         2    ;  uncertainty k = 0.317870
        10         9        30        29     9        0.000000        0.074106         3    ;  uncertainty k = 0.466051
        10         9        30        29     9      180.000000        0.020501         4    ;  uncertainty k = 0.227968
        10        11        12        13     9        0.000000       -3.363170         1    ;  uncertainty k = 0.742268
        10        11        12        13     9      180.000000        0.071751         2    ;  uncertainty k = 0.312799
        10        11        12        13     9        0.000000        1.124568         3    ;  uncertainty k = 0.200626
        10        11        12        13     9      180.000000       -0.475393         4    ;  uncertainty k = 0.204527
        10        11        12        29     9        0.000000       -3.107037         1    ;  uncertainty k = 0.477556
        10        11        12        29     9      180.000000        0.168163         2    ;  uncertainty k = 0.506564
        10        11        12        29     9        0.000000        1.016829         3    ;  uncertainty k = 0.222713
        10        11        12        29     9      180.000000       -0.720418         4    ;  uncertainty k = 0.109069
        10        11        12        47     9        0.000000       -2.352554         1    ;  uncertainty k = 0.594151
        10        11        12        47     9      180.000000        0.210550         2    ;  uncertainty k = 0.333282
        10        11        12        47     9        0.000000        0.038572         3    ;  uncertainty k = 0.071262
        10        11        12        47     9      180.000000       -0.090296         4    ;  uncertainty k = 0.093046
        11        10         9        30     9        0.000000       -2.529948         1    ;  uncertainty k = 0.756158
        11        10         9        30     9      180.000000       -0.401469         2    ;  uncertainty k = 0.834614
        11        10         9        30     9        0.000000        1.400013         3    ;  uncertainty k = 0.419330
        11        10         9        30     9      180.000000       -0.409224         4    ;  uncertainty k = 0.366526
        11        10         9        42     9        0.000000       -0.221605         1    ;  uncertainty k = 0.652087
        11        10         9        42     9      180.000000       -1.252690         2    ;  uncertainty k = 0.422131
        11        10         9        42     9        0.000000       -0.142149         3    ;  uncertainty k = 0.170898
        11        10         9        42     9      180.000000        0.106023         4    ;  uncertainty k = 0.141706
        11        12        13        14     9        0.000000       -0.447922         1    ;  uncertainty k = 0.366790
        11        12        13        14     9      180.000000        0.088146         2    ;  uncertainty k = 0.221033
        11        12        13        14     9        0.000000        1.028729         3    ;  uncertainty k = 0.140036
        11        12        13        14     9      180.000000       -0.032074         4    ;  uncertainty k = 0.096594
        11        12        13        20     9        0.000000       -2.577169         1    ;  uncertainty k = 0.352701
        11        12        13        20     9      180.000000        0.569582         2    ;  uncertainty k = 0.358597
        11        12        13        20     9        0.000000        1.081273         3    ;  uncertainty k = 0.202969
        11        12        13        20     9      180.000000       -0.299721         4    ;  uncertainty k = 0.285730
        11        12        13        48     9        0.000000       -0.342724         1    ;  uncertainty k = 0.368858
        11        12        13        48     9      180.000000       -0.364333         2    ;  uncertainty k = 0.206572
        11        12        13        48     9        0.000000        0.086826         3    ;  uncertainty k = 0.165536
        11        12        13        48     9      180.000000       -0.107598         4    ;  uncertainty k = 0.079866
        11        12        29        28     9        0.000000       -1.689603         1    ;  uncertainty k = 1.012667
        11        12        29        28     9      180.000000       -0.679839         2    ;  uncertainty k = 0.268481
        11        12        29        28     9        0.000000        0.633199         3    ;  uncertainty k = 0.177005
        11        12        29        28     9      180.000000       -0.192121         4    ;  uncertainty k = 0.124975
        11        12        29        30     9        0.000000       -1.394173         1    ;  uncertainty k = 0.741933
        11        12        29        30     9      180.000000       -1.614307         2    ;  uncertainty k = 0.845919
        11        12        29        30     9        0.000000        1.010972         3    ;  uncertainty k = 0.359776
        11        12        29        30     9      180.000000       -0.088779         4    ;  uncertainty k = 0.276431
        11        12        29        57     9        0.000000        0.259727         1    ;  uncertainty k = 0.542085
        11        12        29        57     9      180.000000       -0.444667         2    ;  uncertainty k = 0.384046
        11        12        29        57     9        0.000000       -0.184892         3    ;  uncertainty k = 0.150832
        11        12        29        57     9      180.000000       -0.042372         4    ;  uncertainty k = 0.136108
        12        11        10        43     9        0.000000       -0.843110         1    ;  uncertainty k = 0.414564
        12        11        10        43     9      180.000000       -0.523802         2    ;  uncertainty k = 0.298175
        12        11        10        43     9        0.000000        0.489652         3    ;  uncertainty k = 0.086635
        12        11        10        43     9      180.000000       -0.059656         4    ;  uncertainty k = 0.079811
        12        11        10        44     9        0.000000       -0.843110         1    ;  uncertainty k = 0.414564
        12        11        10        44     9      180.000000       -0.523802         2    ;  uncertainty k = 0.298175
        12        11        10        44     9        0.000000        0.489652         3    ;  uncertainty k = 0.086635
        12        11        10        44     9      180.000000       -0.059656         4    ;  uncertainty k = 0.079811
        12        13        14        15     9        0.000000       -0.111537         1    ;  uncertainty k = 0.709383
        12        13        14        15     9      180.000000        1.832259         2    ;  uncertainty k = 0.233886
        12        13        14        15     9        0.000000        0.274101         3    ;  uncertainty k = 0.144963
        12        13        14        15     9      180.000000        0.245319         4    ;  uncertainty k = 0.077451
        12        13        14        19     9        0.000000       -0.111537         1    ;  uncertainty k = 0.709383
        12        13        14        19     9      180.000000        1.832259         2    ;  uncertainty k = 0.233886
        12        13        14        19     9        0.000000        0.274101         3    ;  uncertainty k = 0.144963
        12        13        14        19     9      180.000000        0.245319         4    ;  uncertainty k = 0.077451
        12        13        20        21     9        0.000000        0.550597         1    ;  uncertainty k = 1.300109
        12        13        20        21     9      180.000000        0.292978         2    ;  uncertainty k = 0.542641
        12        13        20        21     9        0.000000        0.278536         3    ;  uncertainty k = 0.226569
        12        13        20        21     9      180.000000        0.170656         4    ;  uncertainty k = 0.180478
        12        13        20        54     9        0.000000        3.364422         1    ;  uncertainty k = 0.792659
        12        13        20        54     9      180.000000       -1.771652         2    ;  uncertainty k = 1.305731
        12        13        20        54     9        0.000000        0.478059         3    ;  uncertainty k = 0.318344
        12        13        20        54     9      180.000000       -0.021921         4    ;  uncertainty k = 0.075868
        12        29        28        21     9        0.000000        0.175680         1    ;  uncertainty k = 2.605584
        12        29        28        21     9      180.000000        0.140930         2    ;  uncertainty k = 1.276337
        12        29        28        21     9        0.000000       -0.040981         3    ;  uncertainty k = 0.771029
        12        29        28        21     9      180.000000        0.764579         4    ;  uncertainty k = 0.224253
        12        29        28        27     9        0.000000       -1.479586         1    ;  uncertainty k = 0.650761
        12        29        28        27     9      180.000000        0.023507         2    ;  uncertainty k = 0.512952
        12        29        28        27     9        0.000000       -0.114896         3    ;  uncertainty k = 0.198956
        12        29        28        27     9      180.000000        0.417667         4    ;  uncertainty k = 0.141572
        13        12        11        45     9        0.000000        0.103088         1    ;  uncertainty k = 0.332242
        13        12        11        45     9      180.000000       -0.605754         2    ;  uncertainty k = 0.237562
        13        12        11        45     9        0.000000        0.476132         3    ;  uncertainty k = 0.090982
        13        12        11        45     9      180.000000       -0.048434         4    ;  uncertainty k = 0.096566
        13        12        11        46     9        0.000000        0.103088         1    ;  uncertainty k = 0.332242
        13        12        11        46     9      180.000000       -0.605754         2    ;  uncertainty k = 0.237562
        13        12        11        46     9        0.000000        0.476132         3    ;  uncertainty k = 0.090982
        13        12        11        46     9      180.000000       -0.048434         4    ;  uncertainty k = 0.096566
        13        12        29        28     9        0.000000        1.170293         1    ;  uncertainty k = 1.032428
        13        12        29        28     9      180.000000       -2.139090         2    ;  uncertainty k = 0.473764
        13        12        29        28     9        0.000000        0.269976         3    ;  uncertainty k = 0.221622
        13        12        29        28     9      180.000000       -0.143267         4    ;  uncertainty k = 0.161186
        13        12        29        30     9        0.000000       -0.869593         1    ;  uncertainty k = 1.097225
        13        12        29        30     9      180.000000       -3.566740         2    ;  uncertainty k = 1.447664
        13        12        29        30     9        0.000000        0.694839         3    ;  uncertainty k = 0.273393
        13        12        29        30     9      180.000000        0.062247         4    ;  uncertainty k = 0.371924
        13        12        29        57     9        0.000000        0.813703         1    ;  uncertainty k = 0.700637
        13        12        29        57     9      180.000000       -0.971874         2    ;  uncertainty k = 0.521349
        13        12        29        57     9        0.000000       -0.242701         3    ;  uncertainty k = 0.104748
        13        12        29        57     9      180.000000       -0.004206         4    ;  uncertainty k = 0.204479
        13        14        15        16     9        0.000000        0.315475         1    ;  uncertainty k = 0.262602
        13        14        15        16     9      180.000000        8.621091         2    ;  uncertainty k = 0.465138
        13        14        15        16     9        0.000000        1.453888         3    ;  uncertainty k = 0.336787
        13        14        15        16     9      180.000000        1.906667         4    ;  uncertainty k = 0.204333
        13        14        15        49     9        0.000000        0.041226         1    ;  uncertainty k = 0.295434
        13        14        15        49     9      180.000000        7.823420         2    ;  uncertainty k = 0.255813
        13        14        15        49     9        0.000000        0.567730         3    ;  uncertainty k = 0.365385
        13        14        15        49     9      180.000000        0.878203         4    ;  uncertainty k = 0.166432
        13        14        19        18     9        0.000000        0.315475         1    ;  uncertainty k = 0.262602
        13        14        19        18     9      180.000000        8.621091         2    ;  uncertainty k = 0.465138
        13        14        19        18     9        0.000000        1.453888         3    ;  uncertainty k = 0.336787
        13        14        19        18     9      180.000000        1.906667         4    ;  uncertainty k = 0.204333
        13        14        19        53     9        0.000000        0.041226         1    ;  uncertainty k = 0.295434
        13        14        19        53     9      180.000000        7.823420         2    ;  uncertainty k = 0.255813
        13        14        19        53     9        0.000000        0.567730         3    ;  uncertainty k = 0.365385
        13        14        19        53     9      180.000000        0.878203         4    ;  uncertainty k = 0.166432
        13        20        21        22     9        0.000000        2.391356         1    ;  uncertainty k = 1.771557
        13        20        21        22     9      180.000000        2.569159         2    ;  uncertainty k = 0.890412
        13        20        21        22     9        0.000000        0.739510         3    ;  uncertainty k = 0.321251
        13        20        21        22     9      180.000000        0.369029         4    ;  uncertainty k = 0.157978
        13        20        21        28     9        0.000000        3.279649         1    ;  uncertainty k = 1.243965
        13        20        21        28     9      180.000000        1.975532         2    ;  uncertainty k = 0.707311
        13        20        21        28     9        0.000000       -0.321547         3    ;  uncertainty k = 0.371331
        13        20        21        28     9      180.000000        0.549698         4    ;  uncertainty k = 0.224211
        14        13        12        29     9        0.000000       -0.584168         1    ;  uncertainty k = 0.746669
        14        13        12        29     9      180.000000       -0.385590         2    ;  uncertainty k = 0.403902
        14        13        12        29     9        0.000000        0.411835         3    ;  uncertainty k = 0.218581
        14        13        12        29     9      180.000000       -0.043372         4    ;  uncertainty k = 0.143034
        14        13        12        47     9        0.000000        0.521826         1    ;  uncertainty k = 0.245890
        14        13        12        47     9      180.000000        0.128842         2    ;  uncertainty k = 0.617819
        14        13        12        47     9        0.000000        0.456514         3    ;  uncertainty k = 0.077842
        14        13        12        47     9      180.000000       -0.031889         4    ;  uncertainty k = 0.109122
        14        13        20        21     9        0.000000       -1.276483         1    ;  uncertainty k = 0.766279
        14        13        20        21     9      180.000000        0.110425         2    ;  uncertainty k = 0.140674
        14        13        20        21     9        0.000000        1.045072         3    ;  uncertainty k = 0.235984
        14        13        20        21     9      180.000000        0.231250         4    ;  uncertainty k = 0.093371
        14        13        20        54     9        0.000000        4.853101         1    ;  uncertainty k = 0.666151
        14        13        20        54     9      180.000000       -0.863729         2    ;  uncertainty k = 0.353945
        14        13        20        54     9        0.000000        0.434146         3    ;  uncertainty k = 0.251029
        14        13        20        54     9      180.000000       -0.043424         4    ;  uncertainty k = 0.187740
        14        15        16        17     9        0.000000       -0.073185         1    ;  uncertainty k = 0.135863
        14        15        16        17     9      180.000000       13.840581         2    ;  uncertainty k = 0.218470
        14        15        16        17     9        0.000000       -0.942124         3    ;  uncertainty k = 0.500159
        14        15        16        17     9      180.000000        0.720226         4    ;  uncertainty k = 0.249573
        14        15        16        50     9        0.000000        0.078937         1    ;  uncertainty k = 0.238410
        14        15        16        50     9      180.000000        7.523904         2    ;  uncertainty k = 0.411008
        14        15        16        50     9        0.000000        1.486224         3    ;  uncertainty k = 0.266910
        14        15        16        50     9      180.000000        1.791252         4    ;  uncertainty k = 0.130361
        14        19        18        17     9        0.000000       -0.073185         1    ;  uncertainty k = 0.135863
        14        19        18        17     9      180.000000       13.840581         2    ;  uncertainty k = 0.218470
        14        19        18        17     9        0.000000       -0.942124         3    ;  uncertainty k = 0.500159
        14        19        18        17     9      180.000000        0.720226         4    ;  uncertainty k = 0.249573
        14        19        18        52     9        0.000000        0.078937         1    ;  uncertainty k = 0.238410
        14        19        18        52     9      180.000000        7.523904         2    ;  uncertainty k = 0.411008
        14        19        18        52     9        0.000000        1.486224         3    ;  uncertainty k = 0.266910
        14        19        18        52     9      180.000000        1.791252         4    ;  uncertainty k = 0.130361
        15        14        13        20     9        0.000000       -0.587440         1    ;  uncertainty k = 0.650241
        15        14        13        20     9      180.000000        2.752986         2    ;  uncertainty k = 0.235149
        15        14        13        20     9        0.000000        0.633136         3    ;  uncertainty k = 0.233844
        15        14        13        20     9      180.000000        0.456102         4    ;  uncertainty k = 0.027417
        15        14        13        48     9        0.000000       -0.605120         1    ;  uncertainty k = 0.219677
        15        14        13        48     9      180.000000        2.297380         2    ;  uncertainty k = 0.337137
        15        14        13        48     9        0.000000        0.473321         3    ;  uncertainty k = 0.111321
        15        14        13        48     9      180.000000        0.234329         4    ;  uncertainty k = 0.048057
        15        14        19        18     9        0.000000       -0.244750         1    ;  uncertainty k = 0.085030
        15        14        19        18     9      180.000000       11.550238         2    ;  uncertainty k = 0.281782
        15        14        19        18     9        0.000000       -0.471965         3    ;  uncertainty k = 0.307308
        15        14        19        18     9      180.000000        0.819629         4    ;  uncertainty k = 0.339588
        15        14        19        53     9        0.000000        0.103785         1    ;  uncertainty k = 0.115164
        15        14        19        53     9      180.000000        7.232566         2    ;  uncertainty k = 0.479326
        15        14        19        53     9        0.000000        1.441609         3    ;  uncertainty k = 0.358039
        15        14        19        53     9      180.000000        1.626932         4    ;  uncertainty k = 0.180627
        15        16        17        18     9        0.000000        0.003338         1    ;  uncertainty k = 0.036528
        15        16        17        18     9      180.000000       15.061872         2    ;  uncertainty k = 0.266781
        15        16        17        18     9        0.000000       -1.241530         3    ;  uncertainty k = 0.510933
        15        16        17        18     9      180.000000        0.486539         4    ;  uncertainty k = 0.300059
        15        16        17        51     9        0.000000        0.055743         1    ;  uncertainty k = 0.094833
        15        16        17        51     9      180.000000        7.490470         2    ;  uncertainty k = 0.333391
        15        16        17        51     9        0.000000        1.467121         3    ;  uncertainty k = 0.292765
        15        16        17        51     9      180.000000        1.797081         4    ;  uncertainty k = 0.179698
        16        15        14        19     9        0.000000       -0.244750         1    ;  uncertainty k = 0.085030
        16        15        14        19     9      180.000000       11.550238         2    ;  uncertainty k = 0.281782
        16        15        14        19     9        0.000000       -0.471965         3    ;  uncertainty k = 0.307308
        16        15        14        19     9      180.000000        0.819629         4    ;  uncertainty k = 0.339588
        16        17        18        19     9        0.000000        0.003338         1    ;  uncertainty k = 0.036528
        16        17        18        19     9      180.000000       15.061872         2    ;  uncertainty k = 0.266781
        16        17        18        19     9        0.000000       -1.241530         3    ;  uncertainty k = 0.510933
        16        17        18        19     9      180.000000        0.486539         4    ;  uncertainty k = 0.300059
        16        17        18        52     9        0.000000        0.045944         1    ;  uncertainty k = 0.040455
        16        17        18        52     9      180.000000        7.527539         2    ;  uncertainty k = 0.325490
        16        17        18        52     9        0.000000        1.433627         3    ;  uncertainty k = 0.327115
        16        17        18        52     9      180.000000        1.790207         4    ;  uncertainty k = 0.158460
        17        16        15        49     9        0.000000        0.053110         1    ;  uncertainty k = 0.076538
        17        16        15        49     9      180.000000        7.946075         2    ;  uncertainty k = 0.338884
        17        16        15        49     9        0.000000        1.427770         3    ;  uncertainty k = 0.326160
        17        16        15        49     9      180.000000        1.836126         4    ;  uncertainty k = 0.159402
        17        18        19        53     9        0.000000        0.053110         1    ;  uncertainty k = 0.076538
        17        18        19        53     9      180.000000        7.946075         2    ;  uncertainty k = 0.338884
        17        18        19        53     9        0.000000        1.427770         3    ;  uncertainty k = 0.326160
        17        18        19        53     9      180.000000        1.836126         4    ;  uncertainty k = 0.159402
        18        17        16        50     9        0.000000        0.045944         1    ;  uncertainty k = 0.040455
        18        17        16        50     9      180.000000        7.527539         2    ;  uncertainty k = 0.325490
        18        17        16        50     9        0.000000        1.433627         3    ;  uncertainty k = 0.327115
        18        17        16        50     9      180.000000        1.790207         4    ;  uncertainty k = 0.158460
        19        14        13        20     9        0.000000       -0.587440         1    ;  uncertainty k = 0.650241
        19        14        13        20     9      180.000000        2.752986         2    ;  uncertainty k = 0.235149
        19        14        13        20     9        0.000000        0.633136         3    ;  uncertainty k = 0.233844
        19        14        13        20     9      180.000000        0.456102         4    ;  uncertainty k = 0.027417
        19        14        13        48     9        0.000000       -0.605120         1    ;  uncertainty k = 0.219677
        19        14        13        48     9      180.000000        2.297380         2    ;  uncertainty k = 0.337137
        19        14        13        48     9        0.000000        0.473321         3    ;  uncertainty k = 0.111321
        19        14        13        48     9      180.000000        0.234329         4    ;  uncertainty k = 0.048057
        19        14        15        49     9        0.000000        0.103785         1    ;  uncertainty k = 0.115164
        19        14        15        49     9      180.000000        7.232566         2    ;  uncertainty k = 0.479326
        19        14        15        49     9        0.000000        1.441609         3    ;  uncertainty k = 0.358039
        19        14        15        49     9      180.000000        1.626932         4    ;  uncertainty k = 0.180627
        19        18        17        51     9        0.000000        0.055743         1    ;  uncertainty k = 0.094833
        19        18        17        51     9      180.000000        7.490470         2    ;  uncertainty k = 0.333391
        19        18        17        51     9        0.000000        1.467121         3    ;  uncertainty k = 0.292765
        19        18        17        51     9      180.000000        1.797081         4    ;  uncertainty k = 0.179698
        20        13        12        29     9        0.000000        0.049541         1    ;  uncertainty k = 2.124532
        20        13        12        29     9      180.000000       -1.313313         2    ;  uncertainty k = 0.461565
        20        13        12        29     9        0.000000        0.518165         3    ;  uncertainty k = 0.430642
        20        13        12        29     9      180.000000       -0.148429         4    ;  uncertainty k = 0.391704
        20        13        12        47     9        0.000000       -0.987504         1    ;  uncertainty k = 0.658849
        20        13        12        47     9      180.000000        0.141272         2    ;  uncertainty k = 0.387448
        20        13        12        47     9        0.000000        0.636103         3    ;  uncertainty k = 0.252693
        20        13        12        47     9      180.000000        0.058629         4    ;  uncertainty k = 0.106340
        20        21        22        23     9        0.000000       -0.060083         1    ;  uncertainty k = 0.590287
        20        21        22        23     9      180.000000       11.126910         2    ;  uncertainty k = 0.350929
        20        21        22        23     9        0.000000        0.831575         3    ;  uncertainty k = 0.133696
        20        21        22        23     9      180.000000        1.168919         4    ;  uncertainty k = 0.315287
        20        21        22        24     9        0.000000        0.088918         1    ;  uncertainty k = 0.544071
        20        21        22        24     9      180.000000        6.964617         2    ;  uncertainty k = 0.322045
        20        21        22        24     9        0.000000        1.148935         3    ;  uncertainty k = 0.296949
        20        21        22        24     9      180.000000        1.660977         4    ;  uncertainty k = 0.199224
        20        21        28        27     9        0.000000        0.477887         1    ;  uncertainty k = 0.399691
        20        21        28        27     9      180.000000        7.471603         2    ;  uncertainty k = 0.312160
        20        21        28        27     9        0.000000        0.992344         3    ;  uncertainty k = 0.143783
        20        21        28        27     9      180.000000        1.466913         4    ;  uncertainty k = 0.364863
        20        21        28        29     9        0.000000        0.044405         1    ;  uncertainty k = 0.630277
        20        21        28        29     9      180.000000        7.768386         2    ;  uncertainty k = 1.013167
        20        21        28        29     9        0.000000        0.654437         3    ;  uncertainty k = 0.596730
        20        21        28        29     9      180.000000        1.220021         4    ;  uncertainty k = 0.495626
        21        20        13        48     9        0.000000       -0.900699         1    ;  uncertainty k = 0.549589
        21        20        13        48     9      180.000000       -0.516685         2    ;  uncertainty k = 0.381663
        21        20        13        48     9        0.000000        0.691905         3    ;  uncertainty k = 0.185457
        21        20        13        48     9      180.000000        0.230822         4    ;  uncertainty k = 0.071840
        21        22        24        25     9        0.000000        0.009006         1    ;  uncertainty k = 0.120063
        21        22        24        25     9      180.000000        9.491498         2    ;  uncertainty k = 0.531876
        21        22        24        25     9        0.000000        0.360121         3    ;  uncertainty k = 0.440836
        21        22        24        25     9      180.000000        1.280678         4    ;  uncertainty k = 0.325008
        21        22        24        55     9        0.000000        0.412675         1    ;  uncertainty k = 0.285802
        21        22        24        55     9      180.000000        6.193922         2    ;  uncertainty k = 0.765170
        21        22        24        55     9        0.000000        1.347450         3    ;  uncertainty k = 0.433252
        21        22        24        55     9      180.000000        1.514887         4    ;  uncertainty k = 0.238880
        21        28        27        25     9        0.000000       -0.158158         1    ;  uncertainty k = 0.259234
        21        28        27        25     9      180.000000       12.801579         2    ;  uncertainty k = 0.353836
        21        28        27        25     9        0.000000       -0.440076         3    ;  uncertainty k = 0.437524
        21        28        27        25     9      180.000000        1.033790         4    ;  uncertainty k = 0.386259
        21        28        27        56     9        0.000000        0.403965         1    ;  uncertainty k = 0.444840
        21        28        27        56     9      180.000000        8.088946         2    ;  uncertainty k = 0.715130
        21        28        27        56     9        0.000000        1.421554         3    ;  uncertainty k = 0.300875
        21        28        27        56     9      180.000000        1.657838         4    ;  uncertainty k = 0.128932
        21        28        29        30     9        0.000000       -1.973740         1    ;  uncertainty k = 1.893028
        21        28        29        30     9      180.000000        0.114140         2    ;  uncertainty k = 1.057590
        21        28        29        30     9        0.000000        1.439094         3    ;  uncertainty k = 0.414307
        21        28        29        30     9      180.000000       -0.038291         4    ;  uncertainty k = 0.199549
        21        28        29        57     9        0.000000       -0.401857         1    ;  uncertainty k = 0.824321
        21        28        29        57     9      180.000000        2.149322         2    ;  uncertainty k = 0.251130
        21        28        29        57     9        0.000000        0.459195         3    ;  uncertainty k = 0.305757
        21        28        29        57     9      180.000000       -0.205002         4    ;  uncertainty k = 0.121417
        22        21        20        54     9        0.000000        4.797814         1    ;  uncertainty k = 1.034286
        22        21        20        54     9      180.000000        3.853521         2    ;  uncertainty k = 0.744415
        22        21        20        54     9        0.000000        0.759458         3    ;  uncertainty k = 0.324614
        22        21        20        54     9      180.000000        0.073414         4    ;  uncertainty k = 0.226041
        22        21        28        27     9        0.000000        0.247430         1    ;  uncertainty k = 0.341936
        22        21        28        27     9      180.000000        5.620797         2    ;  uncertainty k = 0.518533
        22        21        28        27     9        0.000000        0.470651         3    ;  uncertainty k = 0.354365
        22        21        28        27     9      180.000000        1.417636         4    ;  uncertainty k = 0.303743
        22        21        28        29     9        0.000000        0.657626         1    ;  uncertainty k = 0.586897
        22        21        28        29     9      180.000000        5.691840         2    ;  uncertainty k = 0.485094
        22        21        28        29     9        0.000000        1.217146         3    ;  uncertainty k = 0.384653
        22        21        28        29     9      180.000000        1.462367         4    ;  uncertainty k = 0.247716
        22        24        25        26     9        0.000000        0.040161         1    ;  uncertainty k = 0.354157
        22        24        25        26     9      180.000000        8.954691         2    ;  uncertainty k = 0.705512
        22        24        25        26     9        0.000000        1.430356         3    ;  uncertainty k = 0.513844
        22        24        25        26     9      180.000000        1.646683         4    ;  uncertainty k = 0.172009
        22        24        25        27     9        0.000000       -0.040818         1    ;  uncertainty k = 0.213618
        22        24        25        27     9      180.000000       10.035956         2    ;  uncertainty k = 0.401036
        22        24        25        27     9        0.000000       -0.304528         3    ;  uncertainty k = 0.469022
        22        24        25        27     9      180.000000        1.205197         4    ;  uncertainty k = 0.279421
        23        22        21        28     9        0.000000        0.326652         1    ;  uncertainty k = 0.470562
        23        22        21        28     9      180.000000        8.375475         2    ;  uncertainty k = 0.599616
        23        22        21        28     9        0.000000        1.576070         3    ;  uncertainty k = 0.229625
        23        22        21        28     9      180.000000        1.562451         4    ;  uncertainty k = 0.264235
        23        22        24        25     9        0.000000        0.091398         1    ;  uncertainty k = 0.302839
        23        22        24        25     9      180.000000       14.402964         2    ;  uncertainty k = 0.535126
        23        22        24        25     9        0.000000        1.501230         3    ;  uncertainty k = 0.227760
        23        22        24        25     9      180.000000        1.446633         4    ;  uncertainty k = 0.335813
        23        22        24        55     9        0.000000       -0.186101         1    ;  uncertainty k = 0.272583
        23        22        24        55     9      180.000000        9.880581         2    ;  uncertainty k = 0.436690
        23        22        24        55     9        0.000000        0.877926         3    ;  uncertainty k = 0.253249
        23        22        24        55     9      180.000000        1.095357         4    ;  uncertainty k = 0.298512
        24        22        21        28     9        0.000000       -0.094495         1    ;  uncertainty k = 0.676460
        24        22        21        28     9      180.000000        4.265858         2    ;  uncertainty k = 1.613470
        24        22        21        28     9        0.000000        0.435808         3    ;  uncertainty k = 0.523661
        24        22        21        28     9      180.000000        1.313952         4    ;  uncertainty k = 0.340619
        24        25        27        28     9        0.000000        0.025092         1    ;  uncertainty k = 0.185760
        24        25        27        28     9      180.000000        9.808076         2    ;  uncertainty k = 0.304552
        24        25        27        28     9        0.000000       -0.153074         3    ;  uncertainty k = 0.709628
        24        25        27        28     9      180.000000        1.304572         4    ;  uncertainty k = 0.371509
        24        25        27        56     9        0.000000       -0.067340         1    ;  uncertainty k = 0.187781
        24        25        27        56     9      180.000000        6.567591         2    ;  uncertainty k = 0.513907
        24        25        27        56     9        0.000000        1.467478         3    ;  uncertainty k = 0.411814
        24        25        27        56     9      180.000000        1.638651         4    ;  uncertainty k = 0.161799
        25        27        28        29     9        0.000000        0.201666         1    ;  uncertainty k = 0.416472
        25        27        28        29     9      180.000000       10.316846         2    ;  uncertainty k = 0.474697
        25        27        28        29     9        0.000000        1.379324         3    ;  uncertainty k = 0.262591
        25        27        28        29     9      180.000000        1.807741         4    ;  uncertainty k = 0.478927
        26        25        24        55     9        0.000000        0.125104         1    ;  uncertainty k = 0.415084
        26        25        24        55     9      180.000000        6.785021         2    ;  uncertainty k = 0.550711
        26        25        24        55     9        0.000000        0.689935         3    ;  uncertainty k = 0.454847
        26        25        24        55     9      180.000000        0.926966         4    ;  uncertainty k = 0.178610
        26        25        27        28     9        0.000000       -0.012995         1    ;  uncertainty k = 0.198611
        26        25        27        28     9      180.000000        9.267808         2    ;  uncertainty k = 0.538114
        26        25        27        28     9        0.000000        1.391768         3    ;  uncertainty k = 0.445063
        26        25        27        28     9      180.000000        1.591384         4    ;  uncertainty k = 0.100517
        26        25        27        56     9        0.000000        0.163579         1    ;  uncertainty k = 0.389269
        26        25        27        56     9      180.000000        7.384287         2    ;  uncertainty k = 0.545223
        26        25        27        56     9        0.000000        0.814260         3    ;  uncertainty k = 0.365361
        26        25        27        56     9      180.000000        1.020295         4    ;  uncertainty k = 0.224898
        27        25        24        55     9        0.000000        0.049149         1    ;  uncertainty k = 0.100352
        27        25        24        55     9      180.000000        5.953376         2    ;  uncertainty k = 0.555637
        27        25        24        55     9        0.000000        1.432580         3    ;  uncertainty k = 0.302055
        27        25        24        55     9      180.000000        1.521489         4    ;  uncertainty k = 0.137963
        27        28        29        30     9        0.000000        0.431408         1    ;  uncertainty k = 0.243793
        27        28        29        30     9      180.000000        1.266436         2    ;  uncertainty k = 0.388499
        27        28        29        30     9        0.000000       -0.226181         3    ;  uncertainty k = 0.453343
        27        28        29        30     9      180.000000        0.089871         4    ;  uncertainty k = 0.128307
        27        28        29        57     9        0.000000        0.379649         1    ;  uncertainty k = 0.796149
        27        28        29        57     9      180.000000        1.929367         2    ;  uncertainty k = 0.383040
        27        28        29        57     9        0.000000        0.097499         3    ;  uncertainty k = 0.126209
        27        28        29        57     9      180.000000        0.000554         4    ;  uncertainty k = 0.177490
        28        21        20        54     9        0.000000        9.987733         1    ;  uncertainty k = 0.573993
        28        21        20        54     9      180.000000        5.051653         2    ;  uncertainty k = 0.524626
        28        21        20        54     9        0.000000        0.360339         3    ;  uncertainty k = 0.274960
        28        21        20        54     9      180.000000        0.193157         4    ;  uncertainty k = 0.187783
        28        29        12        47     9        0.000000       -0.329383         1    ;  uncertainty k = 1.132184
        28        29        12        47     9      180.000000        0.629786         2    ;  uncertainty k = 0.441174
        28        29        12        47     9        0.000000        0.020851         3    ;  uncertainty k = 0.102442
        28        29        12        47     9      180.000000       -0.055848         4    ;  uncertainty k = 0.094840
        29        12        11        45     9        0.000000       -0.383491         1    ;  uncertainty k = 0.499844
        29        12        11        45     9      180.000000       -0.696050         2    ;  uncertainty k = 0.137724
        29        12        11        45     9        0.000000        0.282283         3    ;  uncertainty k = 0.123198
        29        12        11        45     9      180.000000       -0.015025         4    ;  uncertainty k = 0.051604
        29        12        11        46     9        0.000000       -0.383491         1    ;  uncertainty k = 0.499844
        29        12        11        46     9      180.000000       -0.696050         2    ;  uncertainty k = 0.137724
        29        12        11        46     9        0.000000        0.282283         3    ;  uncertainty k = 0.123198
        29        12        11        46     9      180.000000       -0.015025         4    ;  uncertainty k = 0.051604
        29        12        13        48     9        0.000000        0.546888         1    ;  uncertainty k = 0.755991
        29        12        13        48     9      180.000000       -1.399570         2    ;  uncertainty k = 0.690948
        29        12        13        48     9        0.000000       -0.376058         3    ;  uncertainty k = 0.139347
        29        12        13        48     9      180.000000        0.007791         4    ;  uncertainty k = 0.136392
        29        28        27        56     9        0.000000       -0.238704         1    ;  uncertainty k = 0.558294
        29        28        27        56     9      180.000000        8.181591         2    ;  uncertainty k = 0.849684
        29        28        27        56     9        0.000000        0.764564         3    ;  uncertainty k = 0.294633
        29        28        27        56     9      180.000000        1.118649         4    ;  uncertainty k = 0.451719
        29        30         9        42     9        0.000000       -2.029264         1    ;  uncertainty k = 1.611302
        29        30         9        42     9      180.000000       -0.893644         2    ;  uncertainty k = 0.511614
        29        30         9        42     9        0.000000        0.239190         3    ;  uncertainty k = 0.054757
        29        30         9        42     9      180.000000        0.021736         4    ;  uncertainty k = 0.156804
        30         9         8        40     9        0.000000        1.091032         1    ;  uncertainty k = 0.919374
        30         9         8        40     9      180.000000       -0.785469         2    ;  uncertainty k = 0.259958
        30         9         8        40     9        0.000000        0.403301         3    ;  uncertainty k = 0.305495
        30         9         8        40     9      180.000000       -0.112054         4    ;  uncertainty k = 0.202755
        30         9         8        41     9        0.000000        1.091032         1    ;  uncertainty k = 0.919374
        30         9         8        41     9      180.000000       -0.785469         2    ;  uncertainty k = 0.259958
        30         9         8        41     9        0.000000        0.403301         3    ;  uncertainty k = 0.305495
        30         9         8        41     9      180.000000       -0.112054         4    ;  uncertainty k = 0.202755
        30         9        10        43     9        0.000000       -1.128384         1    ;  uncertainty k = 0.404960
        30         9        10        43     9      180.000000       -1.092753         2    ;  uncertainty k = 0.420985
        30         9        10        43     9        0.000000        1.054203         3    ;  uncertainty k = 0.239304
        30         9        10        43     9      180.000000       -0.074301         4    ;  uncertainty k = 0.051165
        30         9        10        44     9        0.000000       -1.128384         1    ;  uncertainty k = 0.404960
        30         9        10        44     9      180.000000       -1.092753         2    ;  uncertainty k = 0.420985
        30         9        10        44     9        0.000000        1.054203         3    ;  uncertainty k = 0.239304
        30         9        10        44     9      180.000000       -0.074301         4    ;  uncertainty k = 0.051165
        30        29        12        47     9        0.000000       -0.599673         1    ;  uncertainty k = 0.310196
        30        29        12        47     9      180.000000        0.363478         2    ;  uncertainty k = 0.541300
        30        29        12        47     9        0.000000        0.108874         3    ;  uncertainty k = 0.296422
        30        29        12        47     9      180.000000       -0.135735         4    ;  uncertainty k = 0.133604
        34         4         5        35     9        0.000000        0.412921         1    ;  uncertainty k = 1.627097
        34         4         5        35     9      180.000000       -1.247557         2    ;  uncertainty k = 0.568712
        34         4         5        35     9        0.000000        0.453579         3    ;  uncertainty k = 0.199150
        34         4         5        35     9      180.000000        0.204788         4    ;  uncertainty k = 0.187906
        34         4         5        36     9        0.000000        0.412921         1    ;  uncertainty k = 1.627097
        34         4         5        36     9      180.000000       -1.247557         2    ;  uncertainty k = 0.568712
        34         4         5        36     9        0.000000        0.453579         3    ;  uncertainty k = 0.199150
        34         4         5        36     9      180.000000        0.204788         4    ;  uncertainty k = 0.187906
        35         5         6        37     9        0.000000        0.020420         1    ;  uncertainty k = 0.481434
        35         5         6        37     9      180.000000        0.044657         2    ;  uncertainty k = 0.412273
        35         5         6        37     9        0.000000        0.219322         3    ;  uncertainty k = 0.090250
        35         5         6        37     9      180.000000        0.065157         4    ;  uncertainty k = 0.061308
        35         5         6        38     9        0.000000        0.020420         1    ;  uncertainty k = 0.481434
        35         5         6        38     9      180.000000        0.044657         2    ;  uncertainty k = 0.412273
        35         5         6        38     9        0.000000        0.219322         3    ;  uncertainty k = 0.090250
        35         5         6        38     9      180.000000        0.065157         4    ;  uncertainty k = 0.061308
        36         5         6        37     9        0.000000        0.020420         1    ;  uncertainty k = 0.481434
        36         5         6        37     9      180.000000        0.044657         2    ;  uncertainty k = 0.412273
        36         5         6        37     9        0.000000        0.219322         3    ;  uncertainty k = 0.090250
        36         5         6        37     9      180.000000        0.065157         4    ;  uncertainty k = 0.061308
        36         5         6        38     9        0.000000        0.020420         1    ;  uncertainty k = 0.481434
        36         5         6        38     9      180.000000        0.044657         2    ;  uncertainty k = 0.412273
        36         5         6        38     9        0.000000        0.219322         3    ;  uncertainty k = 0.090250
        36         5         6        38     9      180.000000        0.065157         4    ;  uncertainty k = 0.061308
        37         6         7        39     9        0.000000        0.215289         1    ;  uncertainty k = 0.755750
        37         6         7        39     9      180.000000       -0.145328         2    ;  uncertainty k = 0.337909
        37         6         7        39     9        0.000000        0.231477         3    ;  uncertainty k = 0.041086
        37         6         7        39     9      180.000000        0.048729         4    ;  uncertainty k = 0.098335
        37         6         7        58     9        0.000000        0.215290         1    ;  uncertainty k = 0.755750
        37         6         7        58     9      180.000000       -0.145327         2    ;  uncertainty k = 0.337908
        37         6         7        58     9        0.000000        0.231477         3    ;  uncertainty k = 0.041086
        37         6         7        58     9      180.000000        0.048730         4    ;  uncertainty k = 0.098335
        38         6         7        39     9        0.000000        0.215289         1    ;  uncertainty k = 0.755750
        38         6         7        39     9      180.000000       -0.145328         2    ;  uncertainty k = 0.337909
        38         6         7        39     9        0.000000        0.231477         3    ;  uncertainty k = 0.041086
        38         6         7        39     9      180.000000        0.048729         4    ;  uncertainty k = 0.098335
        38         6         7        58     9        0.000000        0.215290         1    ;  uncertainty k = 0.755750
        38         6         7        58     9      180.000000       -0.145327         2    ;  uncertainty k = 0.337908
        38         6         7        58     9        0.000000        0.231477         3    ;  uncertainty k = 0.041086
        38         6         7        58     9      180.000000        0.048730         4    ;  uncertainty k = 0.098335
        39         7         8        40     9        0.000000        0.291273         1    ;  uncertainty k = 0.682512
        39         7         8        40     9      180.000000       -0.206235         2    ;  uncertainty k = 0.230793
        39         7         8        40     9        0.000000        0.303136         3    ;  uncertainty k = 0.088415
        39         7         8        40     9      180.000000        0.039398         4    ;  uncertainty k = 0.096209
        39         7         8        41     9        0.000000        0.291273         1    ;  uncertainty k = 0.682512
        39         7         8        41     9      180.000000       -0.206235         2    ;  uncertainty k = 0.230793
        39         7         8        41     9        0.000000        0.303136         3    ;  uncertainty k = 0.088415
        39         7         8        41     9      180.000000        0.039398         4    ;  uncertainty k = 0.096209
        40         8         7        58     9        0.000000        0.291271         1    ;  uncertainty k = 0.682513
        40         8         7        58     9      180.000000       -0.206236         2    ;  uncertainty k = 0.230792
        40         8         7        58     9        0.000000        0.303136         3    ;  uncertainty k = 0.088415
        40         8         7        58     9      180.000000        0.039398         4    ;  uncertainty k = 0.096209
        40         8         9        42     9        0.000000       -0.219691         1    ;  uncertainty k = 0.375928
        40         8         9        42     9      180.000000        0.092027         2    ;  uncertainty k = 0.422556
        40         8         9        42     9        0.000000        0.186666         3    ;  uncertainty k = 0.181546
        40         8         9        42     9      180.000000       -0.051077         4    ;  uncertainty k = 0.056643
        41         8         7        58     9        0.000000        0.291271         1    ;  uncertainty k = 0.682513
        41         8         7        58     9      180.000000       -0.206236         2    ;  uncertainty k = 0.230792
        41         8         7        58     9        0.000000        0.303136         3    ;  uncertainty k = 0.088415
        41         8         7        58     9      180.000000        0.039398         4    ;  uncertainty k = 0.096209
        41         8         9        42     9        0.000000       -0.219691         1    ;  uncertainty k = 0.375928
        41         8         9        42     9      180.000000        0.092027         2    ;  uncertainty k = 0.422556
        41         8         9        42     9        0.000000        0.186666         3    ;  uncertainty k = 0.181546
        41         8         9        42     9      180.000000       -0.051077         4    ;  uncertainty k = 0.056643
        42         9        10        43     9        0.000000        0.457016         1    ;  uncertainty k = 0.161518
        42         9        10        43     9      180.000000        0.072134         2    ;  uncertainty k = 0.349560
        42         9        10        43     9        0.000000       -0.024020         3    ;  uncertainty k = 0.136680
        42         9        10        43     9      180.000000       -0.118652         4    ;  uncertainty k = 0.076008
        42         9        10        44     9        0.000000        0.457016         1    ;  uncertainty k = 0.161518
        42         9        10        44     9      180.000000        0.072134         2    ;  uncertainty k = 0.349560
        42         9        10        44     9        0.000000       -0.024020         3    ;  uncertainty k = 0.136680
        42         9        10        44     9      180.000000       -0.118652         4    ;  uncertainty k = 0.076008
        43        10        11        45     9        0.000000        1.565774         1    ;  uncertainty k = 0.444565
        43        10        11        45     9      180.000000        0.161485         2    ;  uncertainty k = 0.255156
        43        10        11        45     9        0.000000        0.367677         3    ;  uncertainty k = 0.120802
        43        10        11        45     9      180.000000        0.076828         4    ;  uncertainty k = 0.017254
        43        10        11        46     9        0.000000        1.565774         1    ;  uncertainty k = 0.444565
        43        10        11        46     9      180.000000        0.161485         2    ;  uncertainty k = 0.255156
        43        10        11        46     9        0.000000        0.367677         3    ;  uncertainty k = 0.120802
        43        10        11        46     9      180.000000        0.076828         4    ;  uncertainty k = 0.017254
        44        10        11        45     9        0.000000        1.565774         1    ;  uncertainty k = 0.444565
        44        10        11        45     9      180.000000        0.161485         2    ;  uncertainty k = 0.255156
        44        10        11        45     9        0.000000        0.367677         3    ;  uncertainty k = 0.120802
        44        10        11        45     9      180.000000        0.076828         4    ;  uncertainty k = 0.017254
        44        10        11        46     9        0.000000        1.565774         1    ;  uncertainty k = 0.444565
        44        10        11        46     9      180.000000        0.161485         2    ;  uncertainty k = 0.255156
        44        10        11        46     9        0.000000        0.367677         3    ;  uncertainty k = 0.120802
        44        10        11        46     9      180.000000        0.076828         4    ;  uncertainty k = 0.017254
        45        11        12        47     9        0.000000        1.556155         1    ;  uncertainty k = 0.374248
        45        11        12        47     9      180.000000       -0.010849         2    ;  uncertainty k = 0.316684
        45        11        12        47     9        0.000000       -0.074252         3    ;  uncertainty k = 0.123289
        45        11        12        47     9      180.000000        0.022583         4    ;  uncertainty k = 0.073589
        46        11        12        47     9        0.000000        1.556155         1    ;  uncertainty k = 0.374248
        46        11        12        47     9      180.000000       -0.010849         2    ;  uncertainty k = 0.316684
        46        11        12        47     9        0.000000       -0.074252         3    ;  uncertainty k = 0.123289
        46        11        12        47     9      180.000000        0.022583         4    ;  uncertainty k = 0.073589
        47        12        13        48     9        0.000000        1.060795         1    ;  uncertainty k = 0.473342
        47        12        13        48     9      180.000000       -0.041496         2    ;  uncertainty k = 0.253895
        47        12        13        48     9        0.000000       -0.344094         3    ;  uncertainty k = 0.165557
        47        12        13        48     9      180.000000       -0.269487         4    ;  uncertainty k = 0.106351
        47        12        29        57     9        0.000000        2.070001         1    ;  uncertainty k = 0.438242
        47        12        29        57     9      180.000000        0.850401         2    ;  uncertainty k = 0.443950
        47        12        29        57     9        0.000000       -0.470101         3    ;  uncertainty k = 0.236052
        47        12        29        57     9      180.000000       -0.163558         4    ;  uncertainty k = 0.061839
        48        13        20        54     9        0.000000        0.363982         1    ;  uncertainty k = 0.625038
        48        13        20        54     9      180.000000       -0.862575         2    ;  uncertainty k = 0.318184
        48        13        20        54     9        0.000000        0.523809         3    ;  uncertainty k = 0.251385
        48        13        20        54     9      180.000000        0.051527         4    ;  uncertainty k = 0.122685
        49        15        16        50     9        0.000000       -0.038401         1    ;  uncertainty k = 0.034127
        49        15        16        50     9      180.000000        7.644155         2    ;  uncertainty k = 0.255448
        49        15        16        50     9        0.000000       -0.470075         3    ;  uncertainty k = 0.270053
        49        15        16        50     9      180.000000        0.106023         4    ;  uncertainty k = 0.117776
        50        16        17        51     9        0.000000       -0.016279         1    ;  uncertainty k = 0.090335
        50        16        17        51     9      180.000000        7.510681         2    ;  uncertainty k = 0.369437
        50        16        17        51     9        0.000000       -0.422665         3    ;  uncertainty k = 0.276612
        50        16        17        51     9      180.000000        0.041075         4    ;  uncertainty k = 0.155578
        51        17        18        52     9        0.000000       -0.016279         1    ;  uncertainty k = 0.090335
        51        17        18        52     9      180.000000        7.510681         2    ;  uncertainty k = 0.369437
        51        17        18        52     9        0.000000       -0.422665         3    ;  uncertainty k = 0.276612
        51        17        18        52     9      180.000000        0.041075         4    ;  uncertainty k = 0.155578
        52        18        19        53     9        0.000000       -0.038401         1    ;  uncertainty k = 0.034127
        52        18        19        53     9      180.000000        7.644155         2    ;  uncertainty k = 0.255448
        52        18        19        53     9        0.000000       -0.470075         3    ;  uncertainty k = 0.270053
        52        18        19        53     9      180.000000        0.106023         4    ;  uncertainty k = 0.117776

[ dihedrals ] ; impropers
;       ai        aj        ak        al funct           phase               k        pn
         2         1         3         4     4      180.000000       54.491792         2    ;  uncertainty k = 0.030847
         2         3         4         1     4      180.000000       54.491792         2    ;  uncertainty k = 0.030847
         2         4         1         3     4      180.000000       54.491792         2    ;  uncertainty k = 0.030847
        14        13        15        19     4      180.000000       12.872177         2    ;  uncertainty k = 0.122291
        14        15        19        13     4      180.000000       12.872177         2    ;  uncertainty k = 0.122291
        14        19        13        15     4      180.000000       12.872177         2    ;  uncertainty k = 0.122291
        15        14        16        49     4      180.000000        4.073199         2    ;  uncertainty k = 0.089533
        15        16        49        14     4      180.000000        4.073199         2    ;  uncertainty k = 0.089533
        15        49        14        16     4      180.000000        4.073199         2    ;  uncertainty k = 0.089533
        16        15        17        50     4      180.000000        4.075594         2    ;  uncertainty k = 0.076311
        16        17        50        15     4      180.000000        4.075594         2    ;  uncertainty k = 0.076311
        16        50        15        17     4      180.000000        4.075594         2    ;  uncertainty k = 0.076311
        17        16        18        51     4      180.000000        4.286747         2    ;  uncertainty k = 0.163794
        17        18        51        16     4      180.000000        4.286747         2    ;  uncertainty k = 0.163794
        17        51        16        18     4      180.000000        4.286747         2    ;  uncertainty k = 0.163794
        18        17        19        52     4      180.000000        4.075594         2    ;  uncertainty k = 0.076311
        18        19        52        17     4      180.000000        4.075594         2    ;  uncertainty k = 0.076311
        18        52        17        19     4      180.000000        4.075594         2    ;  uncertainty k = 0.076311
        19        14        18        53     4      180.000000        4.073199         2    ;  uncertainty k = 0.089533
        19        18        53        14     4      180.000000        4.073199         2    ;  uncertainty k = 0.089533
        19        53        14        18     4      180.000000        4.073199         2    ;  uncertainty k = 0.089533
        21        20        22        28     4      180.000000       18.238755         2    ;  uncertainty k = 0.120667
        21        22        28        20     4      180.000000       18.238755         2    ;  uncertainty k = 0.120667
        21        28        20        22     4      180.000000       18.238755         2    ;  uncertainty k = 0.120667
        22        21        23        24     4      180.000000       10.213185         2    ;  uncertainty k = 0.191744
        22        23        24        21     4      180.000000       10.213185         2    ;  uncertainty k = 0.191744
        22        24        21        23     4      180.000000       10.213185         2    ;  uncertainty k = 0.191744
        24        22        25        55     4      180.000000        2.235718         2    ;  uncertainty k = 0.158488
        24        25        55        22     4      180.000000        2.235718         2    ;  uncertainty k = 0.158488
        24        55        22        25     4      180.000000        2.235718         2    ;  uncertainty k = 0.158488
        25        24        26        27     4      180.000000       10.277731         2    ;  uncertainty k = 0.169849
        25        26        27        24     4      180.000000       10.277731         2    ;  uncertainty k = 0.169849
        25        27        24        26     4      180.000000       10.277731         2    ;  uncertainty k = 0.169849
        27        25        28        56     4      180.000000        3.635690         2    ;  uncertainty k = 0.237266
        27        28        56        25     4      180.000000        3.635690         2    ;  uncertainty k = 0.237266
        27        56        25        28     4      180.000000        3.635690         2    ;  uncertainty k = 0.237266
        28        21        27        29     4      180.000000       10.877052         2    ;  uncertainty k = 0.242185
        28        27        29        21     4      180.000000       10.877052         2    ;  uncertainty k = 0.242185
        28        29        21        27     4      180.000000       10.877052         2    ;  uncertainty k = 0.242185

[ pairs ]
;       ai        aj funct
         1         5     1
         1        34     1
         2         6     1
         2        35     1
         2        36     1
         3         5     1
         3        31     1
         3        32     1
         3        33     1
         3        34     1
         4         7     1
         4        31     1
         4        32     1
         4        33     1
         4        37     1
         4        38     1
         5         8     1
         5        39     1
         5        58     1
         6         9     1
         6        34     1
         6        40     1
         6        41     1
         7        10     1
         7        30     1
         7        35     1
         7        36     1
         7        42     1
         8        11     1
         8        29     1
         8        37     1
         8        38     1
         8        43     1
         8        44     1
         9        12     1
         9        28     1
         9        39     1
         9        45     1
         9        46     1
         9        57     1
         9        58     1
        10        13     1
        10        29     1
        10        40     1
        10        41     1
        10        47     1
        11        14     1
        11        20     1
        11        28     1
        11        30     1
        11        42     1
        11        48     1
        11        57     1
        12        15     1
        12        19     1
        12        21     1
        12        27     1
        12        43     1
        12        44     1
        12        54     1
        13        16     1
        13        18     1
        13        22     1
        13        28     1
        13        30     1
        13        45     1
        13        46     1
        13        49     1
        13        53     1
        13        57     1
        14        17     1
        14        21     1
        14        29     1
        14        47     1
        14        50     1
        14        52     1
        14        54     1
        15        18     1
        15        20     1
        15        48     1
        15        51     1
        15        53     1
        16        19     1
        16        52     1
        17        49     1
        17        53     1
        18        50     1
        19        20     1
        19        48     1
        19        49     1
        19        51     1
        20        23     1
        20        24     1
        20        27     1
        20        29     1
        20        47     1
        21        25     1
        21        30     1
        21        48     1
        21        55     1
        21        56     1
        21        57     1
        22        26     1
        22        27     1
        22        29     1
        22        54     1
        23        25     1
        23        28     1
        23        55     1
        24        28     1
        24        56     1
        25        29     1
        26        28     1
        26        55     1
        26        56     1
        27        30     1
        27        55     1
        27        57     1
        28        47     1
        28        54     1
        29        42     1
        29        45     1
        29        46     1
        29        48     1
        29        56     1
        30        40     1
        30        41     1
        30        43     1
        30        44     1
        30        47     1
        34        35     1
        34        36     1
        35        37     1
        35        38     1
        36        37     1
        36        38     1
        37        39     1
        37        58     1
        38        39     1
        38        58     1
        39        40     1
        39        41     1
        40        42     1
        40        58     1
        41        42     1
        41        58     1
        42        43     1
        42        44     1
        43        45     1
        43        46     1
        44        45     1
        44        46     1
        45        47     1
        46        47     1
        47        48     1
        47        57     1
        48        54     1
        49        50     1
        50        51     1
        51        52     1
        52        53     1
