; ITP file created by ByteFF-joint-25, 2026-02-17 09:16:56.145412

[ atomtypes ]
;name           bonded.type        at.num        mass        charge   ptype           sigma         epsilon
 c0bf                                   6      0.0000       0.00000       A     3.39768e-01     4.51334e-01    ;  uncertainty sigma = 0.000008, epsilon = 0.001067
 n1bf                                   7      0.0000       0.00000       A     2.67797e-01     7.09621e+00    ;  uncertainty sigma = 0.000075, epsilon = 0.008221
 c2bf                                   6      0.0000       0.00000       A     3.39787e-01     4.52439e-01    ;  uncertainty sigma = 0.000034, epsilon = 0.001397
 c3bf                                   6      0.0000       0.00000       A     3.39780e-01     4.51679e-01    ;  uncertainty sigma = 0.000029, epsilon = 0.001962
 c4bf                                   6      0.0000       0.00000       A     3.39767e-01     4.50486e-01    ;  uncertainty sigma = 0.000012, epsilon = 0.000632
 c5bf                                   6      0.0000       0.00000       A     3.39742e-01     4.51320e-01    ;  uncertainty sigma = 0.000014, epsilon = 0.001137
 c6bf                                   6      0.0000       0.00000       A     3.39755e-01     4.50973e-01    ;  uncertainty sigma = 0.000035, epsilon = 0.000615
 c7bf                                   6      0.0000       0.00000       A     3.39774e-01     4.51693e-01    ;  uncertainty sigma = 0.000009, epsilon = 0.001676
 c8bf                                   6      0.0000       0.00000       A     3.31532e-01     4.13295e-01    ;  uncertainty sigma = 0.000012, epsilon = 0.000849
 c9bf                                   6      0.0000       0.00000       A     3.31519e-01     4.13329e-01    ;  uncertainty sigma = 0.000002, epsilon = 0.000632
 c10bf                                  6      0.0000       0.00000       A     3.31520e-01     4.13328e-01    ;  uncertainty sigma = 0.000003, epsilon = 0.000582
 c11bf                                  6      0.0000       0.00000       A     3.31518e-01     4.13340e-01    ;  uncertainty sigma = 0.000003, epsilon = 0.000580
 c12bf                                  6      0.0000       0.00000       A     3.31520e-01     4.13328e-01    ;  uncertainty sigma = 0.000003, epsilon = 0.000582
 c13bf                                  6      0.0000       0.00000       A     3.31519e-01     4.13329e-01    ;  uncertainty sigma = 0.000002, epsilon = 0.000632
 n14bf                                  7      0.0000       0.00000       A     3.27909e-01     6.44316e-01    ;  uncertainty sigma = 0.000015, epsilon = 0.004120
 c15bf                                  6      0.0000       0.00000       A     3.31548e-01     4.13221e-01    ;  uncertainty sigma = 0.000016, epsilon = 0.001142
 c16bf                                  6      0.0000       0.00000       A     3.31520e-01     4.13574e-01    ;  uncertainty sigma = 0.000004, epsilon = 0.000453
 c17bf                                  6      0.0000       0.00000       A     3.31524e-01     4.13573e-01    ;  uncertainty sigma = 0.000007, epsilon = 0.000695
 c18bf                                  6      0.0000       0.00000       A     3.31532e-01     4.13402e-01    ;  uncertainty sigma = 0.000010, epsilon = 0.001004
 c19bf                                  6      0.0000       0.00000       A     3.39774e-01     4.51167e-01    ;  uncertainty sigma = 0.000015, epsilon = 0.000796
 c20bf                                  6      0.0000       0.00000       A     3.39771e-01     4.50897e-01    ;  uncertainty sigma = 0.000007, epsilon = 0.000479
 c21bf                                  6      0.0000       0.00000       A     3.39771e-01     4.50897e-01    ;  uncertainty sigma = 0.000007, epsilon = 0.000479
 c22bf                                  6      0.0000       0.00000       A     3.39771e-01     4.50897e-01    ;  uncertainty sigma = 0.000007, epsilon = 0.000479
 c23bf                                  6      0.0000       0.00000       A     3.31545e-01     4.13403e-01    ;  uncertainty sigma = 0.000008, epsilon = 0.000917
 c24bf                                  6      0.0000       0.00000       A     3.31541e-01     4.13423e-01    ;  uncertainty sigma = 0.000017, epsilon = 0.000586
 c25bf                                  6      0.0000       0.00000       A     3.39767e-01     4.51050e-01    ;  uncertainty sigma = 0.000019, epsilon = 0.001452
 o26bf                                  8      0.0000       0.00000       A     3.15622e-01     3.04459e-01    ;  uncertainty sigma = 0.000041, epsilon = 0.000889
 h27bf                                  1      0.0000       0.00000       A     1.88778e-01     8.64164e-02    ;  uncertainty sigma = 0.000038, epsilon = 0.000604
 h28bf                                  1      0.0000       0.00000       A     1.88778e-01     8.64164e-02    ;  uncertainty sigma = 0.000038, epsilon = 0.000604
 h29bf                                  1      0.0000       0.00000       A     1.88778e-01     8.64164e-02    ;  uncertainty sigma = 0.000038, epsilon = 0.000604
 h30bf                                  1      0.0000       0.00000       A     1.10712e-01     4.13743e-02    ;  uncertainty sigma = 0.000101, epsilon = 0.000413
 h31bf                                  1      0.0000       0.00000       A     1.88689e-01     8.72656e-02    ;  uncertainty sigma = 0.000114, epsilon = 0.000631
 h32bf                                  1      0.0000       0.00000       A     1.88689e-01     8.72656e-02    ;  uncertainty sigma = 0.000114, epsilon = 0.000631
 h33bf                                  1      0.0000       0.00000       A     2.42333e-01     8.61424e-02    ;  uncertainty sigma = 0.000111, epsilon = 0.001611
 h34bf                                  1      0.0000       0.00000       A     2.60030e-01     8.64970e-02    ;  uncertainty sigma = 0.000010, epsilon = 0.000714
 h35bf                                  1      0.0000       0.00000       A     2.60030e-01     8.64970e-02    ;  uncertainty sigma = 0.000010, epsilon = 0.000714
 h36bf                                  1      0.0000       0.00000       A     2.60028e-01     8.66832e-02    ;  uncertainty sigma = 0.000010, epsilon = 0.000720
 h37bf                                  1      0.0000       0.00000       A     2.60028e-01     8.66832e-02    ;  uncertainty sigma = 0.000010, epsilon = 0.000720
 h38bf                                  1      0.0000       0.00000       A     2.59938e-01     8.64076e-02    ;  uncertainty sigma = 0.000052, epsilon = 0.000980
 h39bf                                  1      0.0000       0.00000       A     2.42303e-01     8.69597e-02    ;  uncertainty sigma = 0.000074, epsilon = 0.001557
 h40bf                                  1      0.0000       0.00000       A     2.62560e-01     6.70316e-02    ;  uncertainty sigma = 0.000006, epsilon = 0.000529
 h41bf                                  1      0.0000       0.00000       A     2.62559e-01     6.70250e-02    ;  uncertainty sigma = 0.000010, epsilon = 0.000440
 h42bf                                  1      0.0000       0.00000       A     2.62552e-01     6.70645e-02    ;  uncertainty sigma = 0.000011, epsilon = 0.000453
 h43bf                                  1      0.0000       0.00000       A     2.62559e-01     6.70250e-02    ;  uncertainty sigma = 0.000010, epsilon = 0.000440
 h44bf                                  1      0.0000       0.00000       A     2.62560e-01     6.70316e-02    ;  uncertainty sigma = 0.000006, epsilon = 0.000529
 h45bf                                  1      0.0000       0.00000       A     1.10675e-01     4.07500e-02    ;  uncertainty sigma = 0.000109, epsilon = 0.000764
 h46bf                                  1      0.0000       0.00000       A     2.62577e-01     6.70680e-02    ;  uncertainty sigma = 0.000013, epsilon = 0.000535
 h47bf                                  1      0.0000       0.00000       A     2.62546e-01     6.71184e-02    ;  uncertainty sigma = 0.000010, epsilon = 0.000474
 h48bf                                  1      0.0000       0.00000       A     2.60023e-01     8.66595e-02    ;  uncertainty sigma = 0.000006, epsilon = 0.000286
 h49bf                                  1      0.0000       0.00000       A     2.60023e-01     8.66595e-02    ;  uncertainty sigma = 0.000006, epsilon = 0.000286
 h50bf                                  1      0.0000       0.00000       A     2.60023e-01     8.66595e-02    ;  uncertainty sigma = 0.000006, epsilon = 0.000286
 h51bf                                  1      0.0000       0.00000       A     2.60023e-01     8.66595e-02    ;  uncertainty sigma = 0.000006, epsilon = 0.000286
 h52bf                                  1      0.0000       0.00000       A     2.60023e-01     8.66595e-02    ;  uncertainty sigma = 0.000006, epsilon = 0.000286
 h53bf                                  1      0.0000       0.00000       A     2.60023e-01     8.66595e-02    ;  uncertainty sigma = 0.000006, epsilon = 0.000286
 h54bf                                  1      0.0000       0.00000       A     2.60023e-01     8.66595e-02    ;  uncertainty sigma = 0.000006, epsilon = 0.000286
 h55bf                                  1      0.0000       0.00000       A     2.60023e-01     8.66595e-02    ;  uncertainty sigma = 0.000006, epsilon = 0.000286
 h56bf                                  1      0.0000       0.00000       A     2.60023e-01     8.66595e-02    ;  uncertainty sigma = 0.000006, epsilon = 0.000286
 h57bf                                  1      0.0000       0.00000       A     2.62494e-01     6.70935e-02    ;  uncertainty sigma = 0.000026, epsilon = 0.000462
 h58bf                                  1      0.0000       0.00000       A     2.42239e-01     8.76589e-02    ;  uncertainty sigma = 0.000274, epsilon = 0.002166
 h59bf                                  1      0.0000       0.00000       A     1.10712e-01     4.13743e-02    ;  uncertainty sigma = 0.000101, epsilon = 0.000413

[ moleculetype ]
;name             nrexcl
 MOL                   3

[ atoms ]
;       nr            type      resi   res      atom      cgnr      charge          mass ; qtot
         1            c0bf         1   UNL        c0         1     0.11949       12.0110 ; qtot    0.119
         2            n1bf         1   UNL        n1         2    -0.78217       14.0070 ; qtot   -0.663
         3            c2bf         1   UNL        c2         3     0.12987       12.0110 ; qtot   -0.533
         4            c3bf         1   UNL        c3         4     0.12361       12.0110 ; qtot   -0.409
         5            c4bf         1   UNL        c4         5    -0.10286       12.0110 ; qtot   -0.512
         6            c5bf         1   UNL        c5         6    -0.06959       12.0110 ; qtot   -0.582
         7            c6bf         1   UNL        c6         7    -0.09508       12.0110 ; qtot   -0.677
         8            c7bf         1   UNL        c7         8     0.25867       12.0110 ; qtot   -0.418
         9            c8bf         1   UNL        c8         9    -0.10560       12.0110 ; qtot   -0.524
        10            c9bf         1   UNL        c9        10    -0.11888       12.0110 ; qtot   -0.643
        11           c10bf         1   UNL       c10        11    -0.13078       12.0110 ; qtot   -0.773
        12           c11bf         1   UNL       c11        12    -0.12452       12.0110 ; qtot   -0.898
        13           c12bf         1   UNL       c12        13    -0.13078       12.0110 ; qtot   -1.029
        14           c13bf         1   UNL       c13        14    -0.11888       12.0110 ; qtot   -1.148
        15           n14bf         1   UNL       n14        15    -0.73726       14.0070 ; qtot   -1.885
        16           c15bf         1   UNL       c15        16     0.15401       12.0110 ; qtot   -1.731
        17           c16bf         1   UNL       c16        17    -0.19001       12.0110 ; qtot   -1.921
        18           c17bf         1   UNL       c17        18    -0.08956       12.0110 ; qtot   -2.010
        19           c18bf         1   UNL       c18        19    -0.09788       12.0110 ; qtot   -2.108
        20           c19bf         1   UNL       c19        20    -0.00014       12.0110 ; qtot   -2.108
        21           c20bf         1   UNL       c20        21    -0.08520       12.0110 ; qtot   -2.194
        22           c21bf         1   UNL       c21        22    -0.08520       12.0110 ; qtot   -2.279
        23           c22bf         1   UNL       c22        23    -0.08520       12.0110 ; qtot   -2.364
        24           c23bf         1   UNL       c23        24    -0.07684       12.0110 ; qtot   -2.441
        25           c24bf         1   UNL       c24        25    -0.14589       12.0110 ; qtot   -2.587
        26           c25bf         1   UNL       c25        26     0.20360       12.0110 ; qtot   -2.383
        27           o26bf         1   UNL       o26        27    -0.42642       15.9990 ; qtot   -2.809
        28           h27bf         1   UNL       h27        28     0.10873        1.0080 ; qtot   -2.701
        29           h28bf         1   UNL       h28        29     0.10873        1.0080 ; qtot   -2.592
        30           h29bf         1   UNL       h29        30     0.10873        1.0080 ; qtot   -2.483
        31           h30bf         1   UNL       h30        31     0.46300        1.0080 ; qtot   -2.020
        32           h31bf         1   UNL       h31        32     0.11437        1.0080 ; qtot   -1.906
        33           h32bf         1   UNL       h32        33     0.11437        1.0080 ; qtot   -1.792
        34           h33bf         1   UNL       h33        34     0.08383        1.0080 ; qtot   -1.708
        35           h34bf         1   UNL       h34        35     0.07203        1.0080 ; qtot   -1.636
        36           h35bf         1   UNL       h35        36     0.07203        1.0080 ; qtot   -1.564
        37           h36bf         1   UNL       h36        37     0.05761        1.0080 ; qtot   -1.506
        38           h37bf         1   UNL       h37        38     0.05761        1.0080 ; qtot   -1.448
        39           h38bf         1   UNL       h38        39     0.06904        1.0080 ; qtot   -1.379
        40           h39bf         1   UNL       h39        40     0.05360        1.0080 ; qtot   -1.326
        41           h40bf         1   UNL       h40        41     0.13512        1.0080 ; qtot   -1.191
        42           h41bf         1   UNL       h41        42     0.13172        1.0080 ; qtot   -1.059
        43           h42bf         1   UNL       h42        43     0.13373        1.0080 ; qtot   -0.925
        44           h43bf         1   UNL       h43        44     0.13172        1.0080 ; qtot   -0.794
        45           h44bf         1   UNL       h44        45     0.13512        1.0080 ; qtot   -0.658
        46           h45bf         1   UNL       h45        46     0.40889        1.0080 ; qtot   -0.250
        47           h46bf         1   UNL       h46        47     0.13013        1.0080 ; qtot   -0.119
        48           h47bf         1   UNL       h47        48     0.13382        1.0080 ; qtot    0.014
        49           h48bf         1   UNL       h48        49     0.03604        1.0080 ; qtot    0.050
        50           h49bf         1   UNL       h49        50     0.03604        1.0080 ; qtot    0.087
        51           h50bf         1   UNL       h50        51     0.03604        1.0080 ; qtot    0.123
        52           h51bf         1   UNL       h51        52     0.03604        1.0080 ; qtot    0.159
        53           h52bf         1   UNL       h52        53     0.03604        1.0080 ; qtot    0.195
        54           h53bf         1   UNL       h53        54     0.03604        1.0080 ; qtot    0.231
        55           h54bf         1   UNL       h54        55     0.03604        1.0080 ; qtot    0.267
        56           h55bf         1   UNL       h55        56     0.03604        1.0080 ; qtot    0.303
        57           h56bf         1   UNL       h56        57     0.03604        1.0080 ; qtot    0.339
        58           h57bf         1   UNL       h57        58     0.13358        1.0080 ; qtot    0.472
        59           h58bf         1   UNL       h58        59     0.06470        1.0080 ; qtot    0.537
        60           h59bf         1   UNL       h59        60     0.46292        1.0080 ; qtot    1.000

[ bonds ]
;       ai        aj funct               r               k
         1         2     1        0.150483   206081.638037    ;  uncertainty r = 0.000127, k = 26.323707
         1        28     1        0.108971   315101.064648    ;  uncertainty r = 0.000019, k = 3.510020
         1        29     1        0.108971   315101.064648    ;  uncertainty r = 0.000019, k = 3.510020
         1        30     1        0.108971   315101.064648    ;  uncertainty r = 0.000019, k = 3.510020
         2         3     1        0.151116   193505.569312    ;  uncertainty r = 0.000091, k = 20.286602
         2        31     1        0.102983   385701.467969    ;  uncertainty r = 0.000064, k = 3.804169
         2        60     1        0.102983   385701.416895    ;  uncertainty r = 0.000064, k = 3.804183
         3         4     1        0.153088   198525.935181    ;  uncertainty r = 0.000227, k = 18.576038
         3        32     1        0.109071   316699.023730    ;  uncertainty r = 0.000066, k = 2.655839
         3        33     1        0.109071   316699.023730    ;  uncertainty r = 0.000066, k = 2.655839
         4         5     1        0.152867   204697.437329    ;  uncertainty r = 0.000152, k = 9.509181
         4        27     1        0.142399   237284.946777    ;  uncertainty r = 0.000162, k = 14.123982
         4        34     1        0.110046   305044.499902    ;  uncertainty r = 0.000072, k = 6.484756
         5         6     1        0.153416   212553.456592    ;  uncertainty r = 0.000104, k = 6.460390
         5        35     1        0.109581   309786.868799    ;  uncertainty r = 0.000017, k = 2.349016
         5        36     1        0.109581   309786.868799    ;  uncertainty r = 0.000017, k = 2.349016
         6         7     1        0.153228   204659.846704    ;  uncertainty r = 0.000107, k = 7.769012
         6        37     1        0.109545   307326.649219    ;  uncertainty r = 0.000013, k = 1.975637
         6        38     1        0.109545   307326.649219    ;  uncertainty r = 0.000013, k = 1.975637
         7         8     1        0.153739   194039.869482    ;  uncertainty r = 0.000049, k = 9.258939
         7        26     1        0.153198   193782.161743    ;  uncertainty r = 0.000151, k = 8.880232
         7        39     1        0.109712   307584.676172    ;  uncertainty r = 0.000061, k = 3.997496
         8         9     1        0.151697   221951.776807    ;  uncertainty r = 0.000088, k = 6.014261
         8        15     1        0.146438   246437.395703    ;  uncertainty r = 0.000120, k = 17.715154
         8        40     1        0.110060   298327.116504    ;  uncertainty r = 0.000134, k = 4.183467
         9        10     1        0.139859   350947.632764    ;  uncertainty r = 0.000040, k = 0.862455
         9        14     1        0.139859   350947.632764    ;  uncertainty r = 0.000040, k = 0.862455
        10        11     1        0.139620   365997.698340    ;  uncertainty r = 0.000023, k = 1.204469
        10        41     1        0.108883   334327.852148    ;  uncertainty r = 0.000023, k = 0.510247
        11        12     1        0.139607   371240.926563    ;  uncertainty r = 0.000016, k = 0.703150
        11        42     1        0.108851   333986.931738    ;  uncertainty r = 0.000010, k = 1.017328
        12        13     1        0.139607   371240.926563    ;  uncertainty r = 0.000016, k = 0.703150
        12        43     1        0.108841   334518.920801    ;  uncertainty r = 0.000012, k = 0.635620
        13        14     1        0.139620   365997.698340    ;  uncertainty r = 0.000023, k = 1.204462
        13        44     1        0.108851   333986.931738    ;  uncertainty r = 0.000010, k = 1.017333
        14        45     1        0.108883   334327.801074    ;  uncertainty r = 0.000023, k = 0.510233
        15        16     1        0.139955   343991.477393    ;  uncertainty r = 0.000126, k = 9.082280
        15        46     1        0.101439   412844.299707    ;  uncertainty r = 0.000047, k = 2.472846
        16        17     1        0.140556   370764.378564    ;  uncertainty r = 0.000088, k = 8.886547
        16        25     1        0.140569   348542.726562    ;  uncertainty r = 0.000154, k = 24.557442
        17        18     1        0.139237   369140.269482    ;  uncertainty r = 0.000080, k = 6.065482
        17        47     1        0.108972   336335.579688    ;  uncertainty r = 0.000020, k = 1.961547
        18        19     1        0.139993   342791.488623    ;  uncertainty r = 0.000055, k = 3.149912
        18        48     1        0.108722   334842.297217    ;  uncertainty r = 0.000029, k = 1.142359
        19        20     1        0.151796   210318.767993    ;  uncertainty r = 0.000061, k = 4.451875
        19        24     1        0.139700   338297.646875    ;  uncertainty r = 0.000123, k = 7.301087
        20        21     1        0.153655   198668.802539    ;  uncertainty r = 0.000045, k = 2.713764
        20        22     1        0.153655   198668.802539    ;  uncertainty r = 0.000045, k = 2.713764
        20        23     1        0.153655   198668.777002    ;  uncertainty r = 0.000045, k = 2.713759
        21        49     1        0.109659   308676.642969    ;  uncertainty r = 0.000022, k = 1.372185
        21        50     1        0.109659   308676.642969    ;  uncertainty r = 0.000022, k = 1.372185
        21        51     1        0.109659   308676.642969    ;  uncertainty r = 0.000022, k = 1.372185
        22        52     1        0.109659   308676.642969    ;  uncertainty r = 0.000022, k = 1.372185
        22        53     1        0.109659   308676.642969    ;  uncertainty r = 0.000022, k = 1.372185
        22        54     1        0.109659   308676.642969    ;  uncertainty r = 0.000022, k = 1.372185
        23        55     1        0.109659   308676.642969    ;  uncertainty r = 0.000022, k = 1.372185
        23        56     1        0.109659   308676.642969    ;  uncertainty r = 0.000022, k = 1.372185
        23        57     1        0.109659   308676.642969    ;  uncertainty r = 0.000022, k = 1.372185
        24        25     1        0.139488   352171.932861    ;  uncertainty r = 0.000086, k = 3.608724
        24        58     1        0.108815   334998.328955    ;  uncertainty r = 0.000071, k = 3.653137
        25        26     1        0.150744   221578.603027    ;  uncertainty r = 0.000127, k = 13.267992
        26        27     1        0.144706   219071.548389    ;  uncertainty r = 0.000485, k = 6.744782
        26        59     1        0.110015   305474.493750    ;  uncertainty r = 0.000069, k = 4.468988

[ angles ]
;       ai        aj        ak funct           theta             cth
         1         2         3     1      114.120590      627.009199    ;  uncertainty theta = 0.004769, k = 0.177844
         1         2        31     1      108.045982      455.367615    ;  uncertainty theta = 0.003064, k = 0.184078
         1         2        60     1      108.045982      455.367615    ;  uncertainty theta = 0.003064, k = 0.184078
         2         1        28     1      107.931419      474.361064    ;  uncertainty theta = 0.002343, k = 0.076147
         2         1        29     1      107.931419      474.361064    ;  uncertainty theta = 0.002343, k = 0.076147
         2         1        30     1      107.931419      474.361064    ;  uncertainty theta = 0.002343, k = 0.076147
         2         3         4     1      109.598450      697.693364    ;  uncertainty theta = 0.004814, k = 0.255220
         2         3        32     1      106.173927      463.691021    ;  uncertainty theta = 0.004234, k = 0.056842
         2         3        33     1      106.173927      463.691021    ;  uncertainty theta = 0.004234, k = 0.056842
         3         2        31     1      108.767532      433.355904    ;  uncertainty theta = 0.002716, k = 0.090610
         3         2        60     1      108.767532      433.355968    ;  uncertainty theta = 0.002716, k = 0.090610
         3         4         5     1      111.614769      560.640997    ;  uncertainty theta = 0.007674, k = 0.188529
         3         4        27     1      105.573441      576.645614    ;  uncertainty theta = 0.004356, k = 0.105581
         3         4        34     1      108.340309      391.475523    ;  uncertainty theta = 0.003241, k = 0.118548
         4         3        32     1      110.351929      396.491490    ;  uncertainty theta = 0.002550, k = 0.130995
         4         3        33     1      110.351929      396.491490    ;  uncertainty theta = 0.002550, k = 0.130995
         4         5         6     1      108.895370      585.539551    ;  uncertainty theta = 0.003340, k = 0.194982
         4         5        35     1      107.555092      391.789726    ;  uncertainty theta = 0.001626, k = 0.061237
         4         5        36     1      107.555092      391.789726    ;  uncertainty theta = 0.001626, k = 0.061237
         4        27        26     1      110.493088      514.162213    ;  uncertainty theta = 0.009433, k = 0.134862
         5         4        27     1      111.184608      678.864534    ;  uncertainty theta = 0.004632, k = 0.105968
         5         4        34     1      109.805496      407.525437    ;  uncertainty theta = 0.003064, k = 0.039288
         5         6         7     1      109.833923      574.050916    ;  uncertainty theta = 0.003440, k = 0.116783
         5         6        37     1      108.479469      406.340866    ;  uncertainty theta = 0.002257, k = 0.104005
         5         6        38     1      108.479469      406.340866    ;  uncertainty theta = 0.002257, k = 0.104005
         6         5        35     1      109.112206      400.373163    ;  uncertainty theta = 0.000987, k = 0.042731
         6         5        36     1      109.112206      400.373163    ;  uncertainty theta = 0.000987, k = 0.042731
         6         7         8     1      110.557518      550.414534    ;  uncertainty theta = 0.001258, k = 0.165602
         6         7        26     1      109.601540      585.075414    ;  uncertainty theta = 0.002027, k = 0.137957
         6         7        39     1      107.962418      399.558210    ;  uncertainty theta = 0.002830, k = 0.103744
         7         6        37     1      108.184448      389.052562    ;  uncertainty theta = 0.001625, k = 0.073415
         7         6        38     1      108.184448      389.052562    ;  uncertainty theta = 0.001625, k = 0.073415
         7         8         9     1      111.667801      538.117458    ;  uncertainty theta = 0.002515, k = 0.172335
         7         8        15     1      108.357506      705.618040    ;  uncertainty theta = 0.004557, k = 0.110169
         7         8        40     1      107.075500      386.196269    ;  uncertainty theta = 0.002778, k = 0.128014
         7        26        25     1      111.812073      558.273452    ;  uncertainty theta = 0.003962, k = 0.211186
         7        26        27     1      110.734375      664.423809    ;  uncertainty theta = 0.005412, k = 0.063943
         7        26        59     1      108.154518      394.132500    ;  uncertainty theta = 0.003973, k = 0.122859
         8         7        26     1      109.341347      553.779495    ;  uncertainty theta = 0.004719, k = 0.138692
         8         7        39     1      105.964149      389.824836    ;  uncertainty theta = 0.001608, k = 0.093762
         8         9        10     1      119.922928      425.651326    ;  uncertainty theta = 0.003113, k = 0.143043
         8         9        14     1      119.922928      425.651326    ;  uncertainty theta = 0.003113, k = 0.143043
         8        15        16     1      114.218887      391.657507    ;  uncertainty theta = 0.007311, k = 0.149022
         8        15        46     1      110.064499      352.462577    ;  uncertainty theta = 0.003551, k = 0.095281
         9         8        15     1      111.031082      663.623157    ;  uncertainty theta = 0.001203, k = 0.168660
         9         8        40     1      106.340919      410.762138    ;  uncertainty theta = 0.002105, k = 0.098132
         9        10        11     1      121.166641      520.322945    ;  uncertainty theta = 0.001889, k = 0.047519
         9        10        41     1      118.895851      266.730032    ;  uncertainty theta = 0.002264, k = 0.064094
         9        14        13     1      121.166641      520.322945    ;  uncertainty theta = 0.001889, k = 0.047519
         9        14        45     1      118.895851      266.730032    ;  uncertainty theta = 0.002264, k = 0.064094
        10         9        14     1      120.206970      460.017476    ;  uncertainty theta = 0.003029, k = 0.098153
        10        11        12     1      119.685776      513.267201    ;  uncertainty theta = 0.000971, k = 0.012607
        10        11        42     1      120.211227      283.897609    ;  uncertainty theta = 0.001315, k = 0.018226
        11        10        41     1      120.235497      292.477216    ;  uncertainty theta = 0.001696, k = 0.031107
        11        12        13     1      118.246803      526.555213    ;  uncertainty theta = 0.000903, k = 0.024014
        11        12        43     1      120.647278      289.320829    ;  uncertainty theta = 0.001403, k = 0.006566
        12        11        42     1      120.620949      287.638700    ;  uncertainty theta = 0.001444, k = 0.012507
        12        13        14     1      119.685776      513.267201    ;  uncertainty theta = 0.000971, k = 0.012607
        12        13        44     1      120.620949      287.638700    ;  uncertainty theta = 0.001444, k = 0.012507
        13        12        43     1      120.647278      289.320829    ;  uncertainty theta = 0.001403, k = 0.006566
        13        14        45     1      120.235497      292.477216    ;  uncertainty theta = 0.001696, k = 0.031107
        14        13        44     1      120.211227      283.897577    ;  uncertainty theta = 0.001315, k = 0.018227
        15         8        40     1      107.894577      455.839254    ;  uncertainty theta = 0.003753, k = 0.115430
        15        16        17     1      123.195900      579.546566    ;  uncertainty theta = 0.003901, k = 0.120660
        15        16        25     1      122.183632      502.043897    ;  uncertainty theta = 0.009956, k = 0.232537
        16        15        46     1      111.105759      386.782760    ;  uncertainty theta = 0.005516, k = 0.186771
        16        17        18     1      120.532898      517.885587    ;  uncertainty theta = 0.002391, k = 0.088136
        16        17        47     1      119.057823      279.340288    ;  uncertainty theta = 0.004521, k = 0.179263
        16        25        24     1      120.545067      452.259206    ;  uncertainty theta = 0.006623, k = 0.113832
        16        25        26     1      119.853470      353.601213    ;  uncertainty theta = 0.009713, k = 0.499055
        17        16        25     1      118.531960      383.718116    ;  uncertainty theta = 0.004614, k = 0.149296
        17        18        19     1      122.393967      522.473616    ;  uncertainty theta = 0.002616, k = 0.107910
        17        18        48     1      119.129318      294.022594    ;  uncertainty theta = 0.002554, k = 0.038659
        18        17        47     1      121.047104      286.721471    ;  uncertainty theta = 0.002259, k = 0.093934
        18        19        20     1      120.109047      398.552559    ;  uncertainty theta = 0.004264, k = 0.135852
        18        19        24     1      119.761192      460.192150    ;  uncertainty theta = 0.003180, k = 0.102433
        19        18        48     1      118.233643      267.978062    ;  uncertainty theta = 0.002193, k = 0.135442
        19        20        21     1      108.206238      553.041217    ;  uncertainty theta = 0.002231, k = 0.088893
        19        20        22     1      108.206238      553.041217    ;  uncertainty theta = 0.002231, k = 0.088893
        19        20        23     1      108.206238      553.041217    ;  uncertainty theta = 0.002231, k = 0.088893
        19        24        25     1      124.342102      515.754962    ;  uncertainty theta = 0.003602, k = 0.158074
        19        24        58     1      117.703430      270.876014    ;  uncertainty theta = 0.002530, k = 0.122470
        20        19        24     1      119.806641      384.076401    ;  uncertainty theta = 0.004197, k = 0.110948
        20        21        49     1      107.702896      383.895439    ;  uncertainty theta = 0.000831, k = 0.040751
        20        21        50     1      107.702896      383.895439    ;  uncertainty theta = 0.000831, k = 0.040751
        20        21        51     1      107.702896      383.895439    ;  uncertainty theta = 0.000831, k = 0.040751
        20        22        52     1      107.702896      383.895439    ;  uncertainty theta = 0.000831, k = 0.040751
        20        22        53     1      107.702896      383.895439    ;  uncertainty theta = 0.000831, k = 0.040751
        20        22        54     1      107.702896      383.895439    ;  uncertainty theta = 0.000831, k = 0.040751
        20        23        55     1      107.702896      383.895439    ;  uncertainty theta = 0.000831, k = 0.040751
        20        23        56     1      107.702896      383.895439    ;  uncertainty theta = 0.000831, k = 0.040751
        20        23        57     1      107.702896      383.895375    ;  uncertainty theta = 0.000831, k = 0.040751
        21        20        22     1      108.458336      575.992949    ;  uncertainty theta = 0.002954, k = 0.058060
        21        20        23     1      108.458336      575.992949    ;  uncertainty theta = 0.002954, k = 0.058060
        22        20        23     1      108.458336      575.992949    ;  uncertainty theta = 0.002954, k = 0.058060
        24        25        26     1      119.134094      397.508761    ;  uncertainty theta = 0.004447, k = 0.075351
        25        24        58     1      117.366898      276.869988    ;  uncertainty theta = 0.005098, k = 0.120746
        25        26        27     1      108.861107      634.665161    ;  uncertainty theta = 0.007309, k = 0.308484
        25        26        59     1      108.865860      391.212842    ;  uncertainty theta = 0.004744, k = 0.087182
        26         7        39     1      106.277695      398.846618    ;  uncertainty theta = 0.003820, k = 0.096584
        27         4        34     1      107.426926      460.516727    ;  uncertainty theta = 0.001967, k = 0.139024
        27        26        59     1      105.729103      446.063393    ;  uncertainty theta = 0.004446, k = 0.100957
        28         1        29     1      108.721092      320.814597    ;  uncertainty theta = 0.003586, k = 0.093752
        28         1        30     1      108.721092      320.814597    ;  uncertainty theta = 0.003586, k = 0.093752
        29         1        30     1      108.721092      320.814629    ;  uncertainty theta = 0.003586, k = 0.093752
        31         2        60     1      107.282349      386.616226    ;  uncertainty theta = 0.003315, k = 0.113073
        32         3        33     1      108.328140      321.052220    ;  uncertainty theta = 0.003491, k = 0.028257
        35         5        36     1      105.294052      315.680074    ;  uncertainty theta = 0.003522, k = 0.050334
        37         6        38     1      104.613731      315.378193    ;  uncertainty theta = 0.002142, k = 0.035841
        49        21        50     1      105.347046      318.192319    ;  uncertainty theta = 0.000899, k = 0.012007
        49        21        51     1      105.347046      318.192319    ;  uncertainty theta = 0.000899, k = 0.012007
        50        21        51     1      105.347046      318.192319    ;  uncertainty theta = 0.000899, k = 0.012007
        52        22        53     1      105.347046      318.192319    ;  uncertainty theta = 0.000899, k = 0.012007
        52        22        54     1      105.347046      318.192319    ;  uncertainty theta = 0.000899, k = 0.012007
        53        22        54     1      105.347046      318.192319    ;  uncertainty theta = 0.000899, k = 0.012007
        55        23        56     1      105.347046      318.192319    ;  uncertainty theta = 0.000899, k = 0.012007
        55        23        57     1      105.347046      318.192319    ;  uncertainty theta = 0.000899, k = 0.012007
        56        23        57     1      105.347046      318.192287    ;  uncertainty theta = 0.000899, k = 0.012007

[ dihedrals ] ; propers for gromacs 4.5 or higher, use funct 9
;       ai        aj        ak        al funct           phase               k        pn
         1         2         3         4     9        0.000000        0.006307         1    ;  uncertainty k = 0.613229
         1         2         3         4     9      180.000000       -0.114237         2    ;  uncertainty k = 0.415972
         1         2         3         4     9        0.000000        1.040043         3    ;  uncertainty k = 0.119339
         1         2         3         4     9      180.000000       -0.032395         4    ;  uncertainty k = 0.060764
         1         2         3        32     9        0.000000       -0.681364         1    ;  uncertainty k = 0.600000
         1         2         3        32     9      180.000000       -0.166488         2    ;  uncertainty k = 0.352829
         1         2         3        32     9        0.000000        1.116541         3    ;  uncertainty k = 0.125614
         1         2         3        32     9      180.000000       -0.031562         4    ;  uncertainty k = 0.158992
         1         2         3        33     9        0.000000       -0.681364         1    ;  uncertainty k = 0.600000
         1         2         3        33     9      180.000000       -0.166488         2    ;  uncertainty k = 0.352829
         1         2         3        33     9        0.000000        1.116541         3    ;  uncertainty k = 0.125614
         1         2         3        33     9      180.000000       -0.031562         4    ;  uncertainty k = 0.158992
         2         3         4         5     9        0.000000       -0.192842         1    ;  uncertainty k = 1.826378
         2         3         4         5     9      180.000000       -0.466817         2    ;  uncertainty k = 0.525044
         2         3         4         5     9        0.000000        1.279870         3    ;  uncertainty k = 0.178848
         2         3         4         5     9      180.000000       -0.249067         4    ;  uncertainty k = 0.245717
         2         3         4        27     9        0.000000        2.349267         1    ;  uncertainty k = 1.437200
         2         3         4        27     9      180.000000       -3.528202         2    ;  uncertainty k = 0.748986
         2         3         4        27     9        0.000000        1.531945         3    ;  uncertainty k = 0.566496
         2         3         4        27     9      180.000000       -0.376382         4    ;  uncertainty k = 0.239672
         2         3         4        34     9        0.000000       -1.869553         1    ;  uncertainty k = 1.010165
         2         3         4        34     9      180.000000       -3.171111         2    ;  uncertainty k = 0.668409
         2         3         4        34     9        0.000000        0.860126         3    ;  uncertainty k = 0.296104
         2         3         4        34     9      180.000000       -0.078855         4    ;  uncertainty k = 0.120480
         3         2         1        28     9        0.000000       -0.505376         1    ;  uncertainty k = 0.211290
         3         2         1        28     9      180.000000       -0.945609         2    ;  uncertainty k = 0.623549
         3         2         1        28     9        0.000000        1.326997         3    ;  uncertainty k = 0.071761
         3         2         1        28     9      180.000000        0.033430         4    ;  uncertainty k = 0.103499
         3         2         1        29     9        0.000000       -0.505376         1    ;  uncertainty k = 0.211290
         3         2         1        29     9      180.000000       -0.945609         2    ;  uncertainty k = 0.623549
         3         2         1        29     9        0.000000        1.326997         3    ;  uncertainty k = 0.071761
         3         2         1        29     9      180.000000        0.033430         4    ;  uncertainty k = 0.103499
         3         2         1        30     9        0.000000       -0.505376         1    ;  uncertainty k = 0.211290
         3         2         1        30     9      180.000000       -0.945609         2    ;  uncertainty k = 0.623549
         3         2         1        30     9        0.000000        1.326997         3    ;  uncertainty k = 0.071761
         3         2         1        30     9      180.000000        0.033430         4    ;  uncertainty k = 0.103499
         3         4         5         6     9        0.000000       -2.847939         1    ;  uncertainty k = 0.794688
         3         4         5         6     9      180.000000        0.088279         2    ;  uncertainty k = 0.395161
         3         4         5         6     9        0.000000        0.738844         3    ;  uncertainty k = 0.150315
         3         4         5         6     9      180.000000       -0.462124         4    ;  uncertainty k = 0.103024
         3         4         5        35     9        0.000000       -1.119444         1    ;  uncertainty k = 0.957409
         3         4         5        35     9      180.000000       -0.715773         2    ;  uncertainty k = 0.299910
         3         4         5        35     9        0.000000        0.391575         3    ;  uncertainty k = 0.152965
         3         4         5        35     9      180.000000       -0.297820         4    ;  uncertainty k = 0.139712
         3         4         5        36     9        0.000000       -1.119444         1    ;  uncertainty k = 0.957409
         3         4         5        36     9      180.000000       -0.715773         2    ;  uncertainty k = 0.299910
         3         4         5        36     9        0.000000        0.391575         3    ;  uncertainty k = 0.152965
         3         4         5        36     9      180.000000       -0.297820         4    ;  uncertainty k = 0.139712
         3         4        27        26     9        0.000000       -5.461404         1    ;  uncertainty k = 1.424578
         3         4        27        26     9      180.000000       -0.847998         2    ;  uncertainty k = 0.790757
         3         4        27        26     9        0.000000        0.659831         3    ;  uncertainty k = 0.340319
         3         4        27        26     9      180.000000       -0.107724         4    ;  uncertainty k = 0.170327
         4         3         2        31     9        0.000000        1.040456         1    ;  uncertainty k = 0.462708
         4         3         2        31     9      180.000000       -0.379617         2    ;  uncertainty k = 0.417857
         4         3         2        31     9        0.000000        0.621486         3    ;  uncertainty k = 0.115494
         4         3         2        31     9      180.000000       -0.147759         4    ;  uncertainty k = 0.112672
         4         3         2        60     9        0.000000        1.040455         1    ;  uncertainty k = 0.462707
         4         3         2        60     9      180.000000       -0.379615         2    ;  uncertainty k = 0.417857
         4         3         2        60     9        0.000000        0.621486         3    ;  uncertainty k = 0.115494
         4         3         2        60     9      180.000000       -0.147759         4    ;  uncertainty k = 0.112672
         4         5         6         7     9        0.000000       -4.316529         1    ;  uncertainty k = 0.772558
         4         5         6         7     9      180.000000       -0.591049         2    ;  uncertainty k = 0.852513
         4         5         6         7     9        0.000000        1.208239         3    ;  uncertainty k = 0.260495
         4         5         6         7     9      180.000000       -0.789506         4    ;  uncertainty k = 0.127773
         4         5         6        37     9        0.000000       -0.919158         1    ;  uncertainty k = 0.463309
         4         5         6        37     9      180.000000       -0.761609         2    ;  uncertainty k = 0.256263
         4         5         6        37     9        0.000000        0.441824         3    ;  uncertainty k = 0.160725
         4         5         6        37     9      180.000000        0.025063         4    ;  uncertainty k = 0.050537
         4         5         6        38     9        0.000000       -0.919158         1    ;  uncertainty k = 0.463309
         4         5         6        38     9      180.000000       -0.761609         2    ;  uncertainty k = 0.256263
         4         5         6        38     9        0.000000        0.441824         3    ;  uncertainty k = 0.160725
         4         5         6        38     9      180.000000        0.025063         4    ;  uncertainty k = 0.050537
         4        27        26         7     9        0.000000        4.031565         1    ;  uncertainty k = 1.684749
         4        27        26         7     9      180.000000       -1.615058         2    ;  uncertainty k = 1.248262
         4        27        26         7     9        0.000000        0.136705         3    ;  uncertainty k = 0.199525
         4        27        26         7     9      180.000000        0.092441         4    ;  uncertainty k = 0.205000
         4        27        26        25     9        0.000000       -1.680931         1    ;  uncertainty k = 1.436504
         4        27        26        25     9      180.000000       -1.054491         2    ;  uncertainty k = 0.857980
         4        27        26        25     9        0.000000        0.965158         3    ;  uncertainty k = 0.482503
         4        27        26        25     9      180.000000       -0.022362         4    ;  uncertainty k = 0.139303
         4        27        26        59     9        0.000000       -2.302758         1    ;  uncertainty k = 0.719230
         4        27        26        59     9      180.000000       -0.840807         2    ;  uncertainty k = 0.621256
         4        27        26        59     9        0.000000        0.464324         3    ;  uncertainty k = 0.132691
         4        27        26        59     9      180.000000       -0.107483         4    ;  uncertainty k = 0.127358
         5         4         3        32     9        0.000000       -1.215280         1    ;  uncertainty k = 0.723438
         5         4         3        32     9      180.000000        0.107645         2    ;  uncertainty k = 0.263703
         5         4         3        32     9        0.000000        0.508795         3    ;  uncertainty k = 0.156143
         5         4         3        32     9      180.000000       -0.151933         4    ;  uncertainty k = 0.073562
         5         4         3        33     9        0.000000       -1.215280         1    ;  uncertainty k = 0.723438
         5         4         3        33     9      180.000000        0.107645         2    ;  uncertainty k = 0.263703
         5         4         3        33     9        0.000000        0.508795         3    ;  uncertainty k = 0.156143
         5         4         3        33     9      180.000000       -0.151933         4    ;  uncertainty k = 0.073562
         5         4        27        26     9        0.000000        1.415329         1    ;  uncertainty k = 3.066465
         5         4        27        26     9      180.000000       -1.573195         2    ;  uncertainty k = 0.291931
         5         4        27        26     9        0.000000        0.099334         3    ;  uncertainty k = 0.464950
         5         4        27        26     9      180.000000        0.004163         4    ;  uncertainty k = 0.240722
         5         6         7         8     9        0.000000       -3.376143         1    ;  uncertainty k = 0.762400
         5         6         7         8     9      180.000000        0.084024         2    ;  uncertainty k = 0.310984
         5         6         7         8     9        0.000000        1.116779         3    ;  uncertainty k = 0.196203
         5         6         7         8     9      180.000000       -0.477285         4    ;  uncertainty k = 0.207402
         5         6         7        26     9        0.000000       -3.153991         1    ;  uncertainty k = 0.482817
         5         6         7        26     9      180.000000        0.200130         2    ;  uncertainty k = 0.518245
         5         6         7        26     9        0.000000        1.022614         3    ;  uncertainty k = 0.225815
         5         6         7        26     9      180.000000       -0.724183         4    ;  uncertainty k = 0.097190
         5         6         7        39     9        0.000000       -2.352550         1    ;  uncertainty k = 0.594149
         5         6         7        39     9      180.000000        0.210550         2    ;  uncertainty k = 0.333283
         5         6         7        39     9        0.000000        0.038572         3    ;  uncertainty k = 0.071262
         5         6         7        39     9      180.000000       -0.090296         4    ;  uncertainty k = 0.093046
         6         5         4        27     9        0.000000       -2.543186         1    ;  uncertainty k = 0.753223
         6         5         4        27     9      180.000000       -0.388858         2    ;  uncertainty k = 0.844209
         6         5         4        27     9        0.000000        1.403659         3    ;  uncertainty k = 0.414972
         6         5         4        27     9      180.000000       -0.411455         4    ;  uncertainty k = 0.367577
         6         5         4        34     9        0.000000       -0.220960         1    ;  uncertainty k = 0.645956
         6         5         4        34     9      180.000000       -1.249832         2    ;  uncertainty k = 0.419999
         6         5         4        34     9        0.000000       -0.139485         3    ;  uncertainty k = 0.171593
         6         5         4        34     9      180.000000        0.104141         4    ;  uncertainty k = 0.142921
         6         7         8         9     9        0.000000       -0.448524         1    ;  uncertainty k = 0.373959
         6         7         8         9     9      180.000000        0.078965         2    ;  uncertainty k = 0.219828
         6         7         8         9     9        0.000000        1.017033         3    ;  uncertainty k = 0.135263
         6         7         8         9     9      180.000000       -0.031156         4    ;  uncertainty k = 0.095492
         6         7         8        15     9        0.000000       -2.521251         1    ;  uncertainty k = 0.310382
         6         7         8        15     9      180.000000        0.581435         2    ;  uncertainty k = 0.370009
         6         7         8        15     9        0.000000        1.132014         3    ;  uncertainty k = 0.203508
         6         7         8        15     9      180.000000       -0.327810         4    ;  uncertainty k = 0.275563
         6         7         8        40     9        0.000000       -0.348509         1    ;  uncertainty k = 0.361728
         6         7         8        40     9      180.000000       -0.372313         2    ;  uncertainty k = 0.197672
         6         7         8        40     9        0.000000        0.079785         3    ;  uncertainty k = 0.166433
         6         7         8        40     9      180.000000       -0.109269         4    ;  uncertainty k = 0.079245
         6         7        26        25     9        0.000000       -1.727816         1    ;  uncertainty k = 1.016443
         6         7        26        25     9      180.000000       -0.561893         2    ;  uncertainty k = 0.207163
         6         7        26        25     9        0.000000        0.630939         3    ;  uncertainty k = 0.170856
         6         7        26        25     9      180.000000       -0.198331         4    ;  uncertainty k = 0.130649
         6         7        26        27     9        0.000000       -1.348878         1    ;  uncertainty k = 0.812146
         6         7        26        27     9      180.000000       -1.601776         2    ;  uncertainty k = 0.856749
         6         7        26        27     9        0.000000        0.986870         3    ;  uncertainty k = 0.341151
         6         7        26        27     9      180.000000       -0.087740         4    ;  uncertainty k = 0.275157
         6         7        26        59     9        0.000000        0.251176         1    ;  uncertainty k = 0.545464
         6         7        26        59     9      180.000000       -0.467027         2    ;  uncertainty k = 0.415052
         6         7        26        59     9        0.000000       -0.184772         3    ;  uncertainty k = 0.149121
         6         7        26        59     9      180.000000       -0.045834         4    ;  uncertainty k = 0.130769
         7         6         5        35     9        0.000000       -0.843110         1    ;  uncertainty k = 0.414564
         7         6         5        35     9      180.000000       -0.523802         2    ;  uncertainty k = 0.298175
         7         6         5        35     9        0.000000        0.489652         3    ;  uncertainty k = 0.086635
         7         6         5        35     9      180.000000       -0.059656         4    ;  uncertainty k = 0.079811
         7         6         5        36     9        0.000000       -0.843110         1    ;  uncertainty k = 0.414564
         7         6         5        36     9      180.000000       -0.523802         2    ;  uncertainty k = 0.298175
         7         6         5        36     9        0.000000        0.489652         3    ;  uncertainty k = 0.086635
         7         6         5        36     9      180.000000       -0.059656         4    ;  uncertainty k = 0.079811
         7         8         9        10     9        0.000000       -0.128230         1    ;  uncertainty k = 0.712210
         7         8         9        10     9      180.000000        1.832448         2    ;  uncertainty k = 0.216282
         7         8         9        10     9        0.000000        0.279323         3    ;  uncertainty k = 0.140015
         7         8         9        10     9      180.000000        0.244071         4    ;  uncertainty k = 0.076873
         7         8         9        14     9        0.000000       -0.128230         1    ;  uncertainty k = 0.712210
         7         8         9        14     9      180.000000        1.832448         2    ;  uncertainty k = 0.216282
         7         8         9        14     9        0.000000        0.279323         3    ;  uncertainty k = 0.140015
         7         8         9        14     9      180.000000        0.244071         4    ;  uncertainty k = 0.076873
         7         8        15        16     9        0.000000        0.719689         1    ;  uncertainty k = 1.244020
         7         8        15        16     9      180.000000        0.209000         2    ;  uncertainty k = 0.601735
         7         8        15        16     9        0.000000        0.378517         3    ;  uncertainty k = 0.264052
         7         8        15        16     9      180.000000        0.142878         4    ;  uncertainty k = 0.153977
         7         8        15        46     9        0.000000        3.620496         1    ;  uncertainty k = 0.960159
         7         8        15        46     9      180.000000       -1.866275         2    ;  uncertainty k = 1.297277
         7         8        15        46     9        0.000000        0.466328         3    ;  uncertainty k = 0.292683
         7         8        15        46     9      180.000000       -0.015211         4    ;  uncertainty k = 0.082184
         7        26        25        16     9        0.000000        0.553349         1    ;  uncertainty k = 3.131720
         7        26        25        16     9      180.000000       -0.128457         2    ;  uncertainty k = 1.471445
         7        26        25        16     9        0.000000        0.020336         3    ;  uncertainty k = 0.787092
         7        26        25        16     9      180.000000        0.685274         4    ;  uncertainty k = 0.217056
         7        26        25        24     9        0.000000       -1.708642         1    ;  uncertainty k = 0.711983
         7        26        25        24     9      180.000000        0.120651         2    ;  uncertainty k = 0.482584
         7        26        25        24     9        0.000000       -0.158122         3    ;  uncertainty k = 0.199198
         7        26        25        24     9      180.000000        0.396447         4    ;  uncertainty k = 0.178250
         8         7         6        37     9        0.000000        0.110494         1    ;  uncertainty k = 0.320429
         8         7         6        37     9      180.000000       -0.593762         2    ;  uncertainty k = 0.234653
         8         7         6        37     9        0.000000        0.479646         3    ;  uncertainty k = 0.096254
         8         7         6        37     9      180.000000       -0.047564         4    ;  uncertainty k = 0.093309
         8         7         6        38     9        0.000000        0.110494         1    ;  uncertainty k = 0.320429
         8         7         6        38     9      180.000000       -0.593762         2    ;  uncertainty k = 0.234653
         8         7         6        38     9        0.000000        0.479646         3    ;  uncertainty k = 0.096254
         8         7         6        38     9      180.000000       -0.047564         4    ;  uncertainty k = 0.093309
         8         7        26        25     9        0.000000        0.780045         1    ;  uncertainty k = 1.089347
         8         7        26        25     9      180.000000       -1.859569         2    ;  uncertainty k = 0.488005
         8         7        26        25     9        0.000000        0.270456         3    ;  uncertainty k = 0.264624
         8         7        26        25     9      180.000000       -0.141430         4    ;  uncertainty k = 0.146838
         8         7        26        27     9        0.000000       -0.933931         1    ;  uncertainty k = 1.153864
         8         7        26        27     9      180.000000       -3.566305         2    ;  uncertainty k = 1.516313
         8         7        26        27     9        0.000000        0.673281         3    ;  uncertainty k = 0.255406
         8         7        26        27     9      180.000000        0.065147         4    ;  uncertainty k = 0.378244
         8         7        26        59     9        0.000000        0.796083         1    ;  uncertainty k = 0.720209
         8         7        26        59     9      180.000000       -1.004917         2    ;  uncertainty k = 0.520944
         8         7        26        59     9        0.000000       -0.245006         3    ;  uncertainty k = 0.097716
         8         7        26        59     9      180.000000       -0.004860         4    ;  uncertainty k = 0.195203
         8         9        10        11     9        0.000000        0.312413         1    ;  uncertainty k = 0.242918
         8         9        10        11     9      180.000000        8.638334         2    ;  uncertainty k = 0.468596
         8         9        10        11     9        0.000000        1.448800         3    ;  uncertainty k = 0.340804
         8         9        10        11     9      180.000000        1.905016         4    ;  uncertainty k = 0.200484
         8         9        10        41     9        0.000000        0.035752         1    ;  uncertainty k = 0.305800
         8         9        10        41     9      180.000000        7.827037         2    ;  uncertainty k = 0.268347
         8         9        10        41     9        0.000000        0.557555         3    ;  uncertainty k = 0.370059
         8         9        10        41     9      180.000000        0.865304         4    ;  uncertainty k = 0.172707
         8         9        14        13     9        0.000000        0.312413         1    ;  uncertainty k = 0.242918
         8         9        14        13     9      180.000000        8.638334         2    ;  uncertainty k = 0.468596
         8         9        14        13     9        0.000000        1.448800         3    ;  uncertainty k = 0.340804
         8         9        14        13     9      180.000000        1.905016         4    ;  uncertainty k = 0.200484
         8         9        14        45     9        0.000000        0.035752         1    ;  uncertainty k = 0.305800
         8         9        14        45     9      180.000000        7.827037         2    ;  uncertainty k = 0.268347
         8         9        14        45     9        0.000000        0.557555         3    ;  uncertainty k = 0.370059
         8         9        14        45     9      180.000000        0.865304         4    ;  uncertainty k = 0.172707
         8        15        16        17     9        0.000000        0.593218         1    ;  uncertainty k = 0.725808
         8        15        16        17     9      180.000000        3.821017         2    ;  uncertainty k = 0.919034
         8        15        16        17     9        0.000000        0.411356         3    ;  uncertainty k = 0.530779
         8        15        16        17     9      180.000000        0.392364         4    ;  uncertainty k = 0.260322
         8        15        16        25     9        0.000000        4.148159         1    ;  uncertainty k = 1.964570
         8        15        16        25     9      180.000000        1.743231         2    ;  uncertainty k = 0.791786
         8        15        16        25     9        0.000000        0.008416         3    ;  uncertainty k = 0.400628
         8        15        16        25     9      180.000000        0.711871         4    ;  uncertainty k = 0.250957
         9         8         7        26     9        0.000000       -0.634172         1    ;  uncertainty k = 0.738897
         9         8         7        26     9      180.000000       -0.389088         2    ;  uncertainty k = 0.403376
         9         8         7        26     9        0.000000        0.403170         3    ;  uncertainty k = 0.228098
         9         8         7        26     9      180.000000       -0.031382         4    ;  uncertainty k = 0.138827
         9         8         7        39     9        0.000000        0.530295         1    ;  uncertainty k = 0.246708
         9         8         7        39     9      180.000000        0.121250         2    ;  uncertainty k = 0.617133
         9         8         7        39     9        0.000000        0.451811         3    ;  uncertainty k = 0.081496
         9         8         7        39     9      180.000000       -0.031873         4    ;  uncertainty k = 0.108858
         9         8        15        16     9        0.000000       -1.240810         1    ;  uncertainty k = 0.913860
         9         8        15        16     9      180.000000        0.100980         2    ;  uncertainty k = 0.285956
         9         8        15        16     9        0.000000        1.048824         3    ;  uncertainty k = 0.262246
         9         8        15        16     9      180.000000        0.199554         4    ;  uncertainty k = 0.098576
         9         8        15        46     9        0.000000        4.878358         1    ;  uncertainty k = 0.569249
         9         8        15        46     9      180.000000       -1.058872         2    ;  uncertainty k = 0.283859
         9         8        15        46     9        0.000000        0.413858         3    ;  uncertainty k = 0.297007
         9         8        15        46     9      180.000000       -0.032690         4    ;  uncertainty k = 0.182555
         9        10        11        12     9        0.000000       -0.073185         1    ;  uncertainty k = 0.135863
         9        10        11        12     9      180.000000       13.840581         2    ;  uncertainty k = 0.218470
         9        10        11        12     9        0.000000       -0.942124         3    ;  uncertainty k = 0.500159
         9        10        11        12     9      180.000000        0.720226         4    ;  uncertainty k = 0.249573
         9        10        11        42     9        0.000000        0.078938         1    ;  uncertainty k = 0.238410
         9        10        11        42     9      180.000000        7.523903         2    ;  uncertainty k = 0.411008
         9        10        11        42     9        0.000000        1.486224         3    ;  uncertainty k = 0.266909
         9        10        11        42     9      180.000000        1.791253         4    ;  uncertainty k = 0.130361
         9        14        13        12     9        0.000000       -0.073185         1    ;  uncertainty k = 0.135863
         9        14        13        12     9      180.000000       13.840581         2    ;  uncertainty k = 0.218470
         9        14        13        12     9        0.000000       -0.942124         3    ;  uncertainty k = 0.500159
         9        14        13        12     9      180.000000        0.720226         4    ;  uncertainty k = 0.249573
         9        14        13        44     9        0.000000        0.078938         1    ;  uncertainty k = 0.238410
         9        14        13        44     9      180.000000        7.523903         2    ;  uncertainty k = 0.411008
         9        14        13        44     9        0.000000        1.486224         3    ;  uncertainty k = 0.266909
         9        14        13        44     9      180.000000        1.791253         4    ;  uncertainty k = 0.130361
        10         9         8        15     9        0.000000       -0.590756         1    ;  uncertainty k = 0.525590
        10         9         8        15     9      180.000000        2.732820         2    ;  uncertainty k = 0.257489
        10         9         8        15     9        0.000000        0.629229         3    ;  uncertainty k = 0.228491
        10         9         8        15     9      180.000000        0.435378         4    ;  uncertainty k = 0.023802
        10         9         8        40     9        0.000000       -0.618195         1    ;  uncertainty k = 0.243536
        10         9         8        40     9      180.000000        2.285545         2    ;  uncertainty k = 0.337301
        10         9         8        40     9        0.000000        0.482603         3    ;  uncertainty k = 0.112818
        10         9         8        40     9      180.000000        0.236140         4    ;  uncertainty k = 0.049741
        10         9        14        13     9        0.000000       -0.244750         1    ;  uncertainty k = 0.085030
        10         9        14        13     9      180.000000       11.550238         2    ;  uncertainty k = 0.281782
        10         9        14        13     9        0.000000       -0.471965         3    ;  uncertainty k = 0.307308
        10         9        14        13     9      180.000000        0.819629         4    ;  uncertainty k = 0.339588
        10         9        14        45     9        0.000000        0.103786         1    ;  uncertainty k = 0.115164
        10         9        14        45     9      180.000000        7.232565         2    ;  uncertainty k = 0.479326
        10         9        14        45     9        0.000000        1.441610         3    ;  uncertainty k = 0.358040
        10         9        14        45     9      180.000000        1.626932         4    ;  uncertainty k = 0.180626
        10        11        12        13     9        0.000000        0.003338         1    ;  uncertainty k = 0.036528
        10        11        12        13     9      180.000000       15.061872         2    ;  uncertainty k = 0.266781
        10        11        12        13     9        0.000000       -1.241530         3    ;  uncertainty k = 0.510933
        10        11        12        13     9      180.000000        0.486539         4    ;  uncertainty k = 0.300059
        10        11        12        43     9        0.000000        0.055743         1    ;  uncertainty k = 0.094833
        10        11        12        43     9      180.000000        7.490470         2    ;  uncertainty k = 0.333390
        10        11        12        43     9        0.000000        1.467122         3    ;  uncertainty k = 0.292765
        10        11        12        43     9      180.000000        1.797081         4    ;  uncertainty k = 0.179699
        11        10         9        14     9        0.000000       -0.244750         1    ;  uncertainty k = 0.085030
        11        10         9        14     9      180.000000       11.550238         2    ;  uncertainty k = 0.281782
        11        10         9        14     9        0.000000       -0.471965         3    ;  uncertainty k = 0.307308
        11        10         9        14     9      180.000000        0.819629         4    ;  uncertainty k = 0.339588
        11        12        13        14     9        0.000000        0.003338         1    ;  uncertainty k = 0.036528
        11        12        13        14     9      180.000000       15.061872         2    ;  uncertainty k = 0.266781
        11        12        13        14     9        0.000000       -1.241530         3    ;  uncertainty k = 0.510933
        11        12        13        14     9      180.000000        0.486539         4    ;  uncertainty k = 0.300059
        11        12        13        44     9        0.000000        0.045944         1    ;  uncertainty k = 0.040456
        11        12        13        44     9      180.000000        7.527538         2    ;  uncertainty k = 0.325490
        11        12        13        44     9        0.000000        1.433628         3    ;  uncertainty k = 0.327115
        11        12        13        44     9      180.000000        1.790207         4    ;  uncertainty k = 0.158460
        12        11        10        41     9        0.000000        0.053110         1    ;  uncertainty k = 0.076537
        12        11        10        41     9      180.000000        7.946075         2    ;  uncertainty k = 0.338883
        12        11        10        41     9        0.000000        1.427769         3    ;  uncertainty k = 0.326159
        12        11        10        41     9      180.000000        1.836126         4    ;  uncertainty k = 0.159402
        12        13        14        45     9        0.000000        0.053110         1    ;  uncertainty k = 0.076537
        12        13        14        45     9      180.000000        7.946075         2    ;  uncertainty k = 0.338883
        12        13        14        45     9        0.000000        1.427769         3    ;  uncertainty k = 0.326159
        12        13        14        45     9      180.000000        1.836126         4    ;  uncertainty k = 0.159402
        13        12        11        42     9        0.000000        0.045944         1    ;  uncertainty k = 0.040456
        13        12        11        42     9      180.000000        7.527538         2    ;  uncertainty k = 0.325490
        13        12        11        42     9        0.000000        1.433628         3    ;  uncertainty k = 0.327115
        13        12        11        42     9      180.000000        1.790207         4    ;  uncertainty k = 0.158460
        14         9         8        15     9        0.000000       -0.590756         1    ;  uncertainty k = 0.525590
        14         9         8        15     9      180.000000        2.732820         2    ;  uncertainty k = 0.257489
        14         9         8        15     9        0.000000        0.629229         3    ;  uncertainty k = 0.228491
        14         9         8        15     9      180.000000        0.435378         4    ;  uncertainty k = 0.023802
        14         9         8        40     9        0.000000       -0.618195         1    ;  uncertainty k = 0.243536
        14         9         8        40     9      180.000000        2.285545         2    ;  uncertainty k = 0.337301
        14         9         8        40     9        0.000000        0.482603         3    ;  uncertainty k = 0.112818
        14         9         8        40     9      180.000000        0.236140         4    ;  uncertainty k = 0.049741
        14         9        10        41     9        0.000000        0.103786         1    ;  uncertainty k = 0.115164
        14         9        10        41     9      180.000000        7.232565         2    ;  uncertainty k = 0.479326
        14         9        10        41     9        0.000000        1.441610         3    ;  uncertainty k = 0.358040
        14         9        10        41     9      180.000000        1.626932         4    ;  uncertainty k = 0.180626
        14        13        12        43     9        0.000000        0.055743         1    ;  uncertainty k = 0.094833
        14        13        12        43     9      180.000000        7.490470         2    ;  uncertainty k = 0.333390
        14        13        12        43     9        0.000000        1.467122         3    ;  uncertainty k = 0.292765
        14        13        12        43     9      180.000000        1.797081         4    ;  uncertainty k = 0.179699
        15         8         7        26     9        0.000000        0.117302         1    ;  uncertainty k = 2.194738
        15         8         7        26     9      180.000000       -1.236871         2    ;  uncertainty k = 0.315425
        15         8         7        26     9        0.000000        0.533539         3    ;  uncertainty k = 0.435052
        15         8         7        26     9      180.000000       -0.173950         4    ;  uncertainty k = 0.362052
        15         8         7        39     9        0.000000       -0.947832         1    ;  uncertainty k = 0.627969
        15         8         7        39     9      180.000000        0.170574         2    ;  uncertainty k = 0.410475
        15         8         7        39     9        0.000000        0.627907         3    ;  uncertainty k = 0.278858
        15         8         7        39     9      180.000000        0.059565         4    ;  uncertainty k = 0.093137
        15        16        17        18     9        0.000000        0.275062         1    ;  uncertainty k = 0.339155
        15        16        17        18     9      180.000000       10.446241         2    ;  uncertainty k = 0.469377
        15        16        17        18     9        0.000000        1.235222         3    ;  uncertainty k = 0.221334
        15        16        17        18     9      180.000000        1.643604         4    ;  uncertainty k = 0.226733
        15        16        17        47     9        0.000000       -0.323884         1    ;  uncertainty k = 0.647804
        15        16        17        47     9      180.000000        8.078756         2    ;  uncertainty k = 0.274361
        15        16        17        47     9        0.000000        1.040695         3    ;  uncertainty k = 0.154407
        15        16        17        47     9      180.000000        1.233017         4    ;  uncertainty k = 0.296043
        15        16        25        24     9        0.000000        0.549330         1    ;  uncertainty k = 0.577912
        15        16        25        24     9      180.000000        7.809252         2    ;  uncertainty k = 0.312540
        15        16        25        24     9        0.000000        0.985713         3    ;  uncertainty k = 0.158909
        15        16        25        24     9      180.000000        1.312032         4    ;  uncertainty k = 0.361791
        15        16        25        26     9        0.000000        0.039987         1    ;  uncertainty k = 0.485107
        15        16        25        26     9      180.000000        7.653940         2    ;  uncertainty k = 1.015719
        15        16        25        26     9        0.000000        0.702843         3    ;  uncertainty k = 0.577098
        15        16        25        26     9      180.000000        1.209109         4    ;  uncertainty k = 0.477361
        16        15         8        40     9        0.000000       -0.859914         1    ;  uncertainty k = 0.376970
        16        15         8        40     9      180.000000       -0.534872         2    ;  uncertainty k = 0.442170
        16        15         8        40     9        0.000000        0.715681         3    ;  uncertainty k = 0.162009
        16        15         8        40     9      180.000000        0.204030         4    ;  uncertainty k = 0.096027
        16        17        18        19     9        0.000000       -0.155469         1    ;  uncertainty k = 0.135277
        16        17        18        19     9      180.000000       13.414340         2    ;  uncertainty k = 0.323258
        16        17        18        19     9        0.000000       -0.600785         3    ;  uncertainty k = 0.543738
        16        17        18        19     9      180.000000        0.829597         4    ;  uncertainty k = 0.308177
        16        17        18        48     9        0.000000        0.296133         1    ;  uncertainty k = 0.490825
        16        17        18        48     9      180.000000        9.215283         2    ;  uncertainty k = 0.526919
        16        17        18        48     9        0.000000        1.248290         3    ;  uncertainty k = 0.298927
        16        17        18        48     9      180.000000        1.573102         4    ;  uncertainty k = 0.321455
        16        25        24        19     9        0.000000       -0.123951         1    ;  uncertainty k = 0.285921
        16        25        24        19     9      180.000000       11.753960         2    ;  uncertainty k = 0.414842
        16        25        24        19     9        0.000000       -0.320007         3    ;  uncertainty k = 0.507616
        16        25        24        19     9      180.000000        0.875037         4    ;  uncertainty k = 0.436083
        16        25        24        58     9        0.000000        0.181592         1    ;  uncertainty k = 0.375492
        16        25        24        58     9      180.000000        8.361258         2    ;  uncertainty k = 0.480828
        16        25        24        58     9        0.000000        1.392288         3    ;  uncertainty k = 0.272511
        16        25        24        58     9      180.000000        1.536169         4    ;  uncertainty k = 0.201585
        16        25        26        27     9        0.000000       -1.675764         1    ;  uncertainty k = 1.807714
        16        25        26        27     9      180.000000       -0.152462         2    ;  uncertainty k = 1.196707
        16        25        26        27     9        0.000000        1.490794         3    ;  uncertainty k = 0.319467
        16        25        26        27     9      180.000000        0.023151         4    ;  uncertainty k = 0.161486
        16        25        26        59     9        0.000000       -0.393181         1    ;  uncertainty k = 0.763905
        16        25        26        59     9      180.000000        2.064942         2    ;  uncertainty k = 0.262873
        16        25        26        59     9        0.000000        0.497006         3    ;  uncertainty k = 0.244646
        16        25        26        59     9      180.000000       -0.193104         4    ;  uncertainty k = 0.095379
        17        16        15        46     9        0.000000        1.703201         1    ;  uncertainty k = 0.593668
        17        16        15        46     9      180.000000        4.585995         2    ;  uncertainty k = 0.346052
        17        16        15        46     9        0.000000        0.705300         3    ;  uncertainty k = 0.296874
        17        16        15        46     9      180.000000        0.009233         4    ;  uncertainty k = 0.176095
        17        16        25        24     9        0.000000        0.277334         1    ;  uncertainty k = 0.151368
        17        16        25        24     9      180.000000        6.242640         2    ;  uncertainty k = 0.575547
        17        16        25        24     9        0.000000        0.315396         3    ;  uncertainty k = 0.447584
        17        16        25        24     9      180.000000        1.316416         4    ;  uncertainty k = 0.213913
        17        16        25        26     9        0.000000        0.669581         1    ;  uncertainty k = 0.621197
        17        16        25        26     9      180.000000        5.749192         2    ;  uncertainty k = 0.469018
        17        16        25        26     9        0.000000        1.247904         3    ;  uncertainty k = 0.260251
        17        16        25        26     9      180.000000        1.580174         4    ;  uncertainty k = 0.325099
        17        18        19        20     9        0.000000        0.171940         1    ;  uncertainty k = 0.237999
        17        18        19        20     9      180.000000        8.086206         2    ;  uncertainty k = 0.335582
        17        18        19        20     9        0.000000        1.350917         3    ;  uncertainty k = 0.274555
        17        18        19        20     9      180.000000        1.836981         4    ;  uncertainty k = 0.170913
        17        18        19        24     9        0.000000       -0.191050         1    ;  uncertainty k = 0.058965
        17        18        19        24     9      180.000000       11.166449         2    ;  uncertainty k = 0.404881
        17        18        19        24     9        0.000000       -0.347580         3    ;  uncertainty k = 0.214175
        17        18        19        24     9      180.000000        0.958059         4    ;  uncertainty k = 0.255738
        18        17        16        25     9        0.000000        0.157098         1    ;  uncertainty k = 0.189600
        18        17        16        25     9      180.000000        7.858345         2    ;  uncertainty k = 0.559718
        18        17        16        25     9        0.000000        0.254311         3    ;  uncertainty k = 0.550577
        18        17        16        25     9      180.000000        1.348966         4    ;  uncertainty k = 0.188664
        18        19        20        21     9        0.000000       -0.257730         1    ;  uncertainty k = 0.371272
        18        19        20        21     9      180.000000        2.542546         2    ;  uncertainty k = 0.166545
        18        19        20        21     9        0.000000        0.361656         3    ;  uncertainty k = 0.070149
        18        19        20        21     9      180.000000        0.359540         4    ;  uncertainty k = 0.061766
        18        19        20        22     9        0.000000       -0.257730         1    ;  uncertainty k = 0.371272
        18        19        20        22     9      180.000000        2.542546         2    ;  uncertainty k = 0.166545
        18        19        20        22     9        0.000000        0.361656         3    ;  uncertainty k = 0.070149
        18        19        20        22     9      180.000000        0.359540         4    ;  uncertainty k = 0.061766
        18        19        20        23     9        0.000000       -0.257730         1    ;  uncertainty k = 0.371272
        18        19        20        23     9      180.000000        2.542546         2    ;  uncertainty k = 0.166545
        18        19        20        23     9        0.000000        0.361656         3    ;  uncertainty k = 0.070149
        18        19        20        23     9      180.000000        0.359540         4    ;  uncertainty k = 0.061766
        18        19        24        25     9        0.000000        0.058885         1    ;  uncertainty k = 0.266056
        18        19        24        25     9      180.000000       10.780073         2    ;  uncertainty k = 0.441285
        18        19        24        25     9        0.000000       -0.027254         3    ;  uncertainty k = 0.547501
        18        19        24        25     9      180.000000        1.075213         4    ;  uncertainty k = 0.496490
        18        19        24        58     9        0.000000        0.104355         1    ;  uncertainty k = 0.175314
        18        19        24        58     9      180.000000        7.746722         2    ;  uncertainty k = 0.371621
        18        19        24        58     9        0.000000        1.470944         3    ;  uncertainty k = 0.342445
        18        19        24        58     9      180.000000        1.696370         4    ;  uncertainty k = 0.172368
        19        18        17        47     9        0.000000        0.062468         1    ;  uncertainty k = 0.250549
        19        18        17        47     9      180.000000        7.894302         2    ;  uncertainty k = 0.351149
        19        18        17        47     9        0.000000        1.433526         3    ;  uncertainty k = 0.283966
        19        18        17        47     9      180.000000        1.906668         4    ;  uncertainty k = 0.257360
        19        20        21        49     9        0.000000        0.794443         1    ;  uncertainty k = 0.477538
        19        20        21        49     9      180.000000       -0.515178         2    ;  uncertainty k = 0.038670
        19        20        21        49     9        0.000000        0.711172         3    ;  uncertainty k = 0.051879
        19        20        21        49     9      180.000000        0.033782         4    ;  uncertainty k = 0.064289
        19        20        21        50     9        0.000000        0.794443         1    ;  uncertainty k = 0.477538
        19        20        21        50     9      180.000000       -0.515178         2    ;  uncertainty k = 0.038670
        19        20        21        50     9        0.000000        0.711172         3    ;  uncertainty k = 0.051879
        19        20        21        50     9      180.000000        0.033782         4    ;  uncertainty k = 0.064289
        19        20        21        51     9        0.000000        0.794443         1    ;  uncertainty k = 0.477538
        19        20        21        51     9      180.000000       -0.515178         2    ;  uncertainty k = 0.038670
        19        20        21        51     9        0.000000        0.711172         3    ;  uncertainty k = 0.051879
        19        20        21        51     9      180.000000        0.033782         4    ;  uncertainty k = 0.064289
        19        20        22        52     9        0.000000        0.794443         1    ;  uncertainty k = 0.477538
        19        20        22        52     9      180.000000       -0.515178         2    ;  uncertainty k = 0.038670
        19        20        22        52     9        0.000000        0.711172         3    ;  uncertainty k = 0.051879
        19        20        22        52     9      180.000000        0.033782         4    ;  uncertainty k = 0.064289
        19        20        22        53     9        0.000000        0.794443         1    ;  uncertainty k = 0.477538
        19        20        22        53     9      180.000000       -0.515178         2    ;  uncertainty k = 0.038670
        19        20        22        53     9        0.000000        0.711172         3    ;  uncertainty k = 0.051879
        19        20        22        53     9      180.000000        0.033782         4    ;  uncertainty k = 0.064289
        19        20        22        54     9        0.000000        0.794443         1    ;  uncertainty k = 0.477538
        19        20        22        54     9      180.000000       -0.515178         2    ;  uncertainty k = 0.038670
        19        20        22        54     9        0.000000        0.711172         3    ;  uncertainty k = 0.051879
        19        20        22        54     9      180.000000        0.033782         4    ;  uncertainty k = 0.064289
        19        20        23        55     9        0.000000        0.794443         1    ;  uncertainty k = 0.477538
        19        20        23        55     9      180.000000       -0.515178         2    ;  uncertainty k = 0.038670
        19        20        23        55     9        0.000000        0.711172         3    ;  uncertainty k = 0.051879
        19        20        23        55     9      180.000000        0.033782         4    ;  uncertainty k = 0.064289
        19        20        23        56     9        0.000000        0.794443         1    ;  uncertainty k = 0.477538
        19        20        23        56     9      180.000000       -0.515178         2    ;  uncertainty k = 0.038670
        19        20        23        56     9        0.000000        0.711172         3    ;  uncertainty k = 0.051879
        19        20        23        56     9      180.000000        0.033782         4    ;  uncertainty k = 0.064289
        19        20        23        57     9        0.000000        0.794443         1    ;  uncertainty k = 0.477538
        19        20        23        57     9      180.000000       -0.515178         2    ;  uncertainty k = 0.038670
        19        20        23        57     9        0.000000        0.711172         3    ;  uncertainty k = 0.051879
        19        20        23        57     9      180.000000        0.033782         4    ;  uncertainty k = 0.064289
        19        24        25        26     9        0.000000        0.002357         1    ;  uncertainty k = 0.482170
        19        24        25        26     9      180.000000        9.409537         2    ;  uncertainty k = 0.271262
        19        24        25        26     9        0.000000        1.310979         3    ;  uncertainty k = 0.195410
        19        24        25        26     9      180.000000        1.890667         4    ;  uncertainty k = 0.401950
        20        19        18        48     9        0.000000       -0.322150         1    ;  uncertainty k = 0.625486
        20        19        18        48     9      180.000000        7.620869         2    ;  uncertainty k = 0.555705
        20        19        18        48     9        0.000000        0.560175         3    ;  uncertainty k = 0.260776
        20        19        18        48     9      180.000000        0.966847         4    ;  uncertainty k = 0.215082
        20        19        24        25     9        0.000000        0.046291         1    ;  uncertainty k = 0.151687
        20        19        24        25     9      180.000000        8.787377         2    ;  uncertainty k = 0.456904
        20        19        24        25     9        0.000000        1.285868         3    ;  uncertainty k = 0.242434
        20        19        24        25     9      180.000000        1.685029         4    ;  uncertainty k = 0.137336
        20        19        24        58     9        0.000000       -0.224769         1    ;  uncertainty k = 0.659054
        20        19        24        58     9      180.000000        7.875340         2    ;  uncertainty k = 0.558845
        20        19        24        58     9        0.000000        0.633676         3    ;  uncertainty k = 0.256249
        20        19        24        58     9      180.000000        1.051674         4    ;  uncertainty k = 0.159945
        21        20        19        24     9        0.000000       -0.123494         1    ;  uncertainty k = 0.475831
        21        20        19        24     9      180.000000        2.583717         2    ;  uncertainty k = 0.233642
        21        20        19        24     9        0.000000        0.303046         3    ;  uncertainty k = 0.103944
        21        20        19        24     9      180.000000        0.385902         4    ;  uncertainty k = 0.055046
        21        20        22        52     9        0.000000       -1.188574         1    ;  uncertainty k = 0.286329
        21        20        22        52     9      180.000000       -0.229296         2    ;  uncertainty k = 0.093119
        21        20        22        52     9        0.000000        0.805969         3    ;  uncertainty k = 0.037188
        21        20        22        52     9      180.000000       -0.066025         4    ;  uncertainty k = 0.043590
        21        20        22        53     9        0.000000       -1.188574         1    ;  uncertainty k = 0.286329
        21        20        22        53     9      180.000000       -0.229296         2    ;  uncertainty k = 0.093119
        21        20        22        53     9        0.000000        0.805969         3    ;  uncertainty k = 0.037188
        21        20        22        53     9      180.000000       -0.066025         4    ;  uncertainty k = 0.043590
        21        20        22        54     9        0.000000       -1.188574         1    ;  uncertainty k = 0.286329
        21        20        22        54     9      180.000000       -0.229296         2    ;  uncertainty k = 0.093119
        21        20        22        54     9        0.000000        0.805969         3    ;  uncertainty k = 0.037188
        21        20        22        54     9      180.000000       -0.066025         4    ;  uncertainty k = 0.043590
        21        20        23        55     9        0.000000       -1.188574         1    ;  uncertainty k = 0.286329
        21        20        23        55     9      180.000000       -0.229296         2    ;  uncertainty k = 0.093119
        21        20        23        55     9        0.000000        0.805969         3    ;  uncertainty k = 0.037188
        21        20        23        55     9      180.000000       -0.066025         4    ;  uncertainty k = 0.043590
        21        20        23        56     9        0.000000       -1.188574         1    ;  uncertainty k = 0.286329
        21        20        23        56     9      180.000000       -0.229296         2    ;  uncertainty k = 0.093119
        21        20        23        56     9        0.000000        0.805969         3    ;  uncertainty k = 0.037188
        21        20        23        56     9      180.000000       -0.066025         4    ;  uncertainty k = 0.043590
        21        20        23        57     9        0.000000       -1.188574         1    ;  uncertainty k = 0.286329
        21        20        23        57     9      180.000000       -0.229296         2    ;  uncertainty k = 0.093119
        21        20        23        57     9        0.000000        0.805969         3    ;  uncertainty k = 0.037188
        21        20        23        57     9      180.000000       -0.066025         4    ;  uncertainty k = 0.043590
        22        20        19        24     9        0.000000       -0.123494         1    ;  uncertainty k = 0.475831
        22        20        19        24     9      180.000000        2.583717         2    ;  uncertainty k = 0.233642
        22        20        19        24     9        0.000000        0.303046         3    ;  uncertainty k = 0.103944
        22        20        19        24     9      180.000000        0.385902         4    ;  uncertainty k = 0.055046
        22        20        21        49     9        0.000000       -1.188574         1    ;  uncertainty k = 0.286329
        22        20        21        49     9      180.000000       -0.229296         2    ;  uncertainty k = 0.093119
        22        20        21        49     9        0.000000        0.805969         3    ;  uncertainty k = 0.037188
        22        20        21        49     9      180.000000       -0.066025         4    ;  uncertainty k = 0.043590
        22        20        21        50     9        0.000000       -1.188574         1    ;  uncertainty k = 0.286329
        22        20        21        50     9      180.000000       -0.229296         2    ;  uncertainty k = 0.093119
        22        20        21        50     9        0.000000        0.805969         3    ;  uncertainty k = 0.037188
        22        20        21        50     9      180.000000       -0.066025         4    ;  uncertainty k = 0.043590
        22        20        21        51     9        0.000000       -1.188574         1    ;  uncertainty k = 0.286329
        22        20        21        51     9      180.000000       -0.229296         2    ;  uncertainty k = 0.093119
        22        20        21        51     9        0.000000        0.805969         3    ;  uncertainty k = 0.037188
        22        20        21        51     9      180.000000       -0.066025         4    ;  uncertainty k = 0.043590
        22        20        23        55     9        0.000000       -1.188574         1    ;  uncertainty k = 0.286329
        22        20        23        55     9      180.000000       -0.229296         2    ;  uncertainty k = 0.093119
        22        20        23        55     9        0.000000        0.805969         3    ;  uncertainty k = 0.037188
        22        20        23        55     9      180.000000       -0.066025         4    ;  uncertainty k = 0.043590
        22        20        23        56     9        0.000000       -1.188574         1    ;  uncertainty k = 0.286329
        22        20        23        56     9      180.000000       -0.229296         2    ;  uncertainty k = 0.093119
        22        20        23        56     9        0.000000        0.805969         3    ;  uncertainty k = 0.037188
        22        20        23        56     9      180.000000       -0.066025         4    ;  uncertainty k = 0.043590
        22        20        23        57     9        0.000000       -1.188574         1    ;  uncertainty k = 0.286329
        22        20        23        57     9      180.000000       -0.229296         2    ;  uncertainty k = 0.093119
        22        20        23        57     9        0.000000        0.805969         3    ;  uncertainty k = 0.037188
        22        20        23        57     9      180.000000       -0.066025         4    ;  uncertainty k = 0.043590
        23        20        19        24     9        0.000000       -0.123494         1    ;  uncertainty k = 0.475831
        23        20        19        24     9      180.000000        2.583717         2    ;  uncertainty k = 0.233642
        23        20        19        24     9        0.000000        0.303046         3    ;  uncertainty k = 0.103944
        23        20        19        24     9      180.000000        0.385902         4    ;  uncertainty k = 0.055046
        23        20        21        49     9        0.000000       -1.188574         1    ;  uncertainty k = 0.286329
        23        20        21        49     9      180.000000       -0.229296         2    ;  uncertainty k = 0.093119
        23        20        21        49     9        0.000000        0.805969         3    ;  uncertainty k = 0.037188
        23        20        21        49     9      180.000000       -0.066025         4    ;  uncertainty k = 0.043590
        23        20        21        50     9        0.000000       -1.188574         1    ;  uncertainty k = 0.286329
        23        20        21        50     9      180.000000       -0.229296         2    ;  uncertainty k = 0.093119
        23        20        21        50     9        0.000000        0.805969         3    ;  uncertainty k = 0.037188
        23        20        21        50     9      180.000000       -0.066025         4    ;  uncertainty k = 0.043590
        23        20        21        51     9        0.000000       -1.188574         1    ;  uncertainty k = 0.286329
        23        20        21        51     9      180.000000       -0.229296         2    ;  uncertainty k = 0.093119
        23        20        21        51     9        0.000000        0.805969         3    ;  uncertainty k = 0.037188
        23        20        21        51     9      180.000000       -0.066025         4    ;  uncertainty k = 0.043590
        23        20        22        52     9        0.000000       -1.188574         1    ;  uncertainty k = 0.286329
        23        20        22        52     9      180.000000       -0.229296         2    ;  uncertainty k = 0.093119
        23        20        22        52     9        0.000000        0.805969         3    ;  uncertainty k = 0.037188
        23        20        22        52     9      180.000000       -0.066025         4    ;  uncertainty k = 0.043590
        23        20        22        53     9        0.000000       -1.188574         1    ;  uncertainty k = 0.286329
        23        20        22        53     9      180.000000       -0.229296         2    ;  uncertainty k = 0.093119
        23        20        22        53     9        0.000000        0.805969         3    ;  uncertainty k = 0.037188
        23        20        22        53     9      180.000000       -0.066025         4    ;  uncertainty k = 0.043590
        23        20        22        54     9        0.000000       -1.188574         1    ;  uncertainty k = 0.286329
        23        20        22        54     9      180.000000       -0.229296         2    ;  uncertainty k = 0.093119
        23        20        22        54     9        0.000000        0.805969         3    ;  uncertainty k = 0.037188
        23        20        22        54     9      180.000000       -0.066025         4    ;  uncertainty k = 0.043590
        24        19        18        48     9        0.000000        0.151318         1    ;  uncertainty k = 0.166032
        24        19        18        48     9      180.000000        7.285280         2    ;  uncertainty k = 0.645948
        24        19        18        48     9        0.000000        1.357278         3    ;  uncertainty k = 0.319034
        24        19        18        48     9      180.000000        1.619462         4    ;  uncertainty k = 0.231962
        24        25        26        27     9        0.000000       -0.054230         1    ;  uncertainty k = 0.564134
        24        25        26        27     9      180.000000        0.953078         2    ;  uncertainty k = 0.502203
        24        25        26        27     9        0.000000       -0.214606         3    ;  uncertainty k = 0.519327
        24        25        26        27     9      180.000000        0.087622         4    ;  uncertainty k = 0.147634
        24        25        26        59     9        0.000000        0.466089         1    ;  uncertainty k = 0.896226
        24        25        26        59     9      180.000000        1.859666         2    ;  uncertainty k = 0.404745
        24        25        26        59     9        0.000000        0.121927         3    ;  uncertainty k = 0.161964
        24        25        26        59     9      180.000000        0.000429         4    ;  uncertainty k = 0.130110
        25        16        15        46     9        0.000000       11.972496         1    ;  uncertainty k = 0.583111
        25        16        15        46     9      180.000000        4.814548         2    ;  uncertainty k = 0.487272
        25        16        15        46     9        0.000000        0.186035         3    ;  uncertainty k = 0.232912
        25        16        15        46     9      180.000000        0.228756         4    ;  uncertainty k = 0.170930
        25        16        17        47     9        0.000000        0.104159         1    ;  uncertainty k = 0.911942
        25        16        17        47     9      180.000000        6.150903         2    ;  uncertainty k = 0.681774
        25        16        17        47     9        0.000000        1.303663         3    ;  uncertainty k = 0.312887
        25        16        17        47     9      180.000000        1.286585         4    ;  uncertainty k = 0.184251
        25        26         7        39     9        0.000000       -0.266153         1    ;  uncertainty k = 1.181923
        25        26         7        39     9      180.000000        0.788004         2    ;  uncertainty k = 0.433796
        25        26         7        39     9        0.000000        0.020549         3    ;  uncertainty k = 0.078593
        25        26         7        39     9      180.000000       -0.075940         4    ;  uncertainty k = 0.105248
        26         7         6        37     9        0.000000       -0.378174         1    ;  uncertainty k = 0.492032
        26         7         6        37     9      180.000000       -0.667956         2    ;  uncertainty k = 0.147163
        26         7         6        37     9        0.000000        0.284262         3    ;  uncertainty k = 0.121781
        26         7         6        37     9      180.000000       -0.012084         4    ;  uncertainty k = 0.050647
        26         7         6        38     9        0.000000       -0.378174         1    ;  uncertainty k = 0.492032
        26         7         6        38     9      180.000000       -0.667956         2    ;  uncertainty k = 0.147163
        26         7         6        38     9        0.000000        0.284262         3    ;  uncertainty k = 0.121781
        26         7         6        38     9      180.000000       -0.012084         4    ;  uncertainty k = 0.050647
        26         7         8        40     9        0.000000        0.625378         1    ;  uncertainty k = 0.773970
        26         7         8        40     9      180.000000       -1.421083         2    ;  uncertainty k = 0.703662
        26         7         8        40     9        0.000000       -0.401535         3    ;  uncertainty k = 0.137128
        26         7         8        40     9      180.000000        0.018395         4    ;  uncertainty k = 0.144996
        26        25        24        58     9        0.000000       -0.292558         1    ;  uncertainty k = 0.399495
        26        25        24        58     9      180.000000        8.304483         2    ;  uncertainty k = 0.760336
        26        25        24        58     9        0.000000        0.796257         3    ;  uncertainty k = 0.303730
        26        25        24        58     9      180.000000        1.131403         4    ;  uncertainty k = 0.481370
        26        27         4        34     9        0.000000       -2.051337         1    ;  uncertainty k = 1.625803
        26        27         4        34     9      180.000000       -0.830199         2    ;  uncertainty k = 0.521439
        26        27         4        34     9        0.000000        0.231539         3    ;  uncertainty k = 0.055294
        26        27         4        34     9      180.000000        0.014768         4    ;  uncertainty k = 0.160210
        27         4         3        32     9        0.000000        1.173470         1    ;  uncertainty k = 0.977602
        27         4         3        32     9      180.000000       -0.816408         2    ;  uncertainty k = 0.269217
        27         4         3        32     9        0.000000        0.408876         3    ;  uncertainty k = 0.294466
        27         4         3        32     9      180.000000       -0.106316         4    ;  uncertainty k = 0.200540
        27         4         3        33     9        0.000000        1.173470         1    ;  uncertainty k = 0.977602
        27         4         3        33     9      180.000000       -0.816408         2    ;  uncertainty k = 0.269217
        27         4         3        33     9        0.000000        0.408876         3    ;  uncertainty k = 0.294466
        27         4         3        33     9      180.000000       -0.106316         4    ;  uncertainty k = 0.200540
        27         4         5        35     9        0.000000       -1.120835         1    ;  uncertainty k = 0.408236
        27         4         5        35     9      180.000000       -1.089181         2    ;  uncertainty k = 0.426858
        27         4         5        35     9        0.000000        1.052287         3    ;  uncertainty k = 0.240255
        27         4         5        35     9      180.000000       -0.072184         4    ;  uncertainty k = 0.050785
        27         4         5        36     9        0.000000       -1.120835         1    ;  uncertainty k = 0.408236
        27         4         5        36     9      180.000000       -1.089181         2    ;  uncertainty k = 0.426858
        27         4         5        36     9        0.000000        1.052287         3    ;  uncertainty k = 0.240255
        27         4         5        36     9      180.000000       -0.072184         4    ;  uncertainty k = 0.050785
        27        26         7        39     9        0.000000       -0.599164         1    ;  uncertainty k = 0.341342
        27        26         7        39     9      180.000000        0.353573         2    ;  uncertainty k = 0.575928
        27        26         7        39     9        0.000000        0.093350         3    ;  uncertainty k = 0.294994
        27        26         7        39     9      180.000000       -0.137775         4    ;  uncertainty k = 0.132515
        28         1         2        31     9        0.000000       -0.199732         1    ;  uncertainty k = 0.663170
        28         1         2        31     9      180.000000       -0.359617         2    ;  uncertainty k = 0.485979
        28         1         2        31     9        0.000000        0.552467         3    ;  uncertainty k = 0.121279
        28         1         2        31     9      180.000000        0.083020         4    ;  uncertainty k = 0.112026
        28         1         2        60     9        0.000000       -0.199732         1    ;  uncertainty k = 0.663169
        28         1         2        60     9      180.000000       -0.359617         2    ;  uncertainty k = 0.485979
        28         1         2        60     9        0.000000        0.552467         3    ;  uncertainty k = 0.121280
        28         1         2        60     9      180.000000        0.083020         4    ;  uncertainty k = 0.112026
        29         1         2        31     9        0.000000       -0.199732         1    ;  uncertainty k = 0.663170
        29         1         2        31     9      180.000000       -0.359617         2    ;  uncertainty k = 0.485979
        29         1         2        31     9        0.000000        0.552467         3    ;  uncertainty k = 0.121279
        29         1         2        31     9      180.000000        0.083020         4    ;  uncertainty k = 0.112026
        29         1         2        60     9        0.000000       -0.199732         1    ;  uncertainty k = 0.663169
        29         1         2        60     9      180.000000       -0.359617         2    ;  uncertainty k = 0.485979
        29         1         2        60     9        0.000000        0.552467         3    ;  uncertainty k = 0.121280
        29         1         2        60     9      180.000000        0.083020         4    ;  uncertainty k = 0.112026
        30         1         2        31     9        0.000000       -0.199732         1    ;  uncertainty k = 0.663170
        30         1         2        31     9      180.000000       -0.359617         2    ;  uncertainty k = 0.485979
        30         1         2        31     9        0.000000        0.552467         3    ;  uncertainty k = 0.121279
        30         1         2        31     9      180.000000        0.083020         4    ;  uncertainty k = 0.112026
        30         1         2        60     9        0.000000       -0.199732         1    ;  uncertainty k = 0.663169
        30         1         2        60     9      180.000000       -0.359617         2    ;  uncertainty k = 0.485979
        30         1         2        60     9        0.000000        0.552467         3    ;  uncertainty k = 0.121280
        30         1         2        60     9      180.000000        0.083020         4    ;  uncertainty k = 0.112026
        31         2         3        32     9        0.000000        0.344846         1    ;  uncertainty k = 0.569641
        31         2         3        32     9      180.000000       -0.270675         2    ;  uncertainty k = 0.212261
        31         2         3        32     9        0.000000        0.296373         3    ;  uncertainty k = 0.102911
        31         2         3        32     9      180.000000        0.019633         4    ;  uncertainty k = 0.099171
        31         2         3        33     9        0.000000        0.344846         1    ;  uncertainty k = 0.569641
        31         2         3        33     9      180.000000       -0.270675         2    ;  uncertainty k = 0.212261
        31         2         3        33     9        0.000000        0.296373         3    ;  uncertainty k = 0.102911
        31         2         3        33     9      180.000000        0.019633         4    ;  uncertainty k = 0.099171
        32         3         2        60     9        0.000000        0.344845         1    ;  uncertainty k = 0.569640
        32         3         2        60     9      180.000000       -0.270674         2    ;  uncertainty k = 0.212262
        32         3         2        60     9        0.000000        0.296373         3    ;  uncertainty k = 0.102911
        32         3         2        60     9      180.000000        0.019633         4    ;  uncertainty k = 0.099171
        32         3         4        34     9        0.000000       -0.216190         1    ;  uncertainty k = 0.375570
        32         3         4        34     9      180.000000        0.070681         2    ;  uncertainty k = 0.423812
        32         3         4        34     9        0.000000        0.186558         3    ;  uncertainty k = 0.185130
        32         3         4        34     9      180.000000       -0.045535         4    ;  uncertainty k = 0.059390
        33         3         2        60     9        0.000000        0.344845         1    ;  uncertainty k = 0.569640
        33         3         2        60     9      180.000000       -0.270674         2    ;  uncertainty k = 0.212262
        33         3         2        60     9        0.000000        0.296373         3    ;  uncertainty k = 0.102911
        33         3         2        60     9      180.000000        0.019633         4    ;  uncertainty k = 0.099171
        33         3         4        34     9        0.000000       -0.216190         1    ;  uncertainty k = 0.375570
        33         3         4        34     9      180.000000        0.070681         2    ;  uncertainty k = 0.423812
        33         3         4        34     9        0.000000        0.186558         3    ;  uncertainty k = 0.185130
        33         3         4        34     9      180.000000       -0.045535         4    ;  uncertainty k = 0.059390
        34         4         5        35     9        0.000000        0.455768         1    ;  uncertainty k = 0.162016
        34         4         5        35     9      180.000000        0.067803         2    ;  uncertainty k = 0.345289
        34         4         5        35     9        0.000000       -0.022970         3    ;  uncertainty k = 0.136639
        34         4         5        35     9      180.000000       -0.119005         4    ;  uncertainty k = 0.074424
        34         4         5        36     9        0.000000        0.455768         1    ;  uncertainty k = 0.162016
        34         4         5        36     9      180.000000        0.067803         2    ;  uncertainty k = 0.345289
        34         4         5        36     9        0.000000       -0.022970         3    ;  uncertainty k = 0.136639
        34         4         5        36     9      180.000000       -0.119005         4    ;  uncertainty k = 0.074424
        35         5         6        37     9        0.000000        1.565776         1    ;  uncertainty k = 0.444564
        35         5         6        37     9      180.000000        0.161485         2    ;  uncertainty k = 0.255154
        35         5         6        37     9        0.000000        0.367677         3    ;  uncertainty k = 0.120802
        35         5         6        37     9      180.000000        0.076828         4    ;  uncertainty k = 0.017254
        35         5         6        38     9        0.000000        1.565776         1    ;  uncertainty k = 0.444564
        35         5         6        38     9      180.000000        0.161485         2    ;  uncertainty k = 0.255154
        35         5         6        38     9        0.000000        0.367677         3    ;  uncertainty k = 0.120802
        35         5         6        38     9      180.000000        0.076828         4    ;  uncertainty k = 0.017254
        36         5         6        37     9        0.000000        1.565776         1    ;  uncertainty k = 0.444564
        36         5         6        37     9      180.000000        0.161485         2    ;  uncertainty k = 0.255154
        36         5         6        37     9        0.000000        0.367677         3    ;  uncertainty k = 0.120802
        36         5         6        37     9      180.000000        0.076828         4    ;  uncertainty k = 0.017254
        36         5         6        38     9        0.000000        1.565776         1    ;  uncertainty k = 0.444564
        36         5         6        38     9      180.000000        0.161485         2    ;  uncertainty k = 0.255154
        36         5         6        38     9        0.000000        0.367677         3    ;  uncertainty k = 0.120802
        36         5         6        38     9      180.000000        0.076828         4    ;  uncertainty k = 0.017254
        37         6         7        39     9        0.000000        1.556155         1    ;  uncertainty k = 0.374248
        37         6         7        39     9      180.000000       -0.010849         2    ;  uncertainty k = 0.316681
        37         6         7        39     9        0.000000       -0.074252         3    ;  uncertainty k = 0.123289
        37         6         7        39     9      180.000000        0.022583         4    ;  uncertainty k = 0.073589
        38         6         7        39     9        0.000000        1.556155         1    ;  uncertainty k = 0.374248
        38         6         7        39     9      180.000000       -0.010849         2    ;  uncertainty k = 0.316681
        38         6         7        39     9        0.000000       -0.074252         3    ;  uncertainty k = 0.123289
        38         6         7        39     9      180.000000        0.022583         4    ;  uncertainty k = 0.073589
        39         7         8        40     9        0.000000        1.077534         1    ;  uncertainty k = 0.458222
        39         7         8        40     9      180.000000       -0.042490         2    ;  uncertainty k = 0.250346
        39         7         8        40     9        0.000000       -0.346965         3    ;  uncertainty k = 0.176981
        39         7         8        40     9      180.000000       -0.270511         4    ;  uncertainty k = 0.102482
        39         7        26        59     9        0.000000        2.070250         1    ;  uncertainty k = 0.448495
        39         7        26        59     9      180.000000        0.876145         2    ;  uncertainty k = 0.447052
        39         7        26        59     9        0.000000       -0.476786         3    ;  uncertainty k = 0.228055
        39         7        26        59     9      180.000000       -0.170907         4    ;  uncertainty k = 0.066586
        40         8        15        46     9        0.000000        0.468542         1    ;  uncertainty k = 0.563664
        40         8        15        46     9      180.000000       -0.983993         2    ;  uncertainty k = 0.285944
        40         8        15        46     9        0.000000        0.482175         3    ;  uncertainty k = 0.277173
        40         8        15        46     9      180.000000        0.028441         4    ;  uncertainty k = 0.127509
        41        10        11        42     9        0.000000       -0.038400         1    ;  uncertainty k = 0.034127
        41        10        11        42     9      180.000000        7.644156         2    ;  uncertainty k = 0.255449
        41        10        11        42     9        0.000000       -0.470075         3    ;  uncertainty k = 0.270053
        41        10        11        42     9      180.000000        0.106023         4    ;  uncertainty k = 0.117776
        42        11        12        43     9        0.000000       -0.016279         1    ;  uncertainty k = 0.090335
        42        11        12        43     9      180.000000        7.510682         2    ;  uncertainty k = 0.369436
        42        11        12        43     9        0.000000       -0.422665         3    ;  uncertainty k = 0.276611
        42        11        12        43     9      180.000000        0.041075         4    ;  uncertainty k = 0.155578
        43        12        13        44     9        0.000000       -0.016279         1    ;  uncertainty k = 0.090335
        43        12        13        44     9      180.000000        7.510682         2    ;  uncertainty k = 0.369436
        43        12        13        44     9        0.000000       -0.422665         3    ;  uncertainty k = 0.276611
        43        12        13        44     9      180.000000        0.041075         4    ;  uncertainty k = 0.155578
        44        13        14        45     9        0.000000       -0.038400         1    ;  uncertainty k = 0.034127
        44        13        14        45     9      180.000000        7.644156         2    ;  uncertainty k = 0.255449
        44        13        14        45     9        0.000000       -0.470075         3    ;  uncertainty k = 0.270053
        44        13        14        45     9      180.000000        0.106023         4    ;  uncertainty k = 0.117776
        47        17        18        48     9        0.000000        0.029803         1    ;  uncertainty k = 0.527471
        47        17        18        48     9      180.000000        7.765194         2    ;  uncertainty k = 0.405104
        47        17        18        48     9        0.000000       -0.364689         3    ;  uncertainty k = 0.308168
        47        17        18        48     9      180.000000        0.241056         4    ;  uncertainty k = 0.183554

[ dihedrals ] ; impropers
;       ai        aj        ak        al funct           phase               k        pn
         9         8        10        14     4      180.000000       12.903618         2    ;  uncertainty k = 0.121797
         9        10        14         8     4      180.000000       12.903618         2    ;  uncertainty k = 0.121797
         9        14         8        10     4      180.000000       12.903618         2    ;  uncertainty k = 0.121797
        10         9        11        41     4      180.000000        4.073200         2    ;  uncertainty k = 0.089532
        10        11        41         9     4      180.000000        4.073200         2    ;  uncertainty k = 0.089532
        10        41         9        11     4      180.000000        4.073200         2    ;  uncertainty k = 0.089532
        11        10        12        42     4      180.000000        4.075594         2    ;  uncertainty k = 0.076312
        11        12        42        10     4      180.000000        4.075594         2    ;  uncertainty k = 0.076312
        11        42        10        12     4      180.000000        4.075594         2    ;  uncertainty k = 0.076312
        12        11        13        43     4      180.000000        4.286751         2    ;  uncertainty k = 0.163795
        12        13        43        11     4      180.000000        4.286751         2    ;  uncertainty k = 0.163795
        12        43        11        13     4      180.000000        4.286751         2    ;  uncertainty k = 0.163795
        13        12        14        44     4      180.000000        4.075594         2    ;  uncertainty k = 0.076312
        13        14        44        12     4      180.000000        4.075594         2    ;  uncertainty k = 0.076312
        13        44        12        14     4      180.000000        4.075594         2    ;  uncertainty k = 0.076312
        14         9        13        45     4      180.000000        4.073200         2    ;  uncertainty k = 0.089532
        14        13        45         9     4      180.000000        4.073200         2    ;  uncertainty k = 0.089532
        14        45         9        13     4      180.000000        4.073200         2    ;  uncertainty k = 0.089532
        16        15        17        25     4      180.000000       21.001474         2    ;  uncertainty k = 0.145691
        16        17        25        15     4      180.000000       21.001474         2    ;  uncertainty k = 0.145691
        16        25        15        17     4      180.000000       21.001474         2    ;  uncertainty k = 0.145691
        17        16        18        47     4      180.000000        1.853172         2    ;  uncertainty k = 0.420092
        17        18        47        16     4      180.000000        1.853172         2    ;  uncertainty k = 0.420092
        17        47        16        18     4      180.000000        1.853172         2    ;  uncertainty k = 0.420092
        18        17        19        48     4      180.000000        4.372421         2    ;  uncertainty k = 0.145358
        18        19        48        17     4      180.000000        4.372421         2    ;  uncertainty k = 0.145358
        18        48        17        19     4      180.000000        4.372421         2    ;  uncertainty k = 0.145358
        19        18        20        24     4      180.000000       12.714653         2    ;  uncertainty k = 0.097697
        19        20        24        18     4      180.000000       12.714653         2    ;  uncertainty k = 0.097697
        19        24        18        20     4      180.000000       12.714653         2    ;  uncertainty k = 0.097697
        24        19        25        58     4      180.000000        3.931580         2    ;  uncertainty k = 0.335388
        24        25        58        19     4      180.000000        3.931580         2    ;  uncertainty k = 0.335388
        24        58        19        25     4      180.000000        3.931580         2    ;  uncertainty k = 0.335388
        25        16        24        26     4      180.000000       10.637047         2    ;  uncertainty k = 0.252623
        25        24        26        16     4      180.000000       10.637047         2    ;  uncertainty k = 0.252623
        25        26        16        24     4      180.000000       10.637047         2    ;  uncertainty k = 0.252623

[ pairs ]
;       ai        aj funct
         1         4     1
         1        32     1
         1        33     1
         2         5     1
         2        27     1
         2        34     1
         3         6     1
         3        26     1
         3        28     1
         3        29     1
         3        30     1
         3        35     1
         3        36     1
         4         7     1
         4        25     1
         4        31     1
         4        37     1
         4        38     1
         4        59     1
         4        60     1
         5         8     1
         5        26     1
         5        32     1
         5        33     1
         5        39     1
         6         9     1
         6        15     1
         6        25     1
         6        27     1
         6        34     1
         6        40     1
         6        59     1
         7        10     1
         7        14     1
         7        16     1
         7        24     1
         7        35     1
         7        36     1
         7        46     1
         8        11     1
         8        13     1
         8        17     1
         8        25     1
         8        27     1
         8        37     1
         8        38     1
         8        41     1
         8        45     1
         8        59     1
         9        12     1
         9        16     1
         9        26     1
         9        39     1
         9        42     1
         9        44     1
         9        46     1
        10        13     1
        10        15     1
        10        40     1
        10        43     1
        10        45     1
        11        14     1
        11        44     1
        12        41     1
        12        45     1
        13        42     1
        14        15     1
        14        40     1
        14        41     1
        14        43     1
        15        18     1
        15        24     1
        15        26     1
        15        39     1
        15        47     1
        16        19     1
        16        27     1
        16        40     1
        16        48     1
        16        58     1
        16        59     1
        17        20     1
        17        24     1
        17        26     1
        17        46     1
        18        21     1
        18        22     1
        18        23     1
        18        25     1
        18        58     1
        19        26     1
        19        47     1
        19        49     1
        19        50     1
        19        51     1
        19        52     1
        19        53     1
        19        54     1
        19        55     1
        19        56     1
        19        57     1
        20        25     1
        20        48     1
        20        58     1
        21        24     1
        21        52     1
        21        53     1
        21        54     1
        21        55     1
        21        56     1
        21        57     1
        22        24     1
        22        49     1
        22        50     1
        22        51     1
        22        55     1
        22        56     1
        22        57     1
        23        24     1
        23        49     1
        23        50     1
        23        51     1
        23        52     1
        23        53     1
        23        54     1
        24        27     1
        24        48     1
        24        59     1
        25        39     1
        25        46     1
        25        47     1
        26        34     1
        26        37     1
        26        38     1
        26        40     1
        26        58     1
        27        32     1
        27        33     1
        27        35     1
        27        36     1
        27        39     1
        28        31     1
        28        60     1
        29        31     1
        29        60     1
        30        31     1
        30        60     1
        31        32     1
        31        33     1
        32        34     1
        32        60     1
        33        34     1
        33        60     1
        34        35     1
        34        36     1
        35        37     1
        35        38     1
        36        37     1
        36        38     1
        37        39     1
        38        39     1
        39        40     1
        39        59     1
        40        46     1
        41        42     1
        42        43     1
        43        44     1
        44        45     1
        47        48     1
