; ITP file created by ByteFF-joint-25, 2026-02-17 09:13:47.748097

[ atomtypes ]
;name           bonded.type        at.num        mass        charge   ptype           sigma         epsilon
 c0bf                                   6      0.0000       0.00000       A     3.39769e-01     4.50558e-01    ;  uncertainty sigma = 0.000008, epsilon = 0.001195
 n1bf                                   7      0.0000       0.00000       A     2.58884e-01     1.06541e+01    ;  uncertainty sigma = 0.000093, epsilon = 0.001176
 c2bf                                   6      0.0000       0.00000       A     3.39769e-01     4.50558e-01    ;  uncertainty sigma = 0.000008, epsilon = 0.001195
 c3bf                                   6      0.0000       0.00000       A     3.39780e-01     4.51192e-01    ;  uncertainty sigma = 0.000015, epsilon = 0.001139
 c4bf                                   6      0.0000       0.00000       A     3.39774e-01     4.51470e-01    ;  uncertainty sigma = 0.000024, epsilon = 0.001467
 c5bf                                   6      0.0000       0.00000       A     3.39759e-01     4.50508e-01    ;  uncertainty sigma = 0.000011, epsilon = 0.001249
 c6bf                                   6      0.0000       0.00000       A     3.31518e-01     4.13793e-01    ;  uncertainty sigma = 0.000008, epsilon = 0.001355
 o7bf                                   8      0.0000       0.00000       A     3.04818e-01     6.13037e-01    ;  uncertainty sigma = 0.000008, epsilon = 0.001208
 n8bf                                   7      0.0000       0.00000       A     3.27022e-01     4.90517e-01    ;  uncertainty sigma = 0.000026, epsilon = 0.001435
 c9bf                                   6      0.0000       0.00000       A     3.39762e-01     4.50702e-01    ;  uncertainty sigma = 0.000012, epsilon = 0.000359
 c10bf                                  6      0.0000       0.00000       A     3.39763e-01     4.51244e-01    ;  uncertainty sigma = 0.000008, epsilon = 0.001302
 c11bf                                  6      0.0000       0.00000       A     3.39788e-01     4.50768e-01    ;  uncertainty sigma = 0.000008, epsilon = 0.000726
 c12bf                                  6      0.0000       0.00000       A     3.39750e-01     4.51142e-01    ;  uncertainty sigma = 0.000011, epsilon = 0.000651
 c13bf                                  6      0.0000       0.00000       A     3.39755e-01     4.50973e-01    ;  uncertainty sigma = 0.000035, epsilon = 0.000615
 c14bf                                  6      0.0000       0.00000       A     3.39771e-01     4.51627e-01    ;  uncertainty sigma = 0.000010, epsilon = 0.001353
 c15bf                                  6      0.0000       0.00000       A     3.31532e-01     4.13295e-01    ;  uncertainty sigma = 0.000012, epsilon = 0.000849
 c16bf                                  6      0.0000       0.00000       A     3.31519e-01     4.13329e-01    ;  uncertainty sigma = 0.000002, epsilon = 0.000632
 c17bf                                  6      0.0000       0.00000       A     3.31520e-01     4.13328e-01    ;  uncertainty sigma = 0.000003, epsilon = 0.000582
 c18bf                                  6      0.0000       0.00000       A     3.31518e-01     4.13340e-01    ;  uncertainty sigma = 0.000003, epsilon = 0.000580
 c19bf                                  6      0.0000       0.00000       A     3.31520e-01     4.13328e-01    ;  uncertainty sigma = 0.000003, epsilon = 0.000582
 c20bf                                  6      0.0000       0.00000       A     3.31519e-01     4.13329e-01    ;  uncertainty sigma = 0.000002, epsilon = 0.000632
 n21bf                                  7      0.0000       0.00000       A     3.27940e-01     6.43754e-01    ;  uncertainty sigma = 0.000013, epsilon = 0.005170
 c22bf                                  6      0.0000       0.00000       A     3.31564e-01     4.13412e-01    ;  uncertainty sigma = 0.000018, epsilon = 0.001459
 c23bf                                  6      0.0000       0.00000       A     3.31515e-01     4.13145e-01    ;  uncertainty sigma = 0.000013, epsilon = 0.000511
 f24bf                                  9      0.0000       0.00000       A     3.03373e-01     3.48504e-01    ;  uncertainty sigma = 0.000030, epsilon = 0.000936
 c25bf                                  6      0.0000       0.00000       A     3.31517e-01     4.13235e-01    ;  uncertainty sigma = 0.000010, epsilon = 0.000673
 c26bf                                  6      0.0000       0.00000       A     3.31502e-01     4.13225e-01    ;  uncertainty sigma = 0.000004, epsilon = 0.000605
 br27bf                                35      0.0000       0.00000       A     3.61266e-01     1.64607e+00    ;  uncertainty sigma = 0.000021, epsilon = 0.001033
 c28bf                                  6      0.0000       0.00000       A     3.31515e-01     4.13371e-01    ;  uncertainty sigma = 0.000005, epsilon = 0.000826
 c29bf                                  6      0.0000       0.00000       A     3.31542e-01     4.13616e-01    ;  uncertainty sigma = 0.000016, epsilon = 0.000603
 c30bf                                  6      0.0000       0.00000       A     3.39758e-01     4.50778e-01    ;  uncertainty sigma = 0.000019, epsilon = 0.001630
 o31bf                                  8      0.0000       0.00000       A     3.15653e-01     3.03499e-01    ;  uncertainty sigma = 0.000034, epsilon = 0.001279
 h32bf                                  1      0.0000       0.00000       A     1.88754e-01     8.64620e-02    ;  uncertainty sigma = 0.000044, epsilon = 0.000601
 h33bf                                  1      0.0000       0.00000       A     1.88754e-01     8.64620e-02    ;  uncertainty sigma = 0.000044, epsilon = 0.000601
 h34bf                                  1      0.0000       0.00000       A     1.88754e-01     8.64620e-02    ;  uncertainty sigma = 0.000044, epsilon = 0.000601
 h35bf                                  1      0.0000       0.00000       A     1.88754e-01     8.64620e-02    ;  uncertainty sigma = 0.000044, epsilon = 0.000601
 h36bf                                  1      0.0000       0.00000       A     1.88754e-01     8.64620e-02    ;  uncertainty sigma = 0.000044, epsilon = 0.000601
 h37bf                                  1      0.0000       0.00000       A     1.88754e-01     8.64620e-02    ;  uncertainty sigma = 0.000044, epsilon = 0.000601
 h38bf                                  1      0.0000       0.00000       A     1.88725e-01     8.62400e-02    ;  uncertainty sigma = 0.000050, epsilon = 0.001123
 h39bf                                  1      0.0000       0.00000       A     1.88725e-01     8.62400e-02    ;  uncertainty sigma = 0.000050, epsilon = 0.001123
 h40bf                                  1      0.0000       0.00000       A     2.60074e-01     8.67775e-02    ;  uncertainty sigma = 0.000031, epsilon = 0.000805
 h41bf                                  1      0.0000       0.00000       A     2.60074e-01     8.67775e-02    ;  uncertainty sigma = 0.000031, epsilon = 0.000805
 h42bf                                  1      0.0000       0.00000       A     2.60034e-01     8.71032e-02    ;  uncertainty sigma = 0.000031, epsilon = 0.001606
 h43bf                                  1      0.0000       0.00000       A     2.60034e-01     8.71032e-02    ;  uncertainty sigma = 0.000031, epsilon = 0.001606
 h44bf                                  1      0.0000       0.00000       A     1.10650e-01     4.10182e-02    ;  uncertainty sigma = 0.000063, epsilon = 0.001087
 h45bf                                  1      0.0000       0.00000       A     2.42187e-01     8.66828e-02    ;  uncertainty sigma = 0.000018, epsilon = 0.000573
 h46bf                                  1      0.0000       0.00000       A     2.42187e-01     8.66828e-02    ;  uncertainty sigma = 0.000018, epsilon = 0.000573
 h47bf                                  1      0.0000       0.00000       A     2.42212e-01     8.72057e-02    ;  uncertainty sigma = 0.000050, epsilon = 0.001067
 h48bf                                  1      0.0000       0.00000       A     2.60026e-01     8.66992e-02    ;  uncertainty sigma = 0.000012, epsilon = 0.000652
 h49bf                                  1      0.0000       0.00000       A     2.60026e-01     8.66992e-02    ;  uncertainty sigma = 0.000012, epsilon = 0.000652
 h50bf                                  1      0.0000       0.00000       A     2.60028e-01     8.66832e-02    ;  uncertainty sigma = 0.000010, epsilon = 0.000720
 h51bf                                  1      0.0000       0.00000       A     2.60028e-01     8.66832e-02    ;  uncertainty sigma = 0.000010, epsilon = 0.000720
 h52bf                                  1      0.0000       0.00000       A     2.59938e-01     8.64077e-02    ;  uncertainty sigma = 0.000052, epsilon = 0.000980
 h53bf                                  1      0.0000       0.00000       A     2.42303e-01     8.69597e-02    ;  uncertainty sigma = 0.000074, epsilon = 0.001557
 h54bf                                  1      0.0000       0.00000       A     2.62560e-01     6.70315e-02    ;  uncertainty sigma = 0.000006, epsilon = 0.000529
 h55bf                                  1      0.0000       0.00000       A     2.62559e-01     6.70249e-02    ;  uncertainty sigma = 0.000010, epsilon = 0.000440
 h56bf                                  1      0.0000       0.00000       A     2.62552e-01     6.70647e-02    ;  uncertainty sigma = 0.000011, epsilon = 0.000453
 h57bf                                  1      0.0000       0.00000       A     2.62559e-01     6.70249e-02    ;  uncertainty sigma = 0.000010, epsilon = 0.000440
 h58bf                                  1      0.0000       0.00000       A     2.62560e-01     6.70315e-02    ;  uncertainty sigma = 0.000006, epsilon = 0.000529
 h59bf                                  1      0.0000       0.00000       A     1.10680e-01     4.07052e-02    ;  uncertainty sigma = 0.000120, epsilon = 0.001586
 h60bf                                  1      0.0000       0.00000       A     2.62568e-01     6.72500e-02    ;  uncertainty sigma = 0.000019, epsilon = 0.000565
 h61bf                                  1      0.0000       0.00000       A     2.62541e-01     6.70362e-02    ;  uncertainty sigma = 0.000008, epsilon = 0.000583
 h62bf                                  1      0.0000       0.00000       A     2.42239e-01     8.76589e-02    ;  uncertainty sigma = 0.000274, epsilon = 0.002166
 h63bf                                  1      0.0000       0.00000       A     1.10713e-01     4.17135e-02    ;  uncertainty sigma = 0.000108, epsilon = 0.000765

[ moleculetype ]
;name             nrexcl
 MOL                   3

[ atoms ]
;       nr            type      resi   res      atom      cgnr      charge          mass ; qtot
         1            c0bf         1   UNL        c0         1     0.11274       12.0110 ; qtot    0.113
         2            n1bf         1   UNL        n1         2    -0.71153       14.0070 ; qtot   -0.599
         3            c2bf         1   UNL        c2         3     0.11274       12.0110 ; qtot   -0.486
         4            c3bf         1   UNL        c3         4     0.13247       12.0110 ; qtot   -0.354
         5            c4bf         1   UNL        c4         5    -0.08571       12.0110 ; qtot   -0.439
         6            c5bf         1   UNL        c5         6    -0.16750       12.0110 ; qtot   -0.607
         7            c6bf         1   UNL        c6         7     0.66613       12.0110 ; qtot    0.059
         8            o7bf         1   UNL        o7         8    -0.61275       15.9990 ; qtot   -0.553
         9            n8bf         1   UNL        n8         9    -0.56655       14.0070 ; qtot   -1.120
        10            c9bf         1   UNL        c9        10     0.09473       12.0110 ; qtot   -1.025
        11           c10bf         1   UNL       c10        11     0.11906       12.0110 ; qtot   -0.906
        12           c11bf         1   UNL       c11        12    -0.10296       12.0110 ; qtot   -1.009
        13           c12bf         1   UNL       c12        13    -0.06725       12.0110 ; qtot   -1.076
        14           c13bf         1   UNL       c13        14    -0.09436       12.0110 ; qtot   -1.171
        15           c14bf         1   UNL       c14        15     0.26381       12.0110 ; qtot   -0.907
        16           c15bf         1   UNL       c15        16    -0.10622       12.0110 ; qtot   -1.013
        17           c16bf         1   UNL       c16        17    -0.11888       12.0110 ; qtot   -1.132
        18           c17bf         1   UNL       c17        18    -0.13078       12.0110 ; qtot   -1.263
        19           c18bf         1   UNL       c18        19    -0.12452       12.0110 ; qtot   -1.387
        20           c19bf         1   UNL       c19        20    -0.13078       12.0110 ; qtot   -1.518
        21           c20bf         1   UNL       c20        21    -0.11888       12.0110 ; qtot   -1.637
        22           n21bf         1   UNL       n21        22    -0.73441       14.0070 ; qtot   -2.371
        23           c22bf         1   UNL       c22        23     0.15209       12.0110 ; qtot   -2.219
        24           c23bf         1   UNL       c23        24     0.06343       12.0110 ; qtot   -2.156
        25           f24bf         1   UNL       f24        25    -0.14897       18.9980 ; qtot   -2.305
        26           c25bf         1   UNL       c25        26    -0.09065       12.0110 ; qtot   -2.396
        27           c26bf         1   UNL       c26        27    -0.02779       12.0110 ; qtot   -2.423
        28          br27bf         1   UNL      br27        28    -0.09133       79.9040 ; qtot   -2.515
        29           c28bf         1   UNL       c28        29    -0.05324       12.0110 ; qtot   -2.568
        30           c29bf         1   UNL       c29        30    -0.13331       12.0110 ; qtot   -2.701
        31           c30bf         1   UNL       c30        31     0.19984       12.0110 ; qtot   -2.501
        32           o31bf         1   UNL       o31        32    -0.41694       15.9990 ; qtot   -2.918
        33           h32bf         1   UNL       h32        33     0.10248        1.0080 ; qtot   -2.816
        34           h33bf         1   UNL       h33        34     0.10248        1.0080 ; qtot   -2.713
        35           h34bf         1   UNL       h34        35     0.10248        1.0080 ; qtot   -2.611
        36           h35bf         1   UNL       h35        36     0.10248        1.0080 ; qtot   -2.508
        37           h36bf         1   UNL       h36        37     0.10248        1.0080 ; qtot   -2.406
        38           h37bf         1   UNL       h37        38     0.10248        1.0080 ; qtot   -2.303
        39           h38bf         1   UNL       h38        39     0.10100        1.0080 ; qtot   -2.202
        40           h39bf         1   UNL       h39        40     0.10100        1.0080 ; qtot   -2.101
        41           h40bf         1   UNL       h40        41     0.08343        1.0080 ; qtot   -2.018
        42           h41bf         1   UNL       h41        42     0.08343        1.0080 ; qtot   -1.935
        43           h42bf         1   UNL       h42        43     0.08015        1.0080 ; qtot   -1.854
        44           h43bf         1   UNL       h43        44     0.08015        1.0080 ; qtot   -1.774
        45           h44bf         1   UNL       h44        45     0.32260        1.0080 ; qtot   -1.452
        46           h45bf         1   UNL       h45        46     0.06796        1.0080 ; qtot   -1.384
        47           h46bf         1   UNL       h46        47     0.06796        1.0080 ; qtot   -1.316
        48           h47bf         1   UNL       h47        48     0.05544        1.0080 ; qtot   -1.260
        49           h48bf         1   UNL       h48        49     0.05461        1.0080 ; qtot   -1.206
        50           h49bf         1   UNL       h49        50     0.05461        1.0080 ; qtot   -1.151
        51           h50bf         1   UNL       h50        51     0.04984        1.0080 ; qtot   -1.101
        52           h51bf         1   UNL       h51        52     0.04984        1.0080 ; qtot   -1.051
        53           h52bf         1   UNL       h52        53     0.06904        1.0080 ; qtot   -0.982
        54           h53bf         1   UNL       h53        54     0.05551        1.0080 ; qtot   -0.927
        55           h54bf         1   UNL       h54        55     0.13512        1.0080 ; qtot   -0.792
        56           h55bf         1   UNL       h55        56     0.13172        1.0080 ; qtot   -0.660
        57           h56bf         1   UNL       h56        57     0.13373        1.0080 ; qtot   -0.526
        58           h57bf         1   UNL       h57        58     0.13172        1.0080 ; qtot   -0.395
        59           h58bf         1   UNL       h58        59     0.13512        1.0080 ; qtot   -0.259
        60           h59bf         1   UNL       h59        60     0.42097        1.0080 ; qtot    0.162
        61           h60bf         1   UNL       h60        61     0.17075        1.0080 ; qtot    0.332
        62           h61bf         1   UNL       h61        62     0.15631        1.0080 ; qtot    0.489
        63           h62bf         1   UNL       h62        63     0.06076        1.0080 ; qtot    0.549
        64           h63bf         1   UNL       h63        64     0.45062        1.0080 ; qtot    1.000

[ bonds ]
;       ai        aj funct               r               k
         1         2     1        0.150370   207155.167041    ;  uncertainty r = 0.000055, k = 15.850764
         1        33     1        0.108982   314172.586426    ;  uncertainty r = 0.000020, k = 1.327852
         1        34     1        0.108982   314172.586426    ;  uncertainty r = 0.000020, k = 1.327852
         1        35     1        0.108982   314172.586426    ;  uncertainty r = 0.000020, k = 1.327852
         2         3     1        0.150370   207155.167041    ;  uncertainty r = 0.000055, k = 15.850764
         2         4     1        0.151909   189643.656104    ;  uncertainty r = 0.000145, k = 19.827475
         2        64     1        0.102620   382481.187402    ;  uncertainty r = 0.000094, k = 8.950131
         3        36     1        0.108982   314172.586426    ;  uncertainty r = 0.000020, k = 1.327852
         3        37     1        0.108982   314172.586426    ;  uncertainty r = 0.000020, k = 1.327852
         3        38     1        0.108982   314172.586426    ;  uncertainty r = 0.000020, k = 1.327852
         4         5     1        0.152896   203042.058057    ;  uncertainty r = 0.000106, k = 6.999765
         4        39     1        0.109102   311271.979395    ;  uncertainty r = 0.000030, k = 1.452224
         4        40     1        0.109102   311271.979395    ;  uncertainty r = 0.000030, k = 1.452224
         5         6     1        0.152632   203281.902588    ;  uncertainty r = 0.000061, k = 9.048033
         5        41     1        0.109487   311839.822559    ;  uncertainty r = 0.000033, k = 2.389350
         5        42     1        0.109487   311839.822559    ;  uncertainty r = 0.000033, k = 2.389350
         6         7     1        0.152608   208649.930664    ;  uncertainty r = 0.000213, k = 9.228015
         6        43     1        0.109650   314789.154395    ;  uncertainty r = 0.000031, k = 3.781702
         6        44     1        0.109650   314789.154395    ;  uncertainty r = 0.000031, k = 3.781702
         7         8     1        0.124147   695351.636621    ;  uncertainty r = 0.000091, k = 21.238391
         7         9     1        0.136822   321260.666504    ;  uncertainty r = 0.000646, k = 29.163560
         9        10     1        0.145072   266491.100342    ;  uncertainty r = 0.000077, k = 8.343458
         9        45     1        0.101568   419428.762451    ;  uncertainty r = 0.000061, k = 2.690705
        10        11     1        0.152789   203777.756641    ;  uncertainty r = 0.000070, k = 6.648903
        10        46     1        0.109450   307749.901270    ;  uncertainty r = 0.000023, k = 1.147379
        10        47     1        0.109450   307749.901270    ;  uncertainty r = 0.000023, k = 1.147379
        11        12     1        0.152854   206008.652979    ;  uncertainty r = 0.000053, k = 5.801025
        11        32     1        0.142883   236131.690918    ;  uncertainty r = 0.000165, k = 8.835544
        11        48     1        0.110039   305189.984814    ;  uncertainty r = 0.000059, k = 3.283096
        12        13     1        0.153377   213759.293359    ;  uncertainty r = 0.000058, k = 3.220313
        12        49     1        0.109674   309921.015234    ;  uncertainty r = 0.000019, k = 0.774029
        12        50     1        0.109674   309921.015234    ;  uncertainty r = 0.000019, k = 0.774029
        13        14     1        0.153242   204627.159204    ;  uncertainty r = 0.000107, k = 8.446566
        13        51     1        0.109603   307691.242529    ;  uncertainty r = 0.000022, k = 1.054570
        13        52     1        0.109603   307691.268066    ;  uncertainty r = 0.000022, k = 1.054589
        14        15     1        0.153800   193320.744482    ;  uncertainty r = 0.000040, k = 8.694137
        14        31     1        0.153392   193885.727490    ;  uncertainty r = 0.000147, k = 10.367243
        14        53     1        0.109712   307584.676172    ;  uncertainty r = 0.000061, k = 3.997520
        15        16     1        0.151694   221715.481934    ;  uncertainty r = 0.000083, k = 6.119503
        15        22     1        0.146412   245465.070264    ;  uncertainty r = 0.000056, k = 13.015779
        15        54     1        0.110029   298346.754541    ;  uncertainty r = 0.000122, k = 4.232422
        16        17     1        0.139859   350947.632764    ;  uncertainty r = 0.000040, k = 0.862444
        16        21     1        0.139859   350947.632764    ;  uncertainty r = 0.000040, k = 0.862444
        17        18     1        0.139620   365997.698340    ;  uncertainty r = 0.000023, k = 1.204462
        17        55     1        0.108883   334327.852148    ;  uncertainty r = 0.000023, k = 0.510237
        18        19     1        0.139607   371240.977637    ;  uncertainty r = 0.000016, k = 0.703160
        18        56     1        0.108851   333986.906201    ;  uncertainty r = 0.000010, k = 1.017361
        19        20     1        0.139607   371240.977637    ;  uncertainty r = 0.000016, k = 0.703160
        19        57     1        0.108841   334518.920801    ;  uncertainty r = 0.000012, k = 0.635600
        20        21     1        0.139620   365997.698340    ;  uncertainty r = 0.000023, k = 1.204462
        20        58     1        0.108851   333986.906201    ;  uncertainty r = 0.000010, k = 1.017361
        21        59     1        0.108883   334327.852148    ;  uncertainty r = 0.000023, k = 0.510247
        22        23     1        0.138715   338410.137842    ;  uncertainty r = 0.000196, k = 8.125748
        22        60     1        0.101386   413993.878223    ;  uncertainty r = 0.000059, k = 1.811296
        23        24     1        0.140025   355452.455469    ;  uncertainty r = 0.000066, k = 5.609969
        23        30     1        0.140502   349651.981982    ;  uncertainty r = 0.000151, k = 20.785022
        24        25     1        0.136330   329964.045361    ;  uncertainty r = 0.000077, k = 7.580977
        24        26     1        0.138317   356654.742578    ;  uncertainty r = 0.000052, k = 9.468655
        26        27     1        0.139545   367292.940527    ;  uncertainty r = 0.000085, k = 1.181457
        26        61     1        0.108655   337506.890283    ;  uncertainty r = 0.000010, k = 1.171451
        27        28     1        0.191468   162338.484961    ;  uncertainty r = 0.000081, k = 1.510645
        27        29     1        0.139306   354828.251904    ;  uncertainty r = 0.000051, k = 4.899986
        29        30     1        0.139297   352459.250879    ;  uncertainty r = 0.000123, k = 4.267012
        29        62     1        0.108709   335543.265332    ;  uncertainty r = 0.000039, k = 1.690866
        30        31     1        0.151022   220842.853369    ;  uncertainty r = 0.000134, k = 8.087633
        31        32     1        0.142971   228187.887842    ;  uncertainty r = 0.000169, k = 9.494988
        31        63     1        0.110054   305135.233252    ;  uncertainty r = 0.000104, k = 4.042185

[ angles ]
;       ai        aj        ak funct           theta             cth
         1         2         3     1      111.610397      715.551082    ;  uncertainty theta = 0.001248, k = 0.162640
         1         2         4     1      111.587967      651.142533    ;  uncertainty theta = 0.001966, k = 0.225193
         1         2        64     1      106.247963      462.433638    ;  uncertainty theta = 0.001876, k = 0.172960
         2         1        33     1      107.959373      471.024577    ;  uncertainty theta = 0.002363, k = 0.062672
         2         1        34     1      107.959373      471.024577    ;  uncertainty theta = 0.002363, k = 0.062672
         2         1        35     1      107.959373      471.024577    ;  uncertainty theta = 0.002363, k = 0.062672
         2         3        36     1      107.959373      471.024577    ;  uncertainty theta = 0.002363, k = 0.062672
         2         3        37     1      107.959373      471.024577    ;  uncertainty theta = 0.002363, k = 0.062672
         2         3        38     1      107.959373      471.024577    ;  uncertainty theta = 0.002363, k = 0.062672
         2         4         5     1      111.186935      674.944588    ;  uncertainty theta = 0.002394, k = 0.203096
         2         4        39     1      105.530838      464.466839    ;  uncertainty theta = 0.000908, k = 0.077461
         2         4        40     1      105.530838      464.466839    ;  uncertainty theta = 0.000908, k = 0.077461
         3         2         4     1      111.587967      651.142533    ;  uncertainty theta = 0.001966, k = 0.225193
         3         2        64     1      106.247963      462.433638    ;  uncertainty theta = 0.001876, k = 0.172960
         4         2        64     1      106.215355      446.429946    ;  uncertainty theta = 0.002969, k = 0.044489
         4         5         6     1      109.719749      523.468159    ;  uncertainty theta = 0.002941, k = 0.119609
         4         5        41     1      107.030106      400.604753    ;  uncertainty theta = 0.002881, k = 0.037368
         4         5        42     1      107.030106      400.604753    ;  uncertainty theta = 0.002881, k = 0.037368
         5         4        39     1      109.895775      400.570693    ;  uncertainty theta = 0.003148, k = 0.059651
         5         4        40     1      109.895775      400.570693    ;  uncertainty theta = 0.003148, k = 0.059651
         5         6         7     1      108.259544      485.964360    ;  uncertainty theta = 0.004370, k = 0.129078
         5         6        43     1      107.816689      392.863561    ;  uncertainty theta = 0.003127, k = 0.072320
         5         6        44     1      107.816689      392.863561    ;  uncertainty theta = 0.003127, k = 0.072320
         6         5        41     1      107.176071      397.954671    ;  uncertainty theta = 0.001383, k = 0.072152
         6         5        42     1      107.176071      397.954671    ;  uncertainty theta = 0.001383, k = 0.072152
         6         7         8     1      124.641212      551.394712    ;  uncertainty theta = 0.010656, k = 0.165030
         6         7         9     1      114.455971      492.230848    ;  uncertainty theta = 0.004432, k = 0.131707
         7         6        43     1      107.573196      369.550925    ;  uncertainty theta = 0.003058, k = 0.130341
         7         6        44     1      107.573196      369.550925    ;  uncertainty theta = 0.003058, k = 0.130341
         7         9        10     1      116.199196      424.378652    ;  uncertainty theta = 0.002809, k = 0.095222
         7         9        45     1      114.464005      342.514245    ;  uncertainty theta = 0.003012, k = 0.087535
         8         7         9     1      124.541405      757.075315    ;  uncertainty theta = 0.001672, k = 0.045974
         9        10        11     1      110.033730      592.606307    ;  uncertainty theta = 0.003400, k = 0.089628
         9        10        46     1      107.306786      453.093089    ;  uncertainty theta = 0.001040, k = 0.068579
         9        10        47     1      107.306786      453.093089    ;  uncertainty theta = 0.001040, k = 0.068579
        10         9        45     1      112.326942      320.926769    ;  uncertainty theta = 0.003574, k = 0.122946
        10        11        12     1      111.556961      553.707480    ;  uncertainty theta = 0.000760, k = 0.126777
        10        11        32     1      106.660416      566.705933    ;  uncertainty theta = 0.002615, k = 0.052181
        10        11        48     1      107.706131      396.958596    ;  uncertainty theta = 0.002554, k = 0.084619
        11        10        46     1      108.081017      392.790174    ;  uncertainty theta = 0.001371, k = 0.038329
        11        10        47     1      108.081017      392.790174    ;  uncertainty theta = 0.001371, k = 0.038329
        11        12        13     1      109.249672      594.334468    ;  uncertainty theta = 0.002313, k = 0.076902
        11        12        49     1      107.705811      382.992383    ;  uncertainty theta = 0.001587, k = 0.073184
        11        12        50     1      107.705811      382.992383    ;  uncertainty theta = 0.001587, k = 0.073184
        11        32        31     1      110.684914      506.797151    ;  uncertainty theta = 0.006061, k = 0.179011
        12        11        32     1      110.358376      683.881108    ;  uncertainty theta = 0.002374, k = 0.160963
        12        11        48     1      109.345970      400.586398    ;  uncertainty theta = 0.001266, k = 0.069225
        12        13        14     1      109.531601      575.016155    ;  uncertainty theta = 0.001887, k = 0.111836
        12        13        51     1      108.687294      404.607695    ;  uncertainty theta = 0.001709, k = 0.090417
        12        13        52     1      108.687294      404.607695    ;  uncertainty theta = 0.001709, k = 0.090417
        13        12        49     1      109.048744      398.454911    ;  uncertainty theta = 0.000871, k = 0.054277
        13        12        50     1      109.048744      398.454911    ;  uncertainty theta = 0.000871, k = 0.054277
        13        14        15     1      110.627304      548.421809    ;  uncertainty theta = 0.001519, k = 0.165951
        13        14        31     1      109.700661      585.151834    ;  uncertainty theta = 0.001435, k = 0.107509
        13        14        53     1      108.033615      400.292593    ;  uncertainty theta = 0.002769, k = 0.102571
        14        13        51     1      108.106857      388.738073    ;  uncertainty theta = 0.001573, k = 0.068099
        14        13        52     1      108.106857      388.738073    ;  uncertainty theta = 0.001573, k = 0.068099
        14        15        16     1      111.710739      536.791444    ;  uncertainty theta = 0.002579, k = 0.172522
        14        15        22     1      108.273865      704.451505    ;  uncertainty theta = 0.003996, k = 0.104661
        14        15        54     1      107.093971      386.028905    ;  uncertainty theta = 0.002703, k = 0.126280
        14        31        30     1      111.658630      555.301698    ;  uncertainty theta = 0.005520, k = 0.248315
        14        31        32     1      111.104248      662.276202    ;  uncertainty theta = 0.005416, k = 0.100808
        14        31        63     1      107.907471      393.732333    ;  uncertainty theta = 0.003913, k = 0.118470
        15        14        31     1      109.574440      551.393818    ;  uncertainty theta = 0.004365, k = 0.133838
        15        14        53     1      105.919556      390.293698    ;  uncertainty theta = 0.001590, k = 0.089845
        15        16        17     1      119.869118      424.511222    ;  uncertainty theta = 0.003274, k = 0.143273
        15        16        21     1      119.869118      424.511222    ;  uncertainty theta = 0.003274, k = 0.143273
        15        22        23     1      113.560837      394.461514    ;  uncertainty theta = 0.004658, k = 0.146825
        15        22        60     1      110.517822      342.921051    ;  uncertainty theta = 0.003889, k = 0.119522
        16        15        22     1      110.952232      663.025206    ;  uncertainty theta = 0.001005, k = 0.195907
        16        15        54     1      106.363998      410.332508    ;  uncertainty theta = 0.001972, k = 0.092032
        16        17        18     1      121.166641      520.322945    ;  uncertainty theta = 0.001889, k = 0.047519
        16        17        55     1      118.895851      266.730000    ;  uncertainty theta = 0.002264, k = 0.064094
        16        21        20     1      121.166641      520.322945    ;  uncertainty theta = 0.001889, k = 0.047519
        16        21        59     1      118.895851      266.730000    ;  uncertainty theta = 0.002264, k = 0.064094
        17        16        21     1      120.206970      460.017476    ;  uncertainty theta = 0.003029, k = 0.098153
        17        18        19     1      119.685776      513.267201    ;  uncertainty theta = 0.000971, k = 0.012607
        17        18        56     1      120.211227      283.897609    ;  uncertainty theta = 0.001315, k = 0.018226
        18        17        55     1      120.235497      292.477280    ;  uncertainty theta = 0.001696, k = 0.031107
        18        19        20     1      118.246803      526.555213    ;  uncertainty theta = 0.000903, k = 0.024014
        18        19        57     1      120.647278      289.320829    ;  uncertainty theta = 0.001403, k = 0.006566
        19        18        56     1      120.620949      287.638700    ;  uncertainty theta = 0.001444, k = 0.012507
        19        20        21     1      119.685776      513.267201    ;  uncertainty theta = 0.000971, k = 0.012607
        19        20        58     1      120.620949      287.638700    ;  uncertainty theta = 0.001444, k = 0.012507
        20        19        57     1      120.647278      289.320829    ;  uncertainty theta = 0.001403, k = 0.006566
        20        21        59     1      120.235497      292.477280    ;  uncertainty theta = 0.001696, k = 0.031107
        21        20        58     1      120.211227      283.897609    ;  uncertainty theta = 0.001315, k = 0.018226
        22        15        54     1      107.718811      454.950307    ;  uncertainty theta = 0.004217, k = 0.106072
        22        23        24     1      121.037674      489.796203    ;  uncertainty theta = 0.004792, k = 0.295984
        22        23        30     1      123.093407      486.515291    ;  uncertainty theta = 0.010873, k = 0.287986
        23        22        60     1      111.821854      374.016185    ;  uncertainty theta = 0.005086, k = 0.141288
        23        24        25     1      115.949234      451.024487    ;  uncertainty theta = 0.002877, k = 0.265914
        23        24        26     1      124.355873      367.850824    ;  uncertainty theta = 0.001697, k = 0.147517
        23        30        29     1      121.983681      460.234541    ;  uncertainty theta = 0.005139, k = 0.158067
        23        30        31     1      119.443703      363.464123    ;  uncertainty theta = 0.007580, k = 0.423835
        24        23        30     1      117.610802      364.299889    ;  uncertainty theta = 0.009059, k = 0.291735
        24        26        27     1      117.952248      472.090240    ;  uncertainty theta = 0.002067, k = 0.086641
        24        26        61     1      120.341690      277.358194    ;  uncertainty theta = 0.001024, k = 0.084775
        25        24        26     1      119.427536      515.838277    ;  uncertainty theta = 0.002219, k = 0.137228
        26        27        28     1      119.638306      407.208362    ;  uncertainty theta = 0.002846, k = 0.057598
        26        27        29     1      121.726784      381.530639    ;  uncertainty theta = 0.003225, k = 0.205824
        27        26        61     1      122.663406      282.606197    ;  uncertainty theta = 0.001561, k = 0.051194
        27        29        30     1      120.531639      496.211508    ;  uncertainty theta = 0.004158, k = 0.075950
        27        29        62     1      120.944557      291.224142    ;  uncertainty theta = 0.001158, k = 0.097624
        28        27        29     1      120.038315      387.809544    ;  uncertainty theta = 0.002664, k = 0.116963
        29        30        31     1      119.400368      405.144612    ;  uncertainty theta = 0.003363, k = 0.147937
        30        29        62     1      118.930466      263.813359    ;  uncertainty theta = 0.003255, k = 0.113867
        30        31        32     1      108.838699      644.888815    ;  uncertainty theta = 0.007652, k = 0.324893
        30        31        63     1      108.337769      392.226250    ;  uncertainty theta = 0.003988, k = 0.083193
        31        14        53     1      106.383080      399.064514    ;  uncertainty theta = 0.002863, k = 0.087109
        32        11        48     1      106.793991      456.702951    ;  uncertainty theta = 0.005276, k = 0.169468
        32        31        63     1      106.441330      449.546176    ;  uncertainty theta = 0.002312, k = 0.169596
        33         1        34     1      108.453964      318.843739    ;  uncertainty theta = 0.003157, k = 0.041407
        33         1        35     1      108.453964      318.843739    ;  uncertainty theta = 0.003157, k = 0.041407
        34         1        35     1      108.453964      318.843739    ;  uncertainty theta = 0.003157, k = 0.041407
        36         3        37     1      108.453964      318.843739    ;  uncertainty theta = 0.003157, k = 0.041407
        36         3        38     1      108.453964      318.843739    ;  uncertainty theta = 0.003157, k = 0.041407
        37         3        38     1      108.453964      318.843739    ;  uncertainty theta = 0.003157, k = 0.041407
        39         4        40     1      107.764969      320.029012    ;  uncertainty theta = 0.004291, k = 0.079420
        41         5        42     1      105.560974      326.639452    ;  uncertainty theta = 0.002201, k = 0.032464
        43         6        44     1      105.709396      323.241133    ;  uncertainty theta = 0.003381, k = 0.043800
        46        10        47     1      106.306557      322.795702    ;  uncertainty theta = 0.001670, k = 0.032386
        49        12        50     1      105.185692      314.068682    ;  uncertainty theta = 0.000993, k = 0.026189
        51        13        52     1      104.585793      315.269022    ;  uncertainty theta = 0.002093, k = 0.030266

[ dihedrals ] ; propers for gromacs 4.5 or higher, use funct 9
;       ai        aj        ak        al funct           phase               k        pn
         1         2         3        36     9        0.000000       -0.650767         1    ;  uncertainty k = 0.568522
         1         2         3        36     9      180.000000       -0.652928         2    ;  uncertainty k = 0.374442
         1         2         3        36     9        0.000000        1.224733         3    ;  uncertainty k = 0.066375
         1         2         3        36     9      180.000000       -0.020427         4    ;  uncertainty k = 0.106441
         1         2         3        37     9        0.000000       -0.650767         1    ;  uncertainty k = 0.568522
         1         2         3        37     9      180.000000       -0.652928         2    ;  uncertainty k = 0.374442
         1         2         3        37     9        0.000000        1.224733         3    ;  uncertainty k = 0.066375
         1         2         3        37     9      180.000000       -0.020427         4    ;  uncertainty k = 0.106441
         1         2         3        38     9        0.000000       -0.650767         1    ;  uncertainty k = 0.568522
         1         2         3        38     9      180.000000       -0.652928         2    ;  uncertainty k = 0.374442
         1         2         3        38     9        0.000000        1.224733         3    ;  uncertainty k = 0.066375
         1         2         3        38     9      180.000000       -0.020427         4    ;  uncertainty k = 0.106441
         1         2         4         5     9        0.000000       -1.716445         1    ;  uncertainty k = 0.728830
         1         2         4         5     9      180.000000        0.598078         2    ;  uncertainty k = 0.591179
         1         2         4         5     9        0.000000        1.170927         3    ;  uncertainty k = 0.237108
         1         2         4         5     9      180.000000       -0.149566         4    ;  uncertainty k = 0.078183
         1         2         4        39     9        0.000000       -0.430567         1    ;  uncertainty k = 0.362286
         1         2         4        39     9      180.000000       -0.402958         2    ;  uncertainty k = 0.331385
         1         2         4        39     9        0.000000        0.933060         3    ;  uncertainty k = 0.082884
         1         2         4        39     9      180.000000       -0.006680         4    ;  uncertainty k = 0.150092
         1         2         4        40     9        0.000000       -0.430567         1    ;  uncertainty k = 0.362286
         1         2         4        40     9      180.000000       -0.402958         2    ;  uncertainty k = 0.331385
         1         2         4        40     9        0.000000        0.933060         3    ;  uncertainty k = 0.082884
         1         2         4        40     9      180.000000       -0.006680         4    ;  uncertainty k = 0.150092
         2         4         5         6     9        0.000000       -0.991549         1    ;  uncertainty k = 1.621599
         2         4         5         6     9      180.000000       -2.656220         2    ;  uncertainty k = 0.313143
         2         4         5         6     9        0.000000        1.973380         3    ;  uncertainty k = 0.100848
         2         4         5         6     9      180.000000       -0.501174         4    ;  uncertainty k = 0.176159
         2         4         5        41     9        0.000000        0.590006         1    ;  uncertainty k = 0.455294
         2         4         5        41     9      180.000000       -2.474899         2    ;  uncertainty k = 0.341978
         2         4         5        41     9        0.000000        1.067273         3    ;  uncertainty k = 0.264733
         2         4         5        41     9      180.000000       -0.145157         4    ;  uncertainty k = 0.118512
         2         4         5        42     9        0.000000        0.590006         1    ;  uncertainty k = 0.455294
         2         4         5        42     9      180.000000       -2.474899         2    ;  uncertainty k = 0.341978
         2         4         5        42     9        0.000000        1.067273         3    ;  uncertainty k = 0.264733
         2         4         5        42     9      180.000000       -0.145157         4    ;  uncertainty k = 0.118512
         3         2         1        33     9        0.000000       -0.650767         1    ;  uncertainty k = 0.568522
         3         2         1        33     9      180.000000       -0.652928         2    ;  uncertainty k = 0.374442
         3         2         1        33     9        0.000000        1.224733         3    ;  uncertainty k = 0.066375
         3         2         1        33     9      180.000000       -0.020427         4    ;  uncertainty k = 0.106441
         3         2         1        34     9        0.000000       -0.650767         1    ;  uncertainty k = 0.568522
         3         2         1        34     9      180.000000       -0.652928         2    ;  uncertainty k = 0.374442
         3         2         1        34     9        0.000000        1.224733         3    ;  uncertainty k = 0.066375
         3         2         1        34     9      180.000000       -0.020427         4    ;  uncertainty k = 0.106441
         3         2         1        35     9        0.000000       -0.650767         1    ;  uncertainty k = 0.568522
         3         2         1        35     9      180.000000       -0.652928         2    ;  uncertainty k = 0.374442
         3         2         1        35     9        0.000000        1.224733         3    ;  uncertainty k = 0.066375
         3         2         1        35     9      180.000000       -0.020427         4    ;  uncertainty k = 0.106441
         3         2         4         5     9        0.000000       -1.716445         1    ;  uncertainty k = 0.728830
         3         2         4         5     9      180.000000        0.598078         2    ;  uncertainty k = 0.591179
         3         2         4         5     9        0.000000        1.170927         3    ;  uncertainty k = 0.237108
         3         2         4         5     9      180.000000       -0.149566         4    ;  uncertainty k = 0.078183
         3         2         4        39     9        0.000000       -0.430567         1    ;  uncertainty k = 0.362286
         3         2         4        39     9      180.000000       -0.402958         2    ;  uncertainty k = 0.331385
         3         2         4        39     9        0.000000        0.933060         3    ;  uncertainty k = 0.082884
         3         2         4        39     9      180.000000       -0.006680         4    ;  uncertainty k = 0.150092
         3         2         4        40     9        0.000000       -0.430567         1    ;  uncertainty k = 0.362286
         3         2         4        40     9      180.000000       -0.402958         2    ;  uncertainty k = 0.331385
         3         2         4        40     9        0.000000        0.933060         3    ;  uncertainty k = 0.082884
         3         2         4        40     9      180.000000       -0.006680         4    ;  uncertainty k = 0.150092
         4         2         1        33     9        0.000000       -0.352105         1    ;  uncertainty k = 0.634045
         4         2         1        33     9      180.000000       -1.003705         2    ;  uncertainty k = 0.363922
         4         2         1        33     9        0.000000        1.213311         3    ;  uncertainty k = 0.079105
         4         2         1        33     9      180.000000       -0.032854         4    ;  uncertainty k = 0.096067
         4         2         1        34     9        0.000000       -0.352105         1    ;  uncertainty k = 0.634045
         4         2         1        34     9      180.000000       -1.003705         2    ;  uncertainty k = 0.363922
         4         2         1        34     9        0.000000        1.213311         3    ;  uncertainty k = 0.079105
         4         2         1        34     9      180.000000       -0.032854         4    ;  uncertainty k = 0.096067
         4         2         1        35     9        0.000000       -0.352105         1    ;  uncertainty k = 0.634045
         4         2         1        35     9      180.000000       -1.003705         2    ;  uncertainty k = 0.363922
         4         2         1        35     9        0.000000        1.213311         3    ;  uncertainty k = 0.079105
         4         2         1        35     9      180.000000       -0.032854         4    ;  uncertainty k = 0.096067
         4         2         3        36     9        0.000000       -0.352105         1    ;  uncertainty k = 0.634045
         4         2         3        36     9      180.000000       -1.003705         2    ;  uncertainty k = 0.363922
         4         2         3        36     9        0.000000        1.213311         3    ;  uncertainty k = 0.079105
         4         2         3        36     9      180.000000       -0.032854         4    ;  uncertainty k = 0.096067
         4         2         3        37     9        0.000000       -0.352105         1    ;  uncertainty k = 0.634045
         4         2         3        37     9      180.000000       -1.003705         2    ;  uncertainty k = 0.363922
         4         2         3        37     9        0.000000        1.213311         3    ;  uncertainty k = 0.079105
         4         2         3        37     9      180.000000       -0.032854         4    ;  uncertainty k = 0.096067
         4         2         3        38     9        0.000000       -0.352105         1    ;  uncertainty k = 0.634045
         4         2         3        38     9      180.000000       -1.003705         2    ;  uncertainty k = 0.363922
         4         2         3        38     9        0.000000        1.213311         3    ;  uncertainty k = 0.079105
         4         2         3        38     9      180.000000       -0.032854         4    ;  uncertainty k = 0.096067
         4         5         6         7     9        0.000000       -1.441874         1    ;  uncertainty k = 0.894239
         4         5         6         7     9      180.000000       -1.155047         2    ;  uncertainty k = 0.322339
         4         5         6         7     9        0.000000        1.340678         3    ;  uncertainty k = 0.190702
         4         5         6         7     9      180.000000       -0.359359         4    ;  uncertainty k = 0.183250
         4         5         6        43     9        0.000000       -1.800713         1    ;  uncertainty k = 0.253171
         4         5         6        43     9      180.000000       -0.684370         2    ;  uncertainty k = 0.169402
         4         5         6        43     9        0.000000        0.986557         3    ;  uncertainty k = 0.102772
         4         5         6        43     9      180.000000       -0.343155         4    ;  uncertainty k = 0.107973
         4         5         6        44     9        0.000000       -1.800713         1    ;  uncertainty k = 0.253171
         4         5         6        44     9      180.000000       -0.684370         2    ;  uncertainty k = 0.169402
         4         5         6        44     9        0.000000        0.986557         3    ;  uncertainty k = 0.102772
         4         5         6        44     9      180.000000       -0.343155         4    ;  uncertainty k = 0.107973
         5         4         2        64     9        0.000000       -1.092016         1    ;  uncertainty k = 0.627238
         5         4         2        64     9      180.000000       -0.305234         2    ;  uncertainty k = 0.546302
         5         4         2        64     9        0.000000        0.483040         3    ;  uncertainty k = 0.167225
         5         4         2        64     9      180.000000       -0.137453         4    ;  uncertainty k = 0.104362
         5         6         7         8     9        0.000000       -1.486631         1    ;  uncertainty k = 0.547463
         5         6         7         8     9      180.000000        5.267022         2    ;  uncertainty k = 0.376553
         5         6         7         8     9        0.000000        0.650623         3    ;  uncertainty k = 0.213642
         5         6         7         8     9      180.000000        0.365854         4    ;  uncertainty k = 0.135676
         5         6         7         9     9        0.000000       -2.674476         1    ;  uncertainty k = 0.445453
         5         6         7         9     9      180.000000        3.001660         2    ;  uncertainty k = 0.399760
         5         6         7         9     9        0.000000        0.100734         3    ;  uncertainty k = 0.114491
         5         6         7         9     9      180.000000        0.143969         4    ;  uncertainty k = 0.116144
         6         5         4        39     9        0.000000       -1.745668         1    ;  uncertainty k = 0.693397
         6         5         4        39     9      180.000000       -0.141185         2    ;  uncertainty k = 0.391251
         6         5         4        39     9        0.000000        0.981331         3    ;  uncertainty k = 0.096955
         6         5         4        39     9      180.000000       -0.225943         4    ;  uncertainty k = 0.137485
         6         5         4        40     9        0.000000       -1.745668         1    ;  uncertainty k = 0.693397
         6         5         4        40     9      180.000000       -0.141185         2    ;  uncertainty k = 0.391251
         6         5         4        40     9        0.000000        0.981331         3    ;  uncertainty k = 0.096955
         6         5         4        40     9      180.000000       -0.225943         4    ;  uncertainty k = 0.137485
         6         7         9        10     9        0.000000        7.793902         1    ;  uncertainty k = 0.492428
         6         7         9        10     9      180.000000        9.184235         2    ;  uncertainty k = 0.512792
         6         7         9        10     9        0.000000        1.737785         3    ;  uncertainty k = 0.202488
         6         7         9        10     9      180.000000       -0.005501         4    ;  uncertainty k = 0.195185
         6         7         9        45     9        0.000000       -0.349858         1    ;  uncertainty k = 0.677679
         6         7         9        45     9      180.000000        6.952947         2    ;  uncertainty k = 0.678610
         6         7         9        45     9        0.000000        1.799746         3    ;  uncertainty k = 0.273219
         6         7         9        45     9      180.000000        0.466827         4    ;  uncertainty k = 0.233024
         7         6         5        41     9        0.000000        1.383094         1    ;  uncertainty k = 0.761604
         7         6         5        41     9      180.000000       -0.495674         2    ;  uncertainty k = 0.384074
         7         6         5        41     9        0.000000        0.678909         3    ;  uncertainty k = 0.261732
         7         6         5        41     9      180.000000        0.022946         4    ;  uncertainty k = 0.059133
         7         6         5        42     9        0.000000        1.383094         1    ;  uncertainty k = 0.761604
         7         6         5        42     9      180.000000       -0.495674         2    ;  uncertainty k = 0.384074
         7         6         5        42     9        0.000000        0.678909         3    ;  uncertainty k = 0.261732
         7         6         5        42     9      180.000000        0.022946         4    ;  uncertainty k = 0.059133
         7         9        10        11     9        0.000000       -0.188456         1    ;  uncertainty k = 0.729276
         7         9        10        11     9      180.000000        0.282805         2    ;  uncertainty k = 0.314910
         7         9        10        11     9        0.000000       -0.195487         3    ;  uncertainty k = 0.088117
         7         9        10        11     9      180.000000        0.615629         4    ;  uncertainty k = 0.102192
         7         9        10        46     9        0.000000        0.831245         1    ;  uncertainty k = 0.366874
         7         9        10        46     9      180.000000       -0.323946         2    ;  uncertainty k = 0.088651
         7         9        10        46     9        0.000000        0.233370         3    ;  uncertainty k = 0.063450
         7         9        10        46     9      180.000000        0.250416         4    ;  uncertainty k = 0.074765
         7         9        10        47     9        0.000000        0.831245         1    ;  uncertainty k = 0.366874
         7         9        10        47     9      180.000000       -0.323946         2    ;  uncertainty k = 0.088651
         7         9        10        47     9        0.000000        0.233370         3    ;  uncertainty k = 0.063450
         7         9        10        47     9      180.000000        0.250416         4    ;  uncertainty k = 0.074765
         8         7         6        43     9        0.000000       -0.349198         1    ;  uncertainty k = 0.294916
         8         7         6        43     9      180.000000        3.401837         2    ;  uncertainty k = 0.115088
         8         7         6        43     9        0.000000        0.747799         3    ;  uncertainty k = 0.090959
         8         7         6        43     9      180.000000        0.303973         4    ;  uncertainty k = 0.120878
         8         7         6        44     9        0.000000       -0.349198         1    ;  uncertainty k = 0.294916
         8         7         6        44     9      180.000000        3.401837         2    ;  uncertainty k = 0.115088
         8         7         6        44     9        0.000000        0.747799         3    ;  uncertainty k = 0.090959
         8         7         6        44     9      180.000000        0.303973         4    ;  uncertainty k = 0.120878
         8         7         9        10     9        0.000000        7.026015         1    ;  uncertainty k = 0.425995
         8         7         9        10     9      180.000000       16.770856         2    ;  uncertainty k = 0.164516
         8         7         9        10     9        0.000000        0.544498         3    ;  uncertainty k = 0.230855
         8         7         9        10     9      180.000000       -0.721218         4    ;  uncertainty k = 0.278865
         8         7         9        45     9        0.000000        4.895712         1    ;  uncertainty k = 0.649434
         8         7         9        45     9      180.000000       17.319742         2    ;  uncertainty k = 0.145857
         8         7         9        45     9        0.000000        1.032273         3    ;  uncertainty k = 0.316533
         8         7         9        45     9      180.000000       -0.428177         4    ;  uncertainty k = 0.113319
         9         7         6        43     9        0.000000       -1.101222         1    ;  uncertainty k = 0.347948
         9         7         6        43     9      180.000000        2.225953         2    ;  uncertainty k = 0.238344
         9         7         6        43     9        0.000000        0.294923         3    ;  uncertainty k = 0.055387
         9         7         6        43     9      180.000000        0.054424         4    ;  uncertainty k = 0.064580
         9         7         6        44     9        0.000000       -1.101222         1    ;  uncertainty k = 0.347948
         9         7         6        44     9      180.000000        2.225953         2    ;  uncertainty k = 0.238344
         9         7         6        44     9        0.000000        0.294923         3    ;  uncertainty k = 0.055387
         9         7         6        44     9      180.000000        0.054424         4    ;  uncertainty k = 0.064580
         9        10        11        12     9        0.000000       -1.840511         1    ;  uncertainty k = 0.965598
         9        10        11        12     9      180.000000        0.676567         2    ;  uncertainty k = 0.303376
         9        10        11        12     9        0.000000        1.219391         3    ;  uncertainty k = 0.346626
         9        10        11        12     9      180.000000       -0.277171         4    ;  uncertainty k = 0.251207
         9        10        11        32     9        0.000000        0.182243         1    ;  uncertainty k = 0.583396
         9        10        11        32     9      180.000000       -2.619277         2    ;  uncertainty k = 0.526593
         9        10        11        32     9        0.000000        1.936242         3    ;  uncertainty k = 0.268639
         9        10        11        32     9      180.000000       -0.303393         4    ;  uncertainty k = 0.101249
         9        10        11        48     9        0.000000       -0.083033         1    ;  uncertainty k = 0.752456
         9        10        11        48     9      180.000000       -0.975246         2    ;  uncertainty k = 0.361187
         9        10        11        48     9        0.000000        0.921404         3    ;  uncertainty k = 0.224462
         9        10        11        48     9      180.000000       -0.142053         4    ;  uncertainty k = 0.075751
        10        11        12        13     9        0.000000       -2.924464         1    ;  uncertainty k = 0.321750
        10        11        12        13     9      180.000000        0.287353         2    ;  uncertainty k = 0.341930
        10        11        12        13     9        0.000000        0.437710         3    ;  uncertainty k = 0.088194
        10        11        12        13     9      180.000000       -0.339569         4    ;  uncertainty k = 0.108158
        10        11        12        49     9        0.000000       -0.758303         1    ;  uncertainty k = 0.319580
        10        11        12        49     9      180.000000       -0.298080         2    ;  uncertainty k = 0.299567
        10        11        12        49     9        0.000000        0.214066         3    ;  uncertainty k = 0.070589
        10        11        12        49     9      180.000000       -0.226571         4    ;  uncertainty k = 0.079558
        10        11        12        50     9        0.000000       -0.758303         1    ;  uncertainty k = 0.319580
        10        11        12        50     9      180.000000       -0.298080         2    ;  uncertainty k = 0.299567
        10        11        12        50     9        0.000000        0.214066         3    ;  uncertainty k = 0.070589
        10        11        12        50     9      180.000000       -0.226571         4    ;  uncertainty k = 0.079558
        10        11        32        31     9        0.000000       -4.930019         1    ;  uncertainty k = 0.890085
        10        11        32        31     9      180.000000        0.206833         2    ;  uncertainty k = 0.298619
        10        11        32        31     9        0.000000        0.561120         3    ;  uncertainty k = 0.335845
        10        11        32        31     9      180.000000       -0.083348         4    ;  uncertainty k = 0.197965
        11        10         9        45     9        0.000000        3.135974         1    ;  uncertainty k = 0.589544
        11        10         9        45     9      180.000000       -2.254236         2    ;  uncertainty k = 0.431860
        11        10         9        45     9        0.000000        0.663345         3    ;  uncertainty k = 0.136444
        11        10         9        45     9      180.000000        0.012103         4    ;  uncertainty k = 0.115937
        11        12        13        14     9        0.000000       -4.862734         1    ;  uncertainty k = 1.068509
        11        12        13        14     9      180.000000       -0.600726         2    ;  uncertainty k = 0.605043
        11        12        13        14     9        0.000000        1.232120         3    ;  uncertainty k = 0.229400
        11        12        13        14     9      180.000000       -0.963488         4    ;  uncertainty k = 0.187066
        11        12        13        51     9        0.000000       -1.068562         1    ;  uncertainty k = 0.659933
        11        12        13        51     9      180.000000       -0.567766         2    ;  uncertainty k = 0.240577
        11        12        13        51     9        0.000000        0.417913         3    ;  uncertainty k = 0.156934
        11        12        13        51     9      180.000000        0.038445         4    ;  uncertainty k = 0.035731
        11        12        13        52     9        0.000000       -1.068562         1    ;  uncertainty k = 0.659933
        11        12        13        52     9      180.000000       -0.567766         2    ;  uncertainty k = 0.240577
        11        12        13        52     9        0.000000        0.417913         3    ;  uncertainty k = 0.156934
        11        12        13        52     9      180.000000        0.038445         4    ;  uncertainty k = 0.035731
        11        32        31        14     9        0.000000        4.342833         1    ;  uncertainty k = 1.457096
        11        32        31        14     9      180.000000       -1.880454         2    ;  uncertainty k = 1.094365
        11        32        31        14     9        0.000000        0.063569         3    ;  uncertainty k = 0.315627
        11        32        31        14     9      180.000000        0.039954         4    ;  uncertainty k = 0.195253
        11        32        31        30     9        0.000000       -3.095755         1    ;  uncertainty k = 1.564749
        11        32        31        30     9      180.000000       -1.192066         2    ;  uncertainty k = 0.922455
        11        32        31        30     9        0.000000        0.861717         3    ;  uncertainty k = 0.548879
        11        32        31        30     9      180.000000       -0.089787         4    ;  uncertainty k = 0.213134
        11        32        31        63     9        0.000000       -1.651517         1    ;  uncertainty k = 0.530013
        11        32        31        63     9      180.000000       -0.421659         2    ;  uncertainty k = 0.326100
        11        32        31        63     9        0.000000        0.433361         3    ;  uncertainty k = 0.093041
        11        32        31        63     9      180.000000       -0.107267         4    ;  uncertainty k = 0.215166
        12        11        10        46     9        0.000000       -1.037127         1    ;  uncertainty k = 0.399861
        12        11        10        46     9      180.000000       -0.206324         2    ;  uncertainty k = 0.319645
        12        11        10        46     9        0.000000        0.300489         3    ;  uncertainty k = 0.040417
        12        11        10        46     9      180.000000       -0.176900         4    ;  uncertainty k = 0.090889
        12        11        10        47     9        0.000000       -1.037127         1    ;  uncertainty k = 0.399861
        12        11        10        47     9      180.000000       -0.206324         2    ;  uncertainty k = 0.319645
        12        11        10        47     9        0.000000        0.300489         3    ;  uncertainty k = 0.040417
        12        11        10        47     9      180.000000       -0.176900         4    ;  uncertainty k = 0.090889
        12        11        32        31     9        0.000000        2.627415         1    ;  uncertainty k = 2.854667
        12        11        32        31     9      180.000000       -1.340303         2    ;  uncertainty k = 0.445198
        12        11        32        31     9        0.000000       -0.072546         3    ;  uncertainty k = 0.634482
        12        11        32        31     9      180.000000        0.033371         4    ;  uncertainty k = 0.157615
        12        13        14        15     9        0.000000       -3.428807         1    ;  uncertainty k = 0.562989
        12        13        14        15     9      180.000000        0.046154         2    ;  uncertainty k = 0.168288
        12        13        14        15     9        0.000000        1.159236         3    ;  uncertainty k = 0.145611
        12        13        14        15     9      180.000000       -0.539651         4    ;  uncertainty k = 0.153105
        12        13        14        31     9        0.000000       -3.494251         1    ;  uncertainty k = 0.273167
        12        13        14        31     9      180.000000        0.131980         2    ;  uncertainty k = 0.387503
        12        13        14        31     9        0.000000        1.025585         3    ;  uncertainty k = 0.169787
        12        13        14        31     9      180.000000       -0.780881         4    ;  uncertainty k = 0.058076
        12        13        14        53     9        0.000000       -2.393881         1    ;  uncertainty k = 0.521607
        12        13        14        53     9      180.000000        0.121955         2    ;  uncertainty k = 0.258371
        12        13        14        53     9        0.000000        0.024213         3    ;  uncertainty k = 0.078636
        12        13        14        53     9      180.000000       -0.101045         4    ;  uncertainty k = 0.083409
        13        12        11        32     9        0.000000       -2.259181         1    ;  uncertainty k = 0.796059
        13        12        11        32     9      180.000000       -1.047093         2    ;  uncertainty k = 0.567357
        13        12        11        32     9        0.000000        1.427831         3    ;  uncertainty k = 0.430175
        13        12        11        32     9      180.000000       -0.508349         4    ;  uncertainty k = 0.316587
        13        12        11        48     9        0.000000        0.644782         1    ;  uncertainty k = 0.799330
        13        12        11        48     9      180.000000       -1.855567         2    ;  uncertainty k = 0.718016
        13        12        11        48     9        0.000000       -0.282032         3    ;  uncertainty k = 0.144301
        13        12        11        48     9      180.000000        0.140136         4    ;  uncertainty k = 0.081722
        13        14        15        16     9        0.000000       -0.460265         1    ;  uncertainty k = 0.378480
        13        14        15        16     9      180.000000        0.091417         2    ;  uncertainty k = 0.234286
        13        14        15        16     9        0.000000        1.027683         3    ;  uncertainty k = 0.137264
        13        14        15        16     9      180.000000       -0.027056         4    ;  uncertainty k = 0.091487
        13        14        15        22     9        0.000000       -2.690971         1    ;  uncertainty k = 0.457017
        13        14        15        22     9      180.000000        0.562053         2    ;  uncertainty k = 0.351266
        13        14        15        22     9        0.000000        1.098836         3    ;  uncertainty k = 0.218602
        13        14        15        22     9      180.000000       -0.294577         4    ;  uncertainty k = 0.291895
        13        14        15        54     9        0.000000       -0.243573         1    ;  uncertainty k = 0.392155
        13        14        15        54     9      180.000000       -0.308384         2    ;  uncertainty k = 0.183697
        13        14        15        54     9        0.000000        0.093415         3    ;  uncertainty k = 0.150044
        13        14        15        54     9      180.000000       -0.117627         4    ;  uncertainty k = 0.084836
        13        14        31        30     9        0.000000       -1.726020         1    ;  uncertainty k = 0.886637
        13        14        31        30     9      180.000000       -0.816886         2    ;  uncertainty k = 0.218739
        13        14        31        30     9        0.000000        0.632115         3    ;  uncertainty k = 0.197973
        13        14        31        30     9      180.000000       -0.213682         4    ;  uncertainty k = 0.115047
        13        14        31        32     9        0.000000       -1.638250         1    ;  uncertainty k = 0.809936
        13        14        31        32     9      180.000000       -1.474563         2    ;  uncertainty k = 0.953715
        13        14        31        32     9        0.000000        0.921410         3    ;  uncertainty k = 0.283124
        13        14        31        32     9      180.000000       -0.033371         4    ;  uncertainty k = 0.253929
        13        14        31        63     9        0.000000        0.370415         1    ;  uncertainty k = 0.560356
        13        14        31        63     9      180.000000       -0.492990         2    ;  uncertainty k = 0.385773
        13        14        31        63     9        0.000000       -0.167815         3    ;  uncertainty k = 0.120090
        13        14        31        63     9      180.000000       -0.045942         4    ;  uncertainty k = 0.139632
        14        13        12        49     9        0.000000       -0.789551         1    ;  uncertainty k = 0.235032
        14        13        12        49     9      180.000000       -0.691686         2    ;  uncertainty k = 0.213781
        14        13        12        49     9        0.000000        0.412213         3    ;  uncertainty k = 0.128820
        14        13        12        49     9      180.000000       -0.048909         4    ;  uncertainty k = 0.116103
        14        13        12        50     9        0.000000       -0.789551         1    ;  uncertainty k = 0.235032
        14        13        12        50     9      180.000000       -0.691686         2    ;  uncertainty k = 0.213781
        14        13        12        50     9        0.000000        0.412213         3    ;  uncertainty k = 0.128820
        14        13        12        50     9      180.000000       -0.048909         4    ;  uncertainty k = 0.116103
        14        15        16        17     9        0.000000       -0.111537         1    ;  uncertainty k = 0.709383
        14        15        16        17     9      180.000000        1.832259         2    ;  uncertainty k = 0.233886
        14        15        16        17     9        0.000000        0.274101         3    ;  uncertainty k = 0.144963
        14        15        16        17     9      180.000000        0.245319         4    ;  uncertainty k = 0.077451
        14        15        16        21     9        0.000000       -0.111537         1    ;  uncertainty k = 0.709383
        14        15        16        21     9      180.000000        1.832259         2    ;  uncertainty k = 0.233886
        14        15        16        21     9        0.000000        0.274101         3    ;  uncertainty k = 0.144963
        14        15        16        21     9      180.000000        0.245319         4    ;  uncertainty k = 0.077451
        14        15        22        23     9        0.000000        0.550597         1    ;  uncertainty k = 1.300109
        14        15        22        23     9      180.000000        0.292978         2    ;  uncertainty k = 0.542641
        14        15        22        23     9        0.000000        0.278536         3    ;  uncertainty k = 0.226569
        14        15        22        23     9      180.000000        0.170656         4    ;  uncertainty k = 0.180478
        14        15        22        60     9        0.000000        3.364422         1    ;  uncertainty k = 0.792659
        14        15        22        60     9      180.000000       -1.771652         2    ;  uncertainty k = 1.305731
        14        15        22        60     9        0.000000        0.478059         3    ;  uncertainty k = 0.318344
        14        15        22        60     9      180.000000       -0.021921         4    ;  uncertainty k = 0.075868
        14        31        30        23     9        0.000000        0.004927         1    ;  uncertainty k = 2.139939
        14        31        30        23     9      180.000000        0.081496         2    ;  uncertainty k = 1.149349
        14        31        30        23     9        0.000000        0.038836         3    ;  uncertainty k = 0.691344
        14        31        30        23     9      180.000000        0.765451         4    ;  uncertainty k = 0.180765
        14        31        30        29     9        0.000000       -1.465243         1    ;  uncertainty k = 0.752873
        14        31        30        29     9      180.000000        0.010354         2    ;  uncertainty k = 0.452891
        14        31        30        29     9        0.000000       -0.141098         3    ;  uncertainty k = 0.208796
        14        31        30        29     9      180.000000        0.422062         4    ;  uncertainty k = 0.136490
        15        14        13        51     9        0.000000        0.087291         1    ;  uncertainty k = 0.314080
        15        14        13        51     9      180.000000       -0.651820         2    ;  uncertainty k = 0.226606
        15        14        13        51     9        0.000000        0.474405         3    ;  uncertainty k = 0.093397
        15        14        13        51     9      180.000000       -0.051753         4    ;  uncertainty k = 0.104749
        15        14        13        52     9        0.000000        0.087291         1    ;  uncertainty k = 0.314080
        15        14        13        52     9      180.000000       -0.651820         2    ;  uncertainty k = 0.226606
        15        14        13        52     9        0.000000        0.474405         3    ;  uncertainty k = 0.093397
        15        14        13        52     9      180.000000       -0.051753         4    ;  uncertainty k = 0.104749
        15        14        31        30     9        0.000000        1.252394         1    ;  uncertainty k = 1.084323
        15        14        31        30     9      180.000000       -2.312955         2    ;  uncertainty k = 0.382196
        15        14        31        30     9        0.000000        0.276938         3    ;  uncertainty k = 0.191329
        15        14        31        30     9      180.000000       -0.157824         4    ;  uncertainty k = 0.139734
        15        14        31        32     9        0.000000       -0.979344         1    ;  uncertainty k = 1.566725
        15        14        31        32     9      180.000000       -3.353984         2    ;  uncertainty k = 1.514412
        15        14        31        32     9        0.000000        0.656187         3    ;  uncertainty k = 0.253040
        15        14        31        32     9      180.000000        0.115000         4    ;  uncertainty k = 0.317405
        15        14        31        63     9        0.000000        0.845289         1    ;  uncertainty k = 0.750868
        15        14        31        63     9      180.000000       -1.038423         2    ;  uncertainty k = 0.486652
        15        14        31        63     9        0.000000       -0.237028         3    ;  uncertainty k = 0.099251
        15        14        31        63     9      180.000000        0.002511         4    ;  uncertainty k = 0.201280
        15        16        17        18     9        0.000000        0.315475         1    ;  uncertainty k = 0.262602
        15        16        17        18     9      180.000000        8.621091         2    ;  uncertainty k = 0.465138
        15        16        17        18     9        0.000000        1.453888         3    ;  uncertainty k = 0.336787
        15        16        17        18     9      180.000000        1.906667         4    ;  uncertainty k = 0.204333
        15        16        17        55     9        0.000000        0.041226         1    ;  uncertainty k = 0.295434
        15        16        17        55     9      180.000000        7.823420         2    ;  uncertainty k = 0.255813
        15        16        17        55     9        0.000000        0.567730         3    ;  uncertainty k = 0.365385
        15        16        17        55     9      180.000000        0.878203         4    ;  uncertainty k = 0.166432
        15        16        21        20     9        0.000000        0.315475         1    ;  uncertainty k = 0.262602
        15        16        21        20     9      180.000000        8.621091         2    ;  uncertainty k = 0.465138
        15        16        21        20     9        0.000000        1.453888         3    ;  uncertainty k = 0.336787
        15        16        21        20     9      180.000000        1.906667         4    ;  uncertainty k = 0.204333
        15        16        21        59     9        0.000000        0.041226         1    ;  uncertainty k = 0.295434
        15        16        21        59     9      180.000000        7.823420         2    ;  uncertainty k = 0.255813
        15        16        21        59     9        0.000000        0.567730         3    ;  uncertainty k = 0.365385
        15        16        21        59     9      180.000000        0.878203         4    ;  uncertainty k = 0.166432
        15        22        23        24     9        0.000000        2.391356         1    ;  uncertainty k = 1.771557
        15        22        23        24     9      180.000000        2.569159         2    ;  uncertainty k = 0.890412
        15        22        23        24     9        0.000000        0.739510         3    ;  uncertainty k = 0.321251
        15        22        23        24     9      180.000000        0.369029         4    ;  uncertainty k = 0.157978
        15        22        23        30     9        0.000000        3.279649         1    ;  uncertainty k = 1.243965
        15        22        23        30     9      180.000000        1.975532         2    ;  uncertainty k = 0.707311
        15        22        23        30     9        0.000000       -0.321547         3    ;  uncertainty k = 0.371331
        15        22        23        30     9      180.000000        0.549698         4    ;  uncertainty k = 0.224211
        16        15        14        31     9        0.000000       -0.652752         1    ;  uncertainty k = 0.758440
        16        15        14        31     9      180.000000       -0.367210         2    ;  uncertainty k = 0.364930
        16        15        14        31     9        0.000000        0.405240         3    ;  uncertainty k = 0.209145
        16        15        14        31     9      180.000000       -0.028625         4    ;  uncertainty k = 0.142332
        16        15        14        53     9        0.000000        0.521826         1    ;  uncertainty k = 0.245890
        16        15        14        53     9      180.000000        0.128842         2    ;  uncertainty k = 0.617819
        16        15        14        53     9        0.000000        0.456514         3    ;  uncertainty k = 0.077842
        16        15        14        53     9      180.000000       -0.031889         4    ;  uncertainty k = 0.109122
        16        15        22        23     9        0.000000       -1.276483         1    ;  uncertainty k = 0.766279
        16        15        22        23     9      180.000000        0.110425         2    ;  uncertainty k = 0.140674
        16        15        22        23     9        0.000000        1.045072         3    ;  uncertainty k = 0.235984
        16        15        22        23     9      180.000000        0.231250         4    ;  uncertainty k = 0.093371
        16        15        22        60     9        0.000000        4.853101         1    ;  uncertainty k = 0.666151
        16        15        22        60     9      180.000000       -0.863729         2    ;  uncertainty k = 0.353945
        16        15        22        60     9        0.000000        0.434146         3    ;  uncertainty k = 0.251029
        16        15        22        60     9      180.000000       -0.043424         4    ;  uncertainty k = 0.187740
        16        17        18        19     9        0.000000       -0.073185         1    ;  uncertainty k = 0.135863
        16        17        18        19     9      180.000000       13.840581         2    ;  uncertainty k = 0.218470
        16        17        18        19     9        0.000000       -0.942124         3    ;  uncertainty k = 0.500159
        16        17        18        19     9      180.000000        0.720226         4    ;  uncertainty k = 0.249573
        16        17        18        56     9        0.000000        0.078937         1    ;  uncertainty k = 0.238410
        16        17        18        56     9      180.000000        7.523904         2    ;  uncertainty k = 0.411008
        16        17        18        56     9        0.000000        1.486224         3    ;  uncertainty k = 0.266910
        16        17        18        56     9      180.000000        1.791252         4    ;  uncertainty k = 0.130361
        16        21        20        19     9        0.000000       -0.073185         1    ;  uncertainty k = 0.135863
        16        21        20        19     9      180.000000       13.840581         2    ;  uncertainty k = 0.218470
        16        21        20        19     9        0.000000       -0.942124         3    ;  uncertainty k = 0.500159
        16        21        20        19     9      180.000000        0.720226         4    ;  uncertainty k = 0.249573
        16        21        20        58     9        0.000000        0.078937         1    ;  uncertainty k = 0.238410
        16        21        20        58     9      180.000000        7.523904         2    ;  uncertainty k = 0.411008
        16        21        20        58     9        0.000000        1.486224         3    ;  uncertainty k = 0.266910
        16        21        20        58     9      180.000000        1.791252         4    ;  uncertainty k = 0.130361
        17        16        15        22     9        0.000000       -0.587440         1    ;  uncertainty k = 0.650241
        17        16        15        22     9      180.000000        2.752986         2    ;  uncertainty k = 0.235149
        17        16        15        22     9        0.000000        0.633136         3    ;  uncertainty k = 0.233844
        17        16        15        22     9      180.000000        0.456102         4    ;  uncertainty k = 0.027417
        17        16        15        54     9        0.000000       -0.605120         1    ;  uncertainty k = 0.219677
        17        16        15        54     9      180.000000        2.297380         2    ;  uncertainty k = 0.337137
        17        16        15        54     9        0.000000        0.473321         3    ;  uncertainty k = 0.111321
        17        16        15        54     9      180.000000        0.234329         4    ;  uncertainty k = 0.048057
        17        16        21        20     9        0.000000       -0.244750         1    ;  uncertainty k = 0.085030
        17        16        21        20     9      180.000000       11.550238         2    ;  uncertainty k = 0.281782
        17        16        21        20     9        0.000000       -0.471965         3    ;  uncertainty k = 0.307308
        17        16        21        20     9      180.000000        0.819629         4    ;  uncertainty k = 0.339588
        17        16        21        59     9        0.000000        0.103785         1    ;  uncertainty k = 0.115164
        17        16        21        59     9      180.000000        7.232566         2    ;  uncertainty k = 0.479326
        17        16        21        59     9        0.000000        1.441609         3    ;  uncertainty k = 0.358039
        17        16        21        59     9      180.000000        1.626932         4    ;  uncertainty k = 0.180627
        17        18        19        20     9        0.000000        0.003338         1    ;  uncertainty k = 0.036528
        17        18        19        20     9      180.000000       15.061872         2    ;  uncertainty k = 0.266781
        17        18        19        20     9        0.000000       -1.241530         3    ;  uncertainty k = 0.510933
        17        18        19        20     9      180.000000        0.486539         4    ;  uncertainty k = 0.300059
        17        18        19        57     9        0.000000        0.055743         1    ;  uncertainty k = 0.094833
        17        18        19        57     9      180.000000        7.490470         2    ;  uncertainty k = 0.333391
        17        18        19        57     9        0.000000        1.467121         3    ;  uncertainty k = 0.292765
        17        18        19        57     9      180.000000        1.797081         4    ;  uncertainty k = 0.179698
        18        17        16        21     9        0.000000       -0.244750         1    ;  uncertainty k = 0.085030
        18        17        16        21     9      180.000000       11.550238         2    ;  uncertainty k = 0.281782
        18        17        16        21     9        0.000000       -0.471965         3    ;  uncertainty k = 0.307308
        18        17        16        21     9      180.000000        0.819629         4    ;  uncertainty k = 0.339588
        18        19        20        21     9        0.000000        0.003338         1    ;  uncertainty k = 0.036528
        18        19        20        21     9      180.000000       15.061872         2    ;  uncertainty k = 0.266781
        18        19        20        21     9        0.000000       -1.241530         3    ;  uncertainty k = 0.510933
        18        19        20        21     9      180.000000        0.486539         4    ;  uncertainty k = 0.300059
        18        19        20        58     9        0.000000        0.045944         1    ;  uncertainty k = 0.040455
        18        19        20        58     9      180.000000        7.527539         2    ;  uncertainty k = 0.325490
        18        19        20        58     9        0.000000        1.433627         3    ;  uncertainty k = 0.327115
        18        19        20        58     9      180.000000        1.790207         4    ;  uncertainty k = 0.158460
        19        18        17        55     9        0.000000        0.053110         1    ;  uncertainty k = 0.076538
        19        18        17        55     9      180.000000        7.946075         2    ;  uncertainty k = 0.338884
        19        18        17        55     9        0.000000        1.427770         3    ;  uncertainty k = 0.326160
        19        18        17        55     9      180.000000        1.836126         4    ;  uncertainty k = 0.159402
        19        20        21        59     9        0.000000        0.053110         1    ;  uncertainty k = 0.076538
        19        20        21        59     9      180.000000        7.946075         2    ;  uncertainty k = 0.338884
        19        20        21        59     9        0.000000        1.427770         3    ;  uncertainty k = 0.326160
        19        20        21        59     9      180.000000        1.836126         4    ;  uncertainty k = 0.159402
        20        19        18        56     9        0.000000        0.045944         1    ;  uncertainty k = 0.040455
        20        19        18        56     9      180.000000        7.527539         2    ;  uncertainty k = 0.325490
        20        19        18        56     9        0.000000        1.433627         3    ;  uncertainty k = 0.327115
        20        19        18        56     9      180.000000        1.790207         4    ;  uncertainty k = 0.158460
        21        16        15        22     9        0.000000       -0.587440         1    ;  uncertainty k = 0.650241
        21        16        15        22     9      180.000000        2.752986         2    ;  uncertainty k = 0.235149
        21        16        15        22     9        0.000000        0.633136         3    ;  uncertainty k = 0.233844
        21        16        15        22     9      180.000000        0.456102         4    ;  uncertainty k = 0.027417
        21        16        15        54     9        0.000000       -0.605120         1    ;  uncertainty k = 0.219677
        21        16        15        54     9      180.000000        2.297380         2    ;  uncertainty k = 0.337137
        21        16        15        54     9        0.000000        0.473321         3    ;  uncertainty k = 0.111321
        21        16        15        54     9      180.000000        0.234329         4    ;  uncertainty k = 0.048057
        21        16        17        55     9        0.000000        0.103785         1    ;  uncertainty k = 0.115164
        21        16        17        55     9      180.000000        7.232566         2    ;  uncertainty k = 0.479326
        21        16        17        55     9        0.000000        1.441609         3    ;  uncertainty k = 0.358039
        21        16        17        55     9      180.000000        1.626932         4    ;  uncertainty k = 0.180627
        21        20        19        57     9        0.000000        0.055743         1    ;  uncertainty k = 0.094833
        21        20        19        57     9      180.000000        7.490470         2    ;  uncertainty k = 0.333391
        21        20        19        57     9        0.000000        1.467121         3    ;  uncertainty k = 0.292765
        21        20        19        57     9      180.000000        1.797081         4    ;  uncertainty k = 0.179698
        22        15        14        31     9        0.000000       -0.102901         1    ;  uncertainty k = 2.134326
        22        15        14        31     9      180.000000       -1.222421         2    ;  uncertainty k = 0.414778
        22        15        14        31     9        0.000000        0.528962         3    ;  uncertainty k = 0.458457
        22        15        14        31     9      180.000000       -0.153226         4    ;  uncertainty k = 0.383858
        22        15        14        53     9        0.000000       -0.987504         1    ;  uncertainty k = 0.658849
        22        15        14        53     9      180.000000        0.141272         2    ;  uncertainty k = 0.387448
        22        15        14        53     9        0.000000        0.636103         3    ;  uncertainty k = 0.252693
        22        15        14        53     9      180.000000        0.058629         4    ;  uncertainty k = 0.106340
        22        23        24        25     9        0.000000       -0.060083         1    ;  uncertainty k = 0.590287
        22        23        24        25     9      180.000000       11.126910         2    ;  uncertainty k = 0.350929
        22        23        24        25     9        0.000000        0.831575         3    ;  uncertainty k = 0.133696
        22        23        24        25     9      180.000000        1.168919         4    ;  uncertainty k = 0.315287
        22        23        24        26     9        0.000000        0.088918         1    ;  uncertainty k = 0.544071
        22        23        24        26     9      180.000000        6.964617         2    ;  uncertainty k = 0.322045
        22        23        24        26     9        0.000000        1.148935         3    ;  uncertainty k = 0.296949
        22        23        24        26     9      180.000000        1.660977         4    ;  uncertainty k = 0.199224
        22        23        30        29     9        0.000000        0.477887         1    ;  uncertainty k = 0.399691
        22        23        30        29     9      180.000000        7.471603         2    ;  uncertainty k = 0.312160
        22        23        30        29     9        0.000000        0.992344         3    ;  uncertainty k = 0.143783
        22        23        30        29     9      180.000000        1.466913         4    ;  uncertainty k = 0.364863
        22        23        30        31     9        0.000000        0.061854         1    ;  uncertainty k = 0.716390
        22        23        30        31     9      180.000000        7.786536         2    ;  uncertainty k = 0.989918
        22        23        30        31     9        0.000000        0.643493         3    ;  uncertainty k = 0.615598
        22        23        30        31     9      180.000000        1.195039         4    ;  uncertainty k = 0.496088
        23        22        15        54     9        0.000000       -0.900699         1    ;  uncertainty k = 0.549589
        23        22        15        54     9      180.000000       -0.516685         2    ;  uncertainty k = 0.381663
        23        22        15        54     9        0.000000        0.691905         3    ;  uncertainty k = 0.185457
        23        22        15        54     9      180.000000        0.230822         4    ;  uncertainty k = 0.071840
        23        24        26        27     9        0.000000        0.009006         1    ;  uncertainty k = 0.120063
        23        24        26        27     9      180.000000        9.491498         2    ;  uncertainty k = 0.531876
        23        24        26        27     9        0.000000        0.360121         3    ;  uncertainty k = 0.440836
        23        24        26        27     9      180.000000        1.280678         4    ;  uncertainty k = 0.325008
        23        24        26        61     9        0.000000        0.412675         1    ;  uncertainty k = 0.285802
        23        24        26        61     9      180.000000        6.193922         2    ;  uncertainty k = 0.765170
        23        24        26        61     9        0.000000        1.347450         3    ;  uncertainty k = 0.433252
        23        24        26        61     9      180.000000        1.514887         4    ;  uncertainty k = 0.238880
        23        30        29        27     9        0.000000       -0.158158         1    ;  uncertainty k = 0.259234
        23        30        29        27     9      180.000000       12.801579         2    ;  uncertainty k = 0.353836
        23        30        29        27     9        0.000000       -0.440076         3    ;  uncertainty k = 0.437524
        23        30        29        27     9      180.000000        1.033790         4    ;  uncertainty k = 0.386259
        23        30        29        62     9        0.000000        0.403965         1    ;  uncertainty k = 0.444840
        23        30        29        62     9      180.000000        8.088946         2    ;  uncertainty k = 0.715130
        23        30        29        62     9        0.000000        1.421554         3    ;  uncertainty k = 0.300875
        23        30        29        62     9      180.000000        1.657838         4    ;  uncertainty k = 0.128932
        23        30        31        32     9        0.000000       -2.390555         1    ;  uncertainty k = 2.727319
        23        30        31        32     9      180.000000        0.601401         2    ;  uncertainty k = 1.137658
        23        30        31        32     9        0.000000        1.454929         3    ;  uncertainty k = 0.443630
        23        30        31        32     9      180.000000       -0.038407         4    ;  uncertainty k = 0.175005
        23        30        31        63     9        0.000000       -0.385918         1    ;  uncertainty k = 0.887402
        23        30        31        63     9      180.000000        2.171417         2    ;  uncertainty k = 0.219774
        23        30        31        63     9        0.000000        0.441776         3    ;  uncertainty k = 0.295672
        23        30        31        63     9      180.000000       -0.201909         4    ;  uncertainty k = 0.163510
        24        23        22        60     9        0.000000        4.797814         1    ;  uncertainty k = 1.034286
        24        23        22        60     9      180.000000        3.853521         2    ;  uncertainty k = 0.744415
        24        23        22        60     9        0.000000        0.759458         3    ;  uncertainty k = 0.324614
        24        23        22        60     9      180.000000        0.073414         4    ;  uncertainty k = 0.226041
        24        23        30        29     9        0.000000        0.247430         1    ;  uncertainty k = 0.341936
        24        23        30        29     9      180.000000        5.620797         2    ;  uncertainty k = 0.518533
        24        23        30        29     9        0.000000        0.470651         3    ;  uncertainty k = 0.354365
        24        23        30        29     9      180.000000        1.417636         4    ;  uncertainty k = 0.303743
        24        23        30        31     9        0.000000        0.622422         1    ;  uncertainty k = 0.577172
        24        23        30        31     9      180.000000        5.628049         2    ;  uncertainty k = 0.521605
        24        23        30        31     9        0.000000        1.235152         3    ;  uncertainty k = 0.368962
        24        23        30        31     9      180.000000        1.483988         4    ;  uncertainty k = 0.232983
        24        26        27        28     9        0.000000        0.040161         1    ;  uncertainty k = 0.354157
        24        26        27        28     9      180.000000        8.954691         2    ;  uncertainty k = 0.705512
        24        26        27        28     9        0.000000        1.430356         3    ;  uncertainty k = 0.513844
        24        26        27        28     9      180.000000        1.646683         4    ;  uncertainty k = 0.172009
        24        26        27        29     9        0.000000       -0.040818         1    ;  uncertainty k = 0.213618
        24        26        27        29     9      180.000000       10.035956         2    ;  uncertainty k = 0.401036
        24        26        27        29     9        0.000000       -0.304528         3    ;  uncertainty k = 0.469022
        24        26        27        29     9      180.000000        1.205197         4    ;  uncertainty k = 0.279421
        25        24        23        30     9        0.000000        0.326652         1    ;  uncertainty k = 0.470562
        25        24        23        30     9      180.000000        8.375475         2    ;  uncertainty k = 0.599616
        25        24        23        30     9        0.000000        1.576070         3    ;  uncertainty k = 0.229625
        25        24        23        30     9      180.000000        1.562451         4    ;  uncertainty k = 0.264235
        25        24        26        27     9        0.000000        0.091398         1    ;  uncertainty k = 0.302839
        25        24        26        27     9      180.000000       14.402964         2    ;  uncertainty k = 0.535126
        25        24        26        27     9        0.000000        1.501230         3    ;  uncertainty k = 0.227760
        25        24        26        27     9      180.000000        1.446633         4    ;  uncertainty k = 0.335813
        25        24        26        61     9        0.000000       -0.186101         1    ;  uncertainty k = 0.272583
        25        24        26        61     9      180.000000        9.880581         2    ;  uncertainty k = 0.436690
        25        24        26        61     9        0.000000        0.877926         3    ;  uncertainty k = 0.253249
        25        24        26        61     9      180.000000        1.095357         4    ;  uncertainty k = 0.298512
        26        24        23        30     9        0.000000       -0.094495         1    ;  uncertainty k = 0.676460
        26        24        23        30     9      180.000000        4.265858         2    ;  uncertainty k = 1.613470
        26        24        23        30     9        0.000000        0.435808         3    ;  uncertainty k = 0.523661
        26        24        23        30     9      180.000000        1.313952         4    ;  uncertainty k = 0.340619
        26        27        29        30     9        0.000000        0.025092         1    ;  uncertainty k = 0.185760
        26        27        29        30     9      180.000000        9.808076         2    ;  uncertainty k = 0.304552
        26        27        29        30     9        0.000000       -0.153074         3    ;  uncertainty k = 0.709628
        26        27        29        30     9      180.000000        1.304572         4    ;  uncertainty k = 0.371509
        26        27        29        62     9        0.000000       -0.067340         1    ;  uncertainty k = 0.187781
        26        27        29        62     9      180.000000        6.567591         2    ;  uncertainty k = 0.513907
        26        27        29        62     9        0.000000        1.467478         3    ;  uncertainty k = 0.411814
        26        27        29        62     9      180.000000        1.638651         4    ;  uncertainty k = 0.161799
        27        29        30        31     9        0.000000        0.218425         1    ;  uncertainty k = 0.391609
        27        29        30        31     9      180.000000       10.320843         2    ;  uncertainty k = 0.476040
        27        29        30        31     9        0.000000        1.370775         3    ;  uncertainty k = 0.241938
        27        29        30        31     9      180.000000        1.808912         4    ;  uncertainty k = 0.460745
        28        27        26        61     9        0.000000        0.125104         1    ;  uncertainty k = 0.415084
        28        27        26        61     9      180.000000        6.785021         2    ;  uncertainty k = 0.550711
        28        27        26        61     9        0.000000        0.689935         3    ;  uncertainty k = 0.454847
        28        27        26        61     9      180.000000        0.926966         4    ;  uncertainty k = 0.178610
        28        27        29        30     9        0.000000       -0.012995         1    ;  uncertainty k = 0.198611
        28        27        29        30     9      180.000000        9.267808         2    ;  uncertainty k = 0.538114
        28        27        29        30     9        0.000000        1.391768         3    ;  uncertainty k = 0.445063
        28        27        29        30     9      180.000000        1.591384         4    ;  uncertainty k = 0.100517
        28        27        29        62     9        0.000000        0.163579         1    ;  uncertainty k = 0.389269
        28        27        29        62     9      180.000000        7.384287         2    ;  uncertainty k = 0.545223
        28        27        29        62     9        0.000000        0.814260         3    ;  uncertainty k = 0.365361
        28        27        29        62     9      180.000000        1.020295         4    ;  uncertainty k = 0.224898
        29        27        26        61     9        0.000000        0.049149         1    ;  uncertainty k = 0.100352
        29        27        26        61     9      180.000000        5.953376         2    ;  uncertainty k = 0.555637
        29        27        26        61     9        0.000000        1.432580         3    ;  uncertainty k = 0.302055
        29        27        26        61     9      180.000000        1.521489         4    ;  uncertainty k = 0.137963
        29        30        31        32     9        0.000000        0.314513         1    ;  uncertainty k = 0.477646
        29        30        31        32     9      180.000000        1.618078         2    ;  uncertainty k = 0.586977
        29        30        31        32     9        0.000000       -0.271116         3    ;  uncertainty k = 0.407400
        29        30        31        32     9      180.000000        0.146719         4    ;  uncertainty k = 0.114821
        29        30        31        63     9        0.000000        0.401049         1    ;  uncertainty k = 0.770536
        29        30        31        63     9      180.000000        1.937082         2    ;  uncertainty k = 0.356104
        29        30        31        63     9        0.000000        0.081539         3    ;  uncertainty k = 0.119993
        29        30        31        63     9      180.000000        0.001825         4    ;  uncertainty k = 0.194543
        30        23        22        60     9        0.000000        9.987733         1    ;  uncertainty k = 0.573993
        30        23        22        60     9      180.000000        5.051653         2    ;  uncertainty k = 0.524626
        30        23        22        60     9        0.000000        0.360339         3    ;  uncertainty k = 0.274960
        30        23        22        60     9      180.000000        0.193157         4    ;  uncertainty k = 0.187783
        30        31        14        53     9        0.000000       -0.403931         1    ;  uncertainty k = 1.048664
        30        31        14        53     9      180.000000        0.640811         2    ;  uncertainty k = 0.474635
        30        31        14        53     9        0.000000        0.009916         3    ;  uncertainty k = 0.116581
        30        31        14        53     9      180.000000       -0.044952         4    ;  uncertainty k = 0.099585
        31        14        13        51     9        0.000000       -0.383857         1    ;  uncertainty k = 0.401076
        31        14        13        51     9      180.000000       -0.689611         2    ;  uncertainty k = 0.117285
        31        14        13        51     9        0.000000        0.279859         3    ;  uncertainty k = 0.114718
        31        14        13        51     9      180.000000       -0.011210         4    ;  uncertainty k = 0.054631
        31        14        13        52     9        0.000000       -0.383857         1    ;  uncertainty k = 0.401076
        31        14        13        52     9      180.000000       -0.689611         2    ;  uncertainty k = 0.117285
        31        14        13        52     9        0.000000        0.279859         3    ;  uncertainty k = 0.114718
        31        14        13        52     9      180.000000       -0.011210         4    ;  uncertainty k = 0.054631
        31        14        15        54     9        0.000000        0.638253         1    ;  uncertainty k = 0.714698
        31        14        15        54     9      180.000000       -1.363056         2    ;  uncertainty k = 0.735359
        31        14        15        54     9        0.000000       -0.400025         3    ;  uncertainty k = 0.139082
        31        14        15        54     9      180.000000        0.019824         4    ;  uncertainty k = 0.141202
        31        30        29        62     9        0.000000       -0.226217         1    ;  uncertainty k = 0.579569
        31        30        29        62     9      180.000000        8.231603         2    ;  uncertainty k = 0.837254
        31        30        29        62     9        0.000000        0.775660         3    ;  uncertainty k = 0.291594
        31        30        29        62     9      180.000000        1.119399         4    ;  uncertainty k = 0.436000
        31        32        11        48     9        0.000000       -2.011952         1    ;  uncertainty k = 1.240662
        31        32        11        48     9      180.000000       -0.780020         2    ;  uncertainty k = 0.335124
        31        32        11        48     9        0.000000        0.133499         3    ;  uncertainty k = 0.096230
        31        32        11        48     9      180.000000       -0.056912         4    ;  uncertainty k = 0.128650
        32        11        10        46     9        0.000000        0.280605         1    ;  uncertainty k = 0.382069
        32        11        10        46     9      180.000000       -1.265100         2    ;  uncertainty k = 0.238328
        32        11        10        46     9        0.000000        0.299824         3    ;  uncertainty k = 0.151114
        32        11        10        46     9      180.000000       -0.059441         4    ;  uncertainty k = 0.101772
        32        11        10        47     9        0.000000        0.280605         1    ;  uncertainty k = 0.382069
        32        11        10        47     9      180.000000       -1.265100         2    ;  uncertainty k = 0.238328
        32        11        10        47     9        0.000000        0.299824         3    ;  uncertainty k = 0.151114
        32        11        10        47     9      180.000000       -0.059441         4    ;  uncertainty k = 0.101772
        32        11        12        49     9        0.000000       -1.271233         1    ;  uncertainty k = 0.351671
        32        11        12        49     9      180.000000       -1.052526         2    ;  uncertainty k = 0.101733
        32        11        12        49     9        0.000000        0.866557         3    ;  uncertainty k = 0.165773
        32        11        12        49     9      180.000000       -0.137149         4    ;  uncertainty k = 0.095462
        32        11        12        50     9        0.000000       -1.271233         1    ;  uncertainty k = 0.351671
        32        11        12        50     9      180.000000       -1.052526         2    ;  uncertainty k = 0.101733
        32        11        12        50     9        0.000000        0.866557         3    ;  uncertainty k = 0.165773
        32        11        12        50     9      180.000000       -0.137149         4    ;  uncertainty k = 0.095462
        32        31        14        53     9        0.000000       -0.651010         1    ;  uncertainty k = 0.294724
        32        31        14        53     9      180.000000        0.605940         2    ;  uncertainty k = 0.497397
        32        31        14        53     9        0.000000        0.102854         3    ;  uncertainty k = 0.299001
        32        31        14        53     9      180.000000       -0.144513         4    ;  uncertainty k = 0.130406
        33         1         2        64     9        0.000000        0.052461         1    ;  uncertainty k = 0.508551
        33         1         2        64     9      180.000000       -0.575738         2    ;  uncertainty k = 0.413591
        33         1         2        64     9        0.000000        0.376165         3    ;  uncertainty k = 0.059944
        33         1         2        64     9      180.000000        0.083578         4    ;  uncertainty k = 0.106013
        34         1         2        64     9        0.000000        0.052461         1    ;  uncertainty k = 0.508551
        34         1         2        64     9      180.000000       -0.575738         2    ;  uncertainty k = 0.413591
        34         1         2        64     9        0.000000        0.376165         3    ;  uncertainty k = 0.059944
        34         1         2        64     9      180.000000        0.083578         4    ;  uncertainty k = 0.106013
        35         1         2        64     9        0.000000        0.052461         1    ;  uncertainty k = 0.508551
        35         1         2        64     9      180.000000       -0.575738         2    ;  uncertainty k = 0.413591
        35         1         2        64     9        0.000000        0.376165         3    ;  uncertainty k = 0.059944
        35         1         2        64     9      180.000000        0.083578         4    ;  uncertainty k = 0.106013
        36         3         2        64     9        0.000000        0.052461         1    ;  uncertainty k = 0.508551
        36         3         2        64     9      180.000000       -0.575738         2    ;  uncertainty k = 0.413591
        36         3         2        64     9        0.000000        0.376165         3    ;  uncertainty k = 0.059944
        36         3         2        64     9      180.000000        0.083578         4    ;  uncertainty k = 0.106013
        37         3         2        64     9        0.000000        0.052461         1    ;  uncertainty k = 0.508551
        37         3         2        64     9      180.000000       -0.575738         2    ;  uncertainty k = 0.413591
        37         3         2        64     9        0.000000        0.376165         3    ;  uncertainty k = 0.059944
        37         3         2        64     9      180.000000        0.083578         4    ;  uncertainty k = 0.106013
        38         3         2        64     9        0.000000        0.052461         1    ;  uncertainty k = 0.508551
        38         3         2        64     9      180.000000       -0.575738         2    ;  uncertainty k = 0.413591
        38         3         2        64     9        0.000000        0.376165         3    ;  uncertainty k = 0.059944
        38         3         2        64     9      180.000000        0.083578         4    ;  uncertainty k = 0.106013
        39         4         2        64     9        0.000000        0.935604         1    ;  uncertainty k = 0.596539
        39         4         2        64     9      180.000000       -0.610772         2    ;  uncertainty k = 0.297958
        39         4         2        64     9        0.000000        0.004091         3    ;  uncertainty k = 0.191108
        39         4         2        64     9      180.000000       -0.043038         4    ;  uncertainty k = 0.092090
        39         4         5        41     9        0.000000        0.523980         1    ;  uncertainty k = 0.387675
        39         4         5        41     9      180.000000       -0.042800         2    ;  uncertainty k = 0.406595
        39         4         5        41     9        0.000000        0.118809         3    ;  uncertainty k = 0.116846
        39         4         5        41     9      180.000000        0.030261         4    ;  uncertainty k = 0.051023
        39         4         5        42     9        0.000000        0.523980         1    ;  uncertainty k = 0.387675
        39         4         5        42     9      180.000000       -0.042800         2    ;  uncertainty k = 0.406595
        39         4         5        42     9        0.000000        0.118809         3    ;  uncertainty k = 0.116846
        39         4         5        42     9      180.000000        0.030261         4    ;  uncertainty k = 0.051023
        40         4         2        64     9        0.000000        0.935604         1    ;  uncertainty k = 0.596539
        40         4         2        64     9      180.000000       -0.610772         2    ;  uncertainty k = 0.297958
        40         4         2        64     9        0.000000        0.004091         3    ;  uncertainty k = 0.191108
        40         4         2        64     9      180.000000       -0.043038         4    ;  uncertainty k = 0.092090
        40         4         5        41     9        0.000000        0.523980         1    ;  uncertainty k = 0.387675
        40         4         5        41     9      180.000000       -0.042800         2    ;  uncertainty k = 0.406595
        40         4         5        41     9        0.000000        0.118809         3    ;  uncertainty k = 0.116846
        40         4         5        41     9      180.000000        0.030261         4    ;  uncertainty k = 0.051023
        40         4         5        42     9        0.000000        0.523980         1    ;  uncertainty k = 0.387675
        40         4         5        42     9      180.000000       -0.042800         2    ;  uncertainty k = 0.406595
        40         4         5        42     9        0.000000        0.118809         3    ;  uncertainty k = 0.116846
        40         4         5        42     9      180.000000        0.030261         4    ;  uncertainty k = 0.051023
        41         5         6        43     9        0.000000        0.818385         1    ;  uncertainty k = 0.474987
        41         5         6        43     9      180.000000       -0.394820         2    ;  uncertainty k = 0.200142
        41         5         6        43     9        0.000000        0.168604         3    ;  uncertainty k = 0.159476
        41         5         6        43     9      180.000000        0.052880         4    ;  uncertainty k = 0.034835
        41         5         6        44     9        0.000000        0.818385         1    ;  uncertainty k = 0.474987
        41         5         6        44     9      180.000000       -0.394820         2    ;  uncertainty k = 0.200142
        41         5         6        44     9        0.000000        0.168604         3    ;  uncertainty k = 0.159476
        41         5         6        44     9      180.000000        0.052880         4    ;  uncertainty k = 0.034835
        42         5         6        43     9        0.000000        0.818385         1    ;  uncertainty k = 0.474987
        42         5         6        43     9      180.000000       -0.394820         2    ;  uncertainty k = 0.200142
        42         5         6        43     9        0.000000        0.168604         3    ;  uncertainty k = 0.159476
        42         5         6        43     9      180.000000        0.052880         4    ;  uncertainty k = 0.034835
        42         5         6        44     9        0.000000        0.818385         1    ;  uncertainty k = 0.474987
        42         5         6        44     9      180.000000       -0.394820         2    ;  uncertainty k = 0.200142
        42         5         6        44     9        0.000000        0.168604         3    ;  uncertainty k = 0.159476
        42         5         6        44     9      180.000000        0.052880         4    ;  uncertainty k = 0.034835
        45         9        10        46     9        0.000000        0.639745         1    ;  uncertainty k = 0.313494
        45         9        10        46     9      180.000000       -0.634334         2    ;  uncertainty k = 0.233353
        45         9        10        46     9        0.000000        0.390799         3    ;  uncertainty k = 0.058214
        45         9        10        46     9      180.000000        0.155264         4    ;  uncertainty k = 0.038088
        45         9        10        47     9        0.000000        0.639745         1    ;  uncertainty k = 0.313494
        45         9        10        47     9      180.000000       -0.634334         2    ;  uncertainty k = 0.233353
        45         9        10        47     9        0.000000        0.390799         3    ;  uncertainty k = 0.058214
        45         9        10        47     9      180.000000        0.155264         4    ;  uncertainty k = 0.038088
        46        10        11        48     9        0.000000        0.086204         1    ;  uncertainty k = 0.191150
        46        10        11        48     9      180.000000       -0.162172         2    ;  uncertainty k = 0.190823
        46        10        11        48     9        0.000000        0.071270         3    ;  uncertainty k = 0.047537
        46        10        11        48     9      180.000000       -0.072377         4    ;  uncertainty k = 0.097827
        47        10        11        48     9        0.000000        0.086204         1    ;  uncertainty k = 0.191150
        47        10        11        48     9      180.000000       -0.162172         2    ;  uncertainty k = 0.190823
        47        10        11        48     9        0.000000        0.071270         3    ;  uncertainty k = 0.047537
        47        10        11        48     9      180.000000       -0.072377         4    ;  uncertainty k = 0.097827
        48        11        12        49     9        0.000000        0.253742         1    ;  uncertainty k = 0.261988
        48        11        12        49     9      180.000000        0.173320         2    ;  uncertainty k = 0.392304
        48        11        12        49     9        0.000000       -0.050342         3    ;  uncertainty k = 0.084164
        48        11        12        49     9      180.000000       -0.202385         4    ;  uncertainty k = 0.105271
        48        11        12        50     9        0.000000        0.253742         1    ;  uncertainty k = 0.261988
        48        11        12        50     9      180.000000        0.173320         2    ;  uncertainty k = 0.392304
        48        11        12        50     9        0.000000       -0.050342         3    ;  uncertainty k = 0.084164
        48        11        12        50     9      180.000000       -0.202385         4    ;  uncertainty k = 0.105271
        49        12        13        51     9        0.000000        1.668534         1    ;  uncertainty k = 0.432976
        49        12        13        51     9      180.000000        0.114741         2    ;  uncertainty k = 0.247989
        49        12        13        51     9        0.000000        0.345276         3    ;  uncertainty k = 0.102093
        49        12        13        51     9      180.000000        0.074717         4    ;  uncertainty k = 0.026488
        49        12        13        52     9        0.000000        1.668534         1    ;  uncertainty k = 0.432976
        49        12        13        52     9      180.000000        0.114741         2    ;  uncertainty k = 0.247989
        49        12        13        52     9        0.000000        0.345276         3    ;  uncertainty k = 0.102093
        49        12        13        52     9      180.000000        0.074717         4    ;  uncertainty k = 0.026488
        50        12        13        51     9        0.000000        1.668534         1    ;  uncertainty k = 0.432976
        50        12        13        51     9      180.000000        0.114741         2    ;  uncertainty k = 0.247989
        50        12        13        51     9        0.000000        0.345276         3    ;  uncertainty k = 0.102093
        50        12        13        51     9      180.000000        0.074717         4    ;  uncertainty k = 0.026488
        50        12        13        52     9        0.000000        1.668534         1    ;  uncertainty k = 0.432976
        50        12        13        52     9      180.000000        0.114741         2    ;  uncertainty k = 0.247989
        50        12        13        52     9        0.000000        0.345276         3    ;  uncertainty k = 0.102093
        50        12        13        52     9      180.000000        0.074717         4    ;  uncertainty k = 0.026488
        51        13        14        53     9        0.000000        1.545254         1    ;  uncertainty k = 0.344376
        51        13        14        53     9      180.000000       -0.020690         2    ;  uncertainty k = 0.342602
        51        13        14        53     9        0.000000       -0.070632         3    ;  uncertainty k = 0.119714
        51        13        14        53     9      180.000000        0.013810         4    ;  uncertainty k = 0.071778
        52        13        14        53     9        0.000000        1.545254         1    ;  uncertainty k = 0.344376
        52        13        14        53     9      180.000000       -0.020690         2    ;  uncertainty k = 0.342602
        52        13        14        53     9        0.000000       -0.070632         3    ;  uncertainty k = 0.119714
        52        13        14        53     9      180.000000        0.013810         4    ;  uncertainty k = 0.071778
        53        14        15        54     9        0.000000        1.060795         1    ;  uncertainty k = 0.473342
        53        14        15        54     9      180.000000       -0.041496         2    ;  uncertainty k = 0.253895
        53        14        15        54     9        0.000000       -0.344094         3    ;  uncertainty k = 0.165557
        53        14        15        54     9      180.000000       -0.269487         4    ;  uncertainty k = 0.106351
        53        14        31        63     9        0.000000        2.051481         1    ;  uncertainty k = 0.474603
        53        14        31        63     9      180.000000        0.847338         2    ;  uncertainty k = 0.462033
        53        14        31        63     9        0.000000       -0.480631         3    ;  uncertainty k = 0.227002
        53        14        31        63     9      180.000000       -0.167109         4    ;  uncertainty k = 0.068080
        54        15        22        60     9        0.000000        0.363982         1    ;  uncertainty k = 0.625038
        54        15        22        60     9      180.000000       -0.862575         2    ;  uncertainty k = 0.318184
        54        15        22        60     9        0.000000        0.523809         3    ;  uncertainty k = 0.251385
        54        15        22        60     9      180.000000        0.051527         4    ;  uncertainty k = 0.122685
        55        17        18        56     9        0.000000       -0.038401         1    ;  uncertainty k = 0.034127
        55        17        18        56     9      180.000000        7.644155         2    ;  uncertainty k = 0.255448
        55        17        18        56     9        0.000000       -0.470075         3    ;  uncertainty k = 0.270053
        55        17        18        56     9      180.000000        0.106023         4    ;  uncertainty k = 0.117776
        56        18        19        57     9        0.000000       -0.016279         1    ;  uncertainty k = 0.090335
        56        18        19        57     9      180.000000        7.510681         2    ;  uncertainty k = 0.369437
        56        18        19        57     9        0.000000       -0.422665         3    ;  uncertainty k = 0.276612
        56        18        19        57     9      180.000000        0.041075         4    ;  uncertainty k = 0.155578
        57        19        20        58     9        0.000000       -0.016279         1    ;  uncertainty k = 0.090335
        57        19        20        58     9      180.000000        7.510681         2    ;  uncertainty k = 0.369437
        57        19        20        58     9        0.000000       -0.422665         3    ;  uncertainty k = 0.276612
        57        19        20        58     9      180.000000        0.041075         4    ;  uncertainty k = 0.155578
        58        20        21        59     9        0.000000       -0.038401         1    ;  uncertainty k = 0.034127
        58        20        21        59     9      180.000000        7.644155         2    ;  uncertainty k = 0.255448
        58        20        21        59     9        0.000000       -0.470075         3    ;  uncertainty k = 0.270053
        58        20        21        59     9      180.000000        0.106023         4    ;  uncertainty k = 0.117776

[ dihedrals ] ; impropers
;       ai        aj        ak        al funct           phase               k        pn
         7         6         8         9     4      180.000000       54.225886         2    ;  uncertainty k = 0.027975
         7         8         9         6     4      180.000000       54.225886         2    ;  uncertainty k = 0.027975
         7         9         6         8     4      180.000000       54.225886         2    ;  uncertainty k = 0.027975
         9         7        10        45     4      180.000000        0.555467         2    ;  uncertainty k = 1.242063
         9        10        45         7     4      180.000000        0.555467         2    ;  uncertainty k = 1.242063
         9        45         7        10     4      180.000000        0.555467         2    ;  uncertainty k = 1.242063
        16        15        17        21     4      180.000000       12.872177         2    ;  uncertainty k = 0.122291
        16        17        21        15     4      180.000000       12.872177         2    ;  uncertainty k = 0.122291
        16        21        15        17     4      180.000000       12.872177         2    ;  uncertainty k = 0.122291
        17        16        18        55     4      180.000000        4.073199         2    ;  uncertainty k = 0.089533
        17        18        55        16     4      180.000000        4.073199         2    ;  uncertainty k = 0.089533
        17        55        16        18     4      180.000000        4.073199         2    ;  uncertainty k = 0.089533
        18        17        19        56     4      180.000000        4.075594         2    ;  uncertainty k = 0.076311
        18        19        56        17     4      180.000000        4.075594         2    ;  uncertainty k = 0.076311
        18        56        17        19     4      180.000000        4.075594         2    ;  uncertainty k = 0.076311
        19        18        20        57     4      180.000000        4.286747         2    ;  uncertainty k = 0.163794
        19        20        57        18     4      180.000000        4.286747         2    ;  uncertainty k = 0.163794
        19        57        18        20     4      180.000000        4.286747         2    ;  uncertainty k = 0.163794
        20        19        21        58     4      180.000000        4.075594         2    ;  uncertainty k = 0.076311
        20        21        58        19     4      180.000000        4.075594         2    ;  uncertainty k = 0.076311
        20        58        19        21     4      180.000000        4.075594         2    ;  uncertainty k = 0.076311
        21        16        20        59     4      180.000000        4.073199         2    ;  uncertainty k = 0.089533
        21        20        59        16     4      180.000000        4.073199         2    ;  uncertainty k = 0.089533
        21        59        16        20     4      180.000000        4.073199         2    ;  uncertainty k = 0.089533
        23        22        24        30     4      180.000000       18.238755         2    ;  uncertainty k = 0.120667
        23        24        30        22     4      180.000000       18.238755         2    ;  uncertainty k = 0.120667
        23        30        22        24     4      180.000000       18.238755         2    ;  uncertainty k = 0.120667
        24        23        25        26     4      180.000000       10.213185         2    ;  uncertainty k = 0.191744
        24        25        26        23     4      180.000000       10.213185         2    ;  uncertainty k = 0.191744
        24        26        23        25     4      180.000000       10.213185         2    ;  uncertainty k = 0.191744
        26        24        27        61     4      180.000000        2.235718         2    ;  uncertainty k = 0.158488
        26        27        61        24     4      180.000000        2.235718         2    ;  uncertainty k = 0.158488
        26        61        24        27     4      180.000000        2.235718         2    ;  uncertainty k = 0.158488
        27        26        28        29     4      180.000000       10.277731         2    ;  uncertainty k = 0.169849
        27        28        29        26     4      180.000000       10.277731         2    ;  uncertainty k = 0.169849
        27        29        26        28     4      180.000000       10.277731         2    ;  uncertainty k = 0.169849
        29        27        30        62     4      180.000000        3.635690         2    ;  uncertainty k = 0.237266
        29        30        62        27     4      180.000000        3.635690         2    ;  uncertainty k = 0.237266
        29        62        27        30     4      180.000000        3.635690         2    ;  uncertainty k = 0.237266
        30        23        29        31     4      180.000000       10.932321         2    ;  uncertainty k = 0.232279
        30        29        31        23     4      180.000000       10.932321         2    ;  uncertainty k = 0.232279
        30        31        23        29     4      180.000000       10.932321         2    ;  uncertainty k = 0.232279

[ pairs ]
;       ai        aj funct
         1         5     1
         1        36     1
         1        37     1
         1        38     1
         1        39     1
         1        40     1
         2         6     1
         2        41     1
         2        42     1
         3         5     1
         3        33     1
         3        34     1
         3        35     1
         3        39     1
         3        40     1
         4         7     1
         4        33     1
         4        34     1
         4        35     1
         4        36     1
         4        37     1
         4        38     1
         4        43     1
         4        44     1
         5         8     1
         5         9     1
         5        64     1
         6        10     1
         6        39     1
         6        40     1
         6        45     1
         7        11     1
         7        41     1
         7        42     1
         7        46     1
         7        47     1
         8        10     1
         8        43     1
         8        44     1
         8        45     1
         9        12     1
         9        32     1
         9        43     1
         9        44     1
         9        48     1
        10        13     1
        10        31     1
        10        49     1
        10        50     1
        11        14     1
        11        30     1
        11        45     1
        11        51     1
        11        52     1
        11        63     1
        12        15     1
        12        31     1
        12        46     1
        12        47     1
        12        53     1
        13        16     1
        13        22     1
        13        30     1
        13        32     1
        13        48     1
        13        54     1
        13        63     1
        14        17     1
        14        21     1
        14        23     1
        14        29     1
        14        49     1
        14        50     1
        14        60     1
        15        18     1
        15        20     1
        15        24     1
        15        30     1
        15        32     1
        15        51     1
        15        52     1
        15        55     1
        15        59     1
        15        63     1
        16        19     1
        16        23     1
        16        31     1
        16        53     1
        16        56     1
        16        58     1
        16        60     1
        17        20     1
        17        22     1
        17        54     1
        17        57     1
        17        59     1
        18        21     1
        18        58     1
        19        55     1
        19        59     1
        20        56     1
        21        22     1
        21        54     1
        21        55     1
        21        57     1
        22        25     1
        22        26     1
        22        29     1
        22        31     1
        22        53     1
        23        27     1
        23        32     1
        23        54     1
        23        61     1
        23        62     1
        23        63     1
        24        28     1
        24        29     1
        24        31     1
        24        60     1
        25        27     1
        25        30     1
        25        61     1
        26        30     1
        26        62     1
        27        31     1
        28        30     1
        28        61     1
        28        62     1
        29        32     1
        29        61     1
        29        63     1
        30        53     1
        30        60     1
        31        48     1
        31        51     1
        31        52     1
        31        54     1
        31        62     1
        32        46     1
        32        47     1
        32        49     1
        32        50     1
        32        53     1
        33        64     1
        34        64     1
        35        64     1
        36        64     1
        37        64     1
        38        64     1
        39        41     1
        39        42     1
        39        64     1
        40        41     1
        40        42     1
        40        64     1
        41        43     1
        41        44     1
        42        43     1
        42        44     1
        45        46     1
        45        47     1
        46        48     1
        47        48     1
        48        49     1
        48        50     1
        49        51     1
        49        52     1
        50        51     1
        50        52     1
        51        53     1
        52        53     1
        53        54     1
        53        63     1
        54        60     1
        55        56     1
        56        57     1
        57        58     1
        58        59     1
