; ITP file created by ByteFF-joint-25, 2026-02-17 09:16:20.739595

[ atomtypes ]
;name           bonded.type        at.num        mass        charge   ptype           sigma         epsilon
 c0bf                                   6      0.0000       0.00000       A     3.39760e-01     4.51227e-01    ;  uncertainty sigma = 0.000012, epsilon = 0.000864
 c1bf                                   6      0.0000       0.00000       A     3.39784e-01     4.51076e-01    ;  uncertainty sigma = 0.000011, epsilon = 0.000821
 c2bf                                   6      0.0000       0.00000       A     3.39747e-01     4.50865e-01    ;  uncertainty sigma = 0.000011, epsilon = 0.000702
 c3bf                                   6      0.0000       0.00000       A     3.39746e-01     4.51244e-01    ;  uncertainty sigma = 0.000036, epsilon = 0.000863
 c4bf                                   6      0.0000       0.00000       A     3.39774e-01     4.51693e-01    ;  uncertainty sigma = 0.000009, epsilon = 0.001676
 c5bf                                   6      0.0000       0.00000       A     3.31532e-01     4.13295e-01    ;  uncertainty sigma = 0.000012, epsilon = 0.000849
 c6bf                                   6      0.0000       0.00000       A     3.31519e-01     4.13329e-01    ;  uncertainty sigma = 0.000002, epsilon = 0.000632
 c7bf                                   6      0.0000       0.00000       A     3.31520e-01     4.13328e-01    ;  uncertainty sigma = 0.000003, epsilon = 0.000582
 c8bf                                   6      0.0000       0.00000       A     3.31518e-01     4.13340e-01    ;  uncertainty sigma = 0.000003, epsilon = 0.000580
 c9bf                                   6      0.0000       0.00000       A     3.31520e-01     4.13328e-01    ;  uncertainty sigma = 0.000003, epsilon = 0.000582
 c10bf                                  6      0.0000       0.00000       A     3.31519e-01     4.13329e-01    ;  uncertainty sigma = 0.000002, epsilon = 0.000632
 n11bf                                  7      0.0000       0.00000       A     3.27909e-01     6.44316e-01    ;  uncertainty sigma = 0.000015, epsilon = 0.004120
 c12bf                                  6      0.0000       0.00000       A     3.31547e-01     4.13317e-01    ;  uncertainty sigma = 0.000014, epsilon = 0.001008
 c13bf                                  6      0.0000       0.00000       A     3.31527e-01     4.13502e-01    ;  uncertainty sigma = 0.000009, epsilon = 0.000517
 c14bf                                  6      0.0000       0.00000       A     3.31522e-01     4.13336e-01    ;  uncertainty sigma = 0.000005, epsilon = 0.000679
 c15bf                                  6      0.0000       0.00000       A     3.31527e-01     4.13190e-01    ;  uncertainty sigma = 0.000007, epsilon = 0.000624
 cl16bf                                17      0.0000       0.00000       A     3.46604e-01     1.10418e+00    ;  uncertainty sigma = 0.000017, epsilon = 0.000800
 c17bf                                  6      0.0000       0.00000       A     3.31510e-01     4.13440e-01    ;  uncertainty sigma = 0.000006, epsilon = 0.000790
 c18bf                                  6      0.0000       0.00000       A     3.31540e-01     4.13459e-01    ;  uncertainty sigma = 0.000013, epsilon = 0.000501
 c19bf                                  6      0.0000       0.00000       A     3.39774e-01     4.50264e-01    ;  uncertainty sigma = 0.000018, epsilon = 0.001403
 o20bf                                  8      0.0000       0.00000       A     3.15596e-01     3.04740e-01    ;  uncertainty sigma = 0.000023, epsilon = 0.001772
 h21bf                                  1      0.0000       0.00000       A     2.42227e-01     8.66832e-02    ;  uncertainty sigma = 0.000023, epsilon = 0.000687
 h22bf                                  1      0.0000       0.00000       A     2.60028e-01     8.66444e-02    ;  uncertainty sigma = 0.000004, epsilon = 0.000700
 h23bf                                  1      0.0000       0.00000       A     2.60028e-01     8.66444e-02    ;  uncertainty sigma = 0.000004, epsilon = 0.000700
 h24bf                                  1      0.0000       0.00000       A     2.60033e-01     8.66495e-02    ;  uncertainty sigma = 0.000008, epsilon = 0.000752
 h25bf                                  1      0.0000       0.00000       A     2.60033e-01     8.66495e-02    ;  uncertainty sigma = 0.000008, epsilon = 0.000752
 h26bf                                  1      0.0000       0.00000       A     2.59938e-01     8.64076e-02    ;  uncertainty sigma = 0.000052, epsilon = 0.000980
 h27bf                                  1      0.0000       0.00000       A     2.42303e-01     8.69597e-02    ;  uncertainty sigma = 0.000074, epsilon = 0.001557
 h28bf                                  1      0.0000       0.00000       A     2.62560e-01     6.70316e-02    ;  uncertainty sigma = 0.000006, epsilon = 0.000529
 h29bf                                  1      0.0000       0.00000       A     2.62559e-01     6.70250e-02    ;  uncertainty sigma = 0.000010, epsilon = 0.000440
 h30bf                                  1      0.0000       0.00000       A     2.62552e-01     6.70647e-02    ;  uncertainty sigma = 0.000011, epsilon = 0.000453
 h31bf                                  1      0.0000       0.00000       A     2.62559e-01     6.70249e-02    ;  uncertainty sigma = 0.000010, epsilon = 0.000440
 h32bf                                  1      0.0000       0.00000       A     2.62560e-01     6.70315e-02    ;  uncertainty sigma = 0.000006, epsilon = 0.000529
 h33bf                                  1      0.0000       0.00000       A     1.10675e-01     4.07500e-02    ;  uncertainty sigma = 0.000109, epsilon = 0.000764
 h34bf                                  1      0.0000       0.00000       A     2.62564e-01     6.69524e-02    ;  uncertainty sigma = 0.000014, epsilon = 0.000563
 h35bf                                  1      0.0000       0.00000       A     2.62553e-01     6.70564e-02    ;  uncertainty sigma = 0.000011, epsilon = 0.000615
 h36bf                                  1      0.0000       0.00000       A     2.62544e-01     6.69723e-02    ;  uncertainty sigma = 0.000010, epsilon = 0.000546
 h37bf                                  1      0.0000       0.00000       A     2.42261e-01     8.77191e-02    ;  uncertainty sigma = 0.000247, epsilon = 0.001655
 h38bf                                  1      0.0000       0.00000       A     2.42227e-01     8.66834e-02    ;  uncertainty sigma = 0.000023, epsilon = 0.000687

[ moleculetype ]
;name             nrexcl
 MOL                   3

[ atoms ]
;       nr            type      resi   res      atom      cgnr      charge          mass ; qtot
         1            c0bf         1   UNL        c0         1     0.13235       12.0110 ; qtot    0.132
         2            c1bf         1   UNL        c1         2    -0.10923       12.0110 ; qtot    0.023
         3            c2bf         1   UNL        c2         3    -0.06734       12.0110 ; qtot   -0.044
         4            c3bf         1   UNL        c3         4    -0.09486       12.0110 ; qtot   -0.139
         5            c4bf         1   UNL        c4         5     0.25861       12.0110 ; qtot    0.120
         6            c5bf         1   UNL        c5         6    -0.10560       12.0110 ; qtot    0.014
         7            c6bf         1   UNL        c6         7    -0.11888       12.0110 ; qtot   -0.105
         8            c7bf         1   UNL        c7         8    -0.13078       12.0110 ; qtot   -0.236
         9            c8bf         1   UNL        c8         9    -0.12452       12.0110 ; qtot   -0.360
        10            c9bf         1   UNL        c9        10    -0.13078       12.0110 ; qtot   -0.491
        11           c10bf         1   UNL       c10        11    -0.11888       12.0110 ; qtot   -0.610
        12           n11bf         1   UNL       n11        12    -0.73793       14.0070 ; qtot   -1.348
        13           c12bf         1   UNL       c12        13     0.16454       12.0110 ; qtot   -1.183
        14           c13bf         1   UNL       c13        14    -0.18557       12.0110 ; qtot   -1.369
        15           c14bf         1   UNL       c14        15    -0.07460       12.0110 ; qtot   -1.443
        16           c15bf         1   UNL       c15        16    -0.00553       12.0110 ; qtot   -1.449
        17          cl16bf         1   UNL      cl16        17    -0.11613       35.4530 ; qtot   -1.565
        18           c17bf         1   UNL       c17        18    -0.06380       12.0110 ; qtot   -1.629
        19           c18bf         1   UNL       c18        19    -0.14072       12.0110 ; qtot   -1.770
        20           c19bf         1   UNL       c19        20     0.19920       12.0110 ; qtot   -1.570
        21           o20bf         1   UNL       o20        21    -0.41362       15.9990 ; qtot   -1.984
        22           h21bf         1   UNL       h21        22     0.04503        1.0080 ; qtot   -1.939
        23           h22bf         1   UNL       h22        23     0.04980        1.0080 ; qtot   -1.889
        24           h23bf         1   UNL       h23        24     0.04980        1.0080 ; qtot   -1.839
        25           h24bf         1   UNL       h24        25     0.04883        1.0080 ; qtot   -1.791
        26           h25bf         1   UNL       h25        26     0.04883        1.0080 ; qtot   -1.742
        27           h26bf         1   UNL       h26        27     0.06824        1.0080 ; qtot   -1.674
        28           h27bf         1   UNL       h27        28     0.05360        1.0080 ; qtot   -1.620
        29           h28bf         1   UNL       h28        29     0.13512        1.0080 ; qtot   -1.485
        30           h29bf         1   UNL       h29        30     0.13172        1.0080 ; qtot   -1.353
        31           h30bf         1   UNL       h30        31     0.13373        1.0080 ; qtot   -1.219
        32           h31bf         1   UNL       h31        32     0.13172        1.0080 ; qtot   -1.088
        33           h32bf         1   UNL       h32        33     0.13512        1.0080 ; qtot   -0.953
        34           h33bf         1   UNL       h33        34     0.40889        1.0080 ; qtot   -0.544
        35           h34bf         1   UNL       h34        35     0.13706        1.0080 ; qtot   -0.407
        36           h35bf         1   UNL       h35        36     0.15355        1.0080 ; qtot   -0.253
        37           h36bf         1   UNL       h36        37     0.15193        1.0080 ; qtot   -0.101
        38           h37bf         1   UNL       h37        38     0.05611        1.0080 ; qtot   -0.045
        39           h38bf         1   UNL       h38        39     0.04499        1.0080 ; qtot   -0.000

[ bonds ]
;       ai        aj funct               r               k
         1         2     1        0.153178   212664.543018    ;  uncertainty r = 0.000056, k = 6.267573
         1        21     1        0.143168   244780.880029    ;  uncertainty r = 0.000065, k = 3.739084
         1        22     1        0.109789   309021.164111    ;  uncertainty r = 0.000034, k = 2.302405
         1        39     1        0.109789   309021.164111    ;  uncertainty r = 0.000034, k = 2.302428
         2         3     1        0.153534   217236.758154    ;  uncertainty r = 0.000050, k = 3.270363
         2        23     1        0.109705   309216.752832    ;  uncertainty r = 0.000022, k = 1.341908
         2        24     1        0.109705   309216.752832    ;  uncertainty r = 0.000022, k = 1.341908
         3         4     1        0.153450   203518.772046    ;  uncertainty r = 0.000107, k = 7.150166
         3        25     1        0.109614   307449.482715    ;  uncertainty r = 0.000015, k = 1.009316
         3        26     1        0.109614   307449.482715    ;  uncertainty r = 0.000015, k = 1.009316
         4         5     1        0.153775   193986.254321    ;  uncertainty r = 0.000050, k = 9.381612
         4        20     1        0.153604   195349.208154    ;  uncertainty r = 0.000084, k = 11.893569
         4        27     1        0.109725   307252.846973    ;  uncertainty r = 0.000064, k = 4.562684
         5         6     1        0.151697   221951.776807    ;  uncertainty r = 0.000088, k = 6.014261
         5        12     1        0.146438   246437.395703    ;  uncertainty r = 0.000120, k = 17.715154
         5        28     1        0.110060   298327.116504    ;  uncertainty r = 0.000134, k = 4.183467
         6         7     1        0.139859   350947.632764    ;  uncertainty r = 0.000040, k = 0.862455
         6        11     1        0.139859   350947.632764    ;  uncertainty r = 0.000040, k = 0.862455
         7         8     1        0.139620   365997.698340    ;  uncertainty r = 0.000023, k = 1.204469
         7        29     1        0.108883   334327.852148    ;  uncertainty r = 0.000023, k = 0.510247
         8         9     1        0.139607   371240.926563    ;  uncertainty r = 0.000016, k = 0.703150
         8        30     1        0.108851   333986.931738    ;  uncertainty r = 0.000010, k = 1.017328
         9        10     1        0.139607   371240.977637    ;  uncertainty r = 0.000016, k = 0.703160
         9        31     1        0.108841   334518.920801    ;  uncertainty r = 0.000012, k = 0.635600
        10        11     1        0.139620   365997.698340    ;  uncertainty r = 0.000023, k = 1.204462
        10        32     1        0.108851   333986.906201    ;  uncertainty r = 0.000010, k = 1.017361
        11        33     1        0.108883   334327.852148    ;  uncertainty r = 0.000023, k = 0.510237
        12        13     1        0.139645   345105.840234    ;  uncertainty r = 0.000096, k = 8.538266
        12        34     1        0.101439   412844.274170    ;  uncertainty r = 0.000047, k = 2.472846
        13        14     1        0.140784   368115.924951    ;  uncertainty r = 0.000092, k = 7.126808
        13        19     1        0.140796   348297.442627    ;  uncertainty r = 0.000146, k = 25.540660
        14        15     1        0.139080   378575.260986    ;  uncertainty r = 0.000043, k = 2.676960
        14        35     1        0.108914   337423.818066    ;  uncertainty r = 0.000018, k = 1.428374
        15        16     1        0.139600   360919.771826    ;  uncertainty r = 0.000039, k = 1.735472
        15        36     1        0.108660   335139.932227    ;  uncertainty r = 0.000014, k = 0.834392
        16        17     1        0.175968   198373.657397    ;  uncertainty r = 0.000040, k = 6.009335
        16        18     1        0.139406   356182.484814    ;  uncertainty r = 0.000047, k = 2.617165
        18        19     1        0.139362   355007.369189    ;  uncertainty r = 0.000072, k = 2.386242
        18        37     1        0.108756   336479.864355    ;  uncertainty r = 0.000035, k = 1.970896
        19        20     1        0.151214   219488.645996    ;  uncertainty r = 0.000152, k = 8.290398
        20        21     1        0.143266   229802.241748    ;  uncertainty r = 0.000145, k = 6.773017
        20        38     1        0.110145   303533.418066    ;  uncertainty r = 0.000119, k = 3.210455

[ angles ]
;       ai        aj        ak funct           theta             cth
         1         2         3     1      108.895340      622.021865    ;  uncertainty theta = 0.003135, k = 0.047303
         1         2        23     1      108.338806      394.557916    ;  uncertainty theta = 0.002162, k = 0.073352
         1         2        24     1      108.338806      394.557916    ;  uncertainty theta = 0.002162, k = 0.073352
         1        21        20     1      110.362350      531.990690    ;  uncertainty theta = 0.004432, k = 0.183605
         2         1        21     1      110.976479      700.365439    ;  uncertainty theta = 0.002752, k = 0.153829
         2         1        22     1      110.168640      413.776187    ;  uncertainty theta = 0.002719, k = 0.093986
         2         1        39     1      110.168640      413.776187    ;  uncertainty theta = 0.002719, k = 0.093986
         2         3         4     1      109.502563      587.733380    ;  uncertainty theta = 0.002573, k = 0.134699
         2         3        25     1      108.974266      411.308600    ;  uncertainty theta = 0.001957, k = 0.092227
         2         3        26     1      108.974266      411.308600    ;  uncertainty theta = 0.001957, k = 0.092227
         3         2        23     1      109.084801      397.643278    ;  uncertainty theta = 0.001279, k = 0.048915
         3         2        24     1      109.084801      397.643278    ;  uncertainty theta = 0.001279, k = 0.048915
         3         4         5     1      110.662064      548.758516    ;  uncertainty theta = 0.001783, k = 0.181753
         3         4        20     1      109.980225      581.540950    ;  uncertainty theta = 0.002636, k = 0.114275
         3         4        27     1      108.075058      401.656435    ;  uncertainty theta = 0.003574, k = 0.096487
         4         3        25     1      108.080505      388.508877    ;  uncertainty theta = 0.001259, k = 0.065298
         4         3        26     1      108.080505      388.508877    ;  uncertainty theta = 0.001259, k = 0.065298
         4         5         6     1      111.684738      537.747170    ;  uncertainty theta = 0.002445, k = 0.172939
         4         5        12     1      108.406204      703.811481    ;  uncertainty theta = 0.004330, k = 0.112192
         4         5        28     1      107.096603      385.327464    ;  uncertainty theta = 0.002709, k = 0.129526
         4        20        19     1      111.608925      549.113865    ;  uncertainty theta = 0.005184, k = 0.203031
         4        20        21     1      111.173302      672.831839    ;  uncertainty theta = 0.004155, k = 0.050325
         4        20        38     1      107.722496      392.644325    ;  uncertainty theta = 0.004630, k = 0.132983
         5         4        20     1      109.624344      551.395797    ;  uncertainty theta = 0.004146, k = 0.148741
         5         4        27     1      105.898926      389.294941    ;  uncertainty theta = 0.001455, k = 0.097738
         5         6         7     1      119.922928      425.651326    ;  uncertainty theta = 0.003113, k = 0.143043
         5         6        11     1      119.922928      425.651326    ;  uncertainty theta = 0.003113, k = 0.143043
         5        12        13     1      114.204262      390.064311    ;  uncertainty theta = 0.006682, k = 0.189938
         5        12        34     1      110.064499      352.462577    ;  uncertainty theta = 0.003551, k = 0.095281
         6         5        12     1      111.031082      663.623157    ;  uncertainty theta = 0.001203, k = 0.168660
         6         5        28     1      106.340919      410.762138    ;  uncertainty theta = 0.002105, k = 0.098132
         6         7         8     1      121.166641      520.322945    ;  uncertainty theta = 0.001889, k = 0.047519
         6         7        29     1      118.895851      266.730032    ;  uncertainty theta = 0.002264, k = 0.064094
         6        11        10     1      121.166641      520.322945    ;  uncertainty theta = 0.001889, k = 0.047519
         6        11        33     1      118.895851      266.730000    ;  uncertainty theta = 0.002264, k = 0.064094
         7         6        11     1      120.206970      460.017476    ;  uncertainty theta = 0.003029, k = 0.098153
         7         8         9     1      119.685776      513.267201    ;  uncertainty theta = 0.000971, k = 0.012607
         7         8        30     1      120.211227      283.897577    ;  uncertainty theta = 0.001315, k = 0.018227
         8         7        29     1      120.235497      292.477216    ;  uncertainty theta = 0.001696, k = 0.031107
         8         9        10     1      118.246803      526.555213    ;  uncertainty theta = 0.000903, k = 0.024014
         8         9        31     1      120.647278      289.320829    ;  uncertainty theta = 0.001403, k = 0.006566
         9         8        30     1      120.620949      287.638700    ;  uncertainty theta = 0.001444, k = 0.012507
         9        10        11     1      119.685776      513.267201    ;  uncertainty theta = 0.000971, k = 0.012607
         9        10        32     1      120.620949      287.638700    ;  uncertainty theta = 0.001444, k = 0.012507
        10         9        31     1      120.647278      289.320829    ;  uncertainty theta = 0.001403, k = 0.006566
        10        11        33     1      120.235497      292.477280    ;  uncertainty theta = 0.001696, k = 0.031107
        11        10        32     1      120.211227      283.897609    ;  uncertainty theta = 0.001315, k = 0.018226
        12         5        28     1      107.894577      455.839254    ;  uncertainty theta = 0.003753, k = 0.115430
        12        13        14     1      123.021584      569.129341    ;  uncertainty theta = 0.004210, k = 0.166320
        12        13        19     1      122.264381      494.428220    ;  uncertainty theta = 0.010085, k = 0.173821
        13        12        34     1      111.070190      385.448702    ;  uncertainty theta = 0.005248, k = 0.196355
        13        14        15     1      120.578842      507.295348    ;  uncertainty theta = 0.002351, k = 0.066757
        13        14        35     1      119.141518      275.393847    ;  uncertainty theta = 0.003342, k = 0.171975
        13        19        18     1      120.506485      456.930901    ;  uncertainty theta = 0.004711, k = 0.156256
        13        19        20     1      120.650330      354.434489    ;  uncertainty theta = 0.009345, k = 0.377844
        14        13        19     1      119.320618      381.199007    ;  uncertainty theta = 0.005914, k = 0.195702
        14        15        16     1      118.884666      498.785968    ;  uncertainty theta = 0.001826, k = 0.040090
        14        15        36     1      120.705727      284.057791    ;  uncertainty theta = 0.001893, k = 0.060067
        15        14        35     1      120.408264      287.885388    ;  uncertainty theta = 0.001576, k = 0.094917
        15        16        17     1      120.434448      451.178157    ;  uncertainty theta = 0.000563, k = 0.057042
        15        16        18     1      120.998863      379.827377    ;  uncertainty theta = 0.002154, k = 0.153018
        16        15        36     1      120.924881      284.297265    ;  uncertainty theta = 0.001971, k = 0.042199
        16        18        19     1      121.301193      495.189258    ;  uncertainty theta = 0.002645, k = 0.122317
        16        18        37     1      120.545303      288.025842    ;  uncertainty theta = 0.001889, k = 0.108824
        17        16        18     1      120.359268      432.942682    ;  uncertainty theta = 0.000917, k = 0.073238
        18        19        20     1      119.105736      409.470886    ;  uncertainty theta = 0.002678, k = 0.171287
        19        18        37     1      119.036072      263.142260    ;  uncertainty theta = 0.002771, k = 0.113357
        19        20        21     1      109.216774      660.046174    ;  uncertainty theta = 0.004179, k = 0.339501
        19        20        38     1      108.296326      392.567554    ;  uncertainty theta = 0.004481, k = 0.098947
        20         4        27     1      106.437302      399.768827    ;  uncertainty theta = 0.003020, k = 0.097969
        21         1        22     1      107.002457      457.050990    ;  uncertainty theta = 0.002563, k = 0.135517
        21         1        39     1      107.002457      457.051022    ;  uncertainty theta = 0.002563, k = 0.135517
        21        20        38     1      106.534546      440.990797    ;  uncertainty theta = 0.004172, k = 0.144521
        22         1        39     1      106.657852      326.870818    ;  uncertainty theta = 0.001578, k = 0.083868
        23         2        24     1      104.879089      311.636177    ;  uncertainty theta = 0.001144, k = 0.054355
        25         3        26     1      104.421707      316.120302    ;  uncertainty theta = 0.002040, k = 0.027811

[ dihedrals ] ; propers for gromacs 4.5 or higher, use funct 9
;       ai        aj        ak        al funct           phase               k        pn
         1         2         3         4     9        0.000000       -5.960723         1    ;  uncertainty k = 1.129846
         1         2         3         4     9      180.000000       -0.066991         2    ;  uncertainty k = 0.851798
         1         2         3         4     9        0.000000        1.295417         3    ;  uncertainty k = 0.243440
         1         2         3         4     9      180.000000       -0.987254         4    ;  uncertainty k = 0.110698
         1         2         3        25     9        0.000000       -1.379072         1    ;  uncertainty k = 0.539158
         1         2         3        25     9      180.000000       -0.451202         2    ;  uncertainty k = 0.251638
         1         2         3        25     9        0.000000        0.450841         3    ;  uncertainty k = 0.147828
         1         2         3        25     9      180.000000        0.054342         4    ;  uncertainty k = 0.041244
         1         2         3        26     9        0.000000       -1.379072         1    ;  uncertainty k = 0.539158
         1         2         3        26     9      180.000000       -0.451202         2    ;  uncertainty k = 0.251638
         1         2         3        26     9        0.000000        0.450841         3    ;  uncertainty k = 0.147828
         1         2         3        26     9      180.000000        0.054342         4    ;  uncertainty k = 0.041244
         1        21        20         4     9        0.000000        3.362912         1    ;  uncertainty k = 1.676656
         1        21        20         4     9      180.000000       -1.838130         2    ;  uncertainty k = 0.737337
         1        21        20         4     9        0.000000        0.452666         3    ;  uncertainty k = 0.308637
         1        21        20         4     9      180.000000       -0.111834         4    ;  uncertainty k = 0.182400
         1        21        20        19     9        0.000000       -2.990356         1    ;  uncertainty k = 1.117110
         1        21        20        19     9      180.000000       -0.714722         2    ;  uncertainty k = 0.472878
         1        21        20        19     9        0.000000        1.002507         3    ;  uncertainty k = 0.585019
         1        21        20        19     9      180.000000       -0.074811         4    ;  uncertainty k = 0.127643
         1        21        20        38     9        0.000000       -1.913529         1    ;  uncertainty k = 0.675481
         1        21        20        38     9      180.000000       -0.653769         2    ;  uncertainty k = 0.424288
         1        21        20        38     9        0.000000        0.511879         3    ;  uncertainty k = 0.023648
         1        21        20        38     9      180.000000       -0.093460         4    ;  uncertainty k = 0.164147
         2         1        21        20     9        0.000000       -1.121780         1    ;  uncertainty k = 2.446576
         2         1        21        20     9      180.000000       -0.873139         2    ;  uncertainty k = 1.138663
         2         1        21        20     9        0.000000        0.498047         3    ;  uncertainty k = 0.363989
         2         1        21        20     9      180.000000       -0.001924         4    ;  uncertainty k = 0.157598
         2         3         4         5     9        0.000000       -3.543793         1    ;  uncertainty k = 0.641310
         2         3         4         5     9      180.000000        0.034259         2    ;  uncertainty k = 0.234206
         2         3         4         5     9        0.000000        1.223461         3    ;  uncertainty k = 0.125430
         2         3         4         5     9      180.000000       -0.579065         4    ;  uncertainty k = 0.190477
         2         3         4        20     9        0.000000       -3.622345         1    ;  uncertainty k = 0.291751
         2         3         4        20     9      180.000000        0.026845         2    ;  uncertainty k = 0.513070
         2         3         4        20     9        0.000000        1.104856         3    ;  uncertainty k = 0.230563
         2         3         4        20     9      180.000000       -0.823365         4    ;  uncertainty k = 0.108983
         2         3         4        27     9        0.000000       -2.362528         1    ;  uncertainty k = 0.524245
         2         3         4        27     9      180.000000        0.198729         2    ;  uncertainty k = 0.350955
         2         3         4        27     9        0.000000        0.081587         3    ;  uncertainty k = 0.053915
         2         3         4        27     9      180.000000       -0.090244         4    ;  uncertainty k = 0.068934
         3         2         1        21     9        0.000000       -2.462346         1    ;  uncertainty k = 0.959864
         3         2         1        21     9      180.000000       -1.583772         2    ;  uncertainty k = 0.556788
         3         2         1        21     9        0.000000        1.769043         3    ;  uncertainty k = 0.448299
         3         2         1        21     9      180.000000       -0.736933         4    ;  uncertainty k = 0.190753
         3         2         1        22     9        0.000000        2.252520         1    ;  uncertainty k = 0.656911
         3         2         1        22     9      180.000000       -2.521925         2    ;  uncertainty k = 0.482515
         3         2         1        22     9        0.000000       -0.008396         3    ;  uncertainty k = 0.267409
         3         2         1        22     9      180.000000        0.355113         4    ;  uncertainty k = 0.102352
         3         2         1        39     9        0.000000        2.252520         1    ;  uncertainty k = 0.656910
         3         2         1        39     9      180.000000       -2.521926         2    ;  uncertainty k = 0.482515
         3         2         1        39     9        0.000000       -0.008396         3    ;  uncertainty k = 0.267409
         3         2         1        39     9      180.000000        0.355114         4    ;  uncertainty k = 0.102352
         3         4         5         6     9        0.000000       -0.406374         1    ;  uncertainty k = 0.473051
         3         4         5         6     9      180.000000        0.036901         2    ;  uncertainty k = 0.234606
         3         4         5         6     9        0.000000        1.027766         3    ;  uncertainty k = 0.147559
         3         4         5         6     9      180.000000       -0.029346         4    ;  uncertainty k = 0.079907
         3         4         5        12     9        0.000000       -2.783250         1    ;  uncertainty k = 0.505330
         3         4         5        12     9      180.000000        0.438065         2    ;  uncertainty k = 0.417670
         3         4         5        12     9        0.000000        1.222477         3    ;  uncertainty k = 0.208671
         3         4         5        12     9      180.000000       -0.339983         4    ;  uncertainty k = 0.257950
         3         4         5        28     9        0.000000       -0.238972         1    ;  uncertainty k = 0.481687
         3         4         5        28     9      180.000000       -0.275680         2    ;  uncertainty k = 0.120336
         3         4         5        28     9        0.000000        0.098399         3    ;  uncertainty k = 0.164306
         3         4         5        28     9      180.000000       -0.128291         4    ;  uncertainty k = 0.081373
         3         4        20        19     9        0.000000       -1.352534         1    ;  uncertainty k = 1.043926
         3         4        20        19     9      180.000000       -1.119009         2    ;  uncertainty k = 0.290421
         3         4        20        19     9        0.000000        0.684862         3    ;  uncertainty k = 0.220359
         3         4        20        19     9      180.000000       -0.204832         4    ;  uncertainty k = 0.176603
         3         4        20        21     9        0.000000       -0.915303         1    ;  uncertainty k = 0.642385
         3         4        20        21     9      180.000000       -2.107086         2    ;  uncertainty k = 0.892461
         3         4        20        21     9        0.000000        1.000981         3    ;  uncertainty k = 0.208034
         3         4        20        21     9      180.000000       -0.055985         4    ;  uncertainty k = 0.198994
         3         4        20        38     9        0.000000        0.403212         1    ;  uncertainty k = 0.593877
         3         4        20        38     9      180.000000       -0.416799         2    ;  uncertainty k = 0.441646
         3         4        20        38     9        0.000000       -0.125268         3    ;  uncertainty k = 0.081177
         3         4        20        38     9      180.000000       -0.035806         4    ;  uncertainty k = 0.122671
         4         3         2        23     9        0.000000       -0.717907         1    ;  uncertainty k = 0.220493
         4         3         2        23     9      180.000000       -0.691482         2    ;  uncertainty k = 0.154270
         4         3         2        23     9        0.000000        0.379075         3    ;  uncertainty k = 0.122250
         4         3         2        23     9      180.000000       -0.036404         4    ;  uncertainty k = 0.118047
         4         3         2        24     9        0.000000       -0.717907         1    ;  uncertainty k = 0.220493
         4         3         2        24     9      180.000000       -0.691482         2    ;  uncertainty k = 0.154270
         4         3         2        24     9        0.000000        0.379075         3    ;  uncertainty k = 0.122250
         4         3         2        24     9      180.000000       -0.036404         4    ;  uncertainty k = 0.118047
         4         5         6         7     9        0.000000       -0.085606         1    ;  uncertainty k = 0.702801
         4         5         6         7     9      180.000000        1.829115         2    ;  uncertainty k = 0.212084
         4         5         6         7     9        0.000000        0.272952         3    ;  uncertainty k = 0.144900
         4         5         6         7     9      180.000000        0.245277         4    ;  uncertainty k = 0.079885
         4         5         6        11     9        0.000000       -0.085606         1    ;  uncertainty k = 0.702801
         4         5         6        11     9      180.000000        1.829115         2    ;  uncertainty k = 0.212084
         4         5         6        11     9        0.000000        0.272952         3    ;  uncertainty k = 0.144900
         4         5         6        11     9      180.000000        0.245277         4    ;  uncertainty k = 0.079885
         4         5        12        13     9        0.000000        0.888539         1    ;  uncertainty k = 1.109372
         4         5        12        13     9      180.000000        0.260917         2    ;  uncertainty k = 0.603588
         4         5        12        13     9        0.000000        0.345550         3    ;  uncertainty k = 0.248945
         4         5        12        13     9      180.000000        0.149894         4    ;  uncertainty k = 0.143698
         4         5        12        34     9        0.000000        3.571115         1    ;  uncertainty k = 1.003455
         4         5        12        34     9      180.000000       -1.806822         2    ;  uncertainty k = 1.326345
         4         5        12        34     9        0.000000        0.472680         3    ;  uncertainty k = 0.291919
         4         5        12        34     9      180.000000       -0.015407         4    ;  uncertainty k = 0.076165
         4        20        19        13     9        0.000000        0.290598         1    ;  uncertainty k = 2.571080
         4        20        19        13     9      180.000000       -0.476371         2    ;  uncertainty k = 1.452410
         4        20        19        13     9        0.000000        0.143993         3    ;  uncertainty k = 0.653036
         4        20        19        13     9      180.000000        0.711105         4    ;  uncertainty k = 0.235691
         4        20        19        18     9        0.000000       -1.745199         1    ;  uncertainty k = 0.710503
         4        20        19        18     9      180.000000       -0.205710         2    ;  uncertainty k = 0.514603
         4        20        19        18     9        0.000000       -0.215180         3    ;  uncertainty k = 0.217496
         4        20        19        18     9      180.000000        0.428260         4    ;  uncertainty k = 0.131054
         5         4         3        25     9        0.000000        0.040886         1    ;  uncertainty k = 0.359303
         5         4         3        25     9      180.000000       -0.595488         2    ;  uncertainty k = 0.243962
         5         4         3        25     9        0.000000        0.532825         3    ;  uncertainty k = 0.094810
         5         4         3        25     9      180.000000       -0.045473         4    ;  uncertainty k = 0.102307
         5         4         3        26     9        0.000000        0.040886         1    ;  uncertainty k = 0.359303
         5         4         3        26     9      180.000000       -0.595488         2    ;  uncertainty k = 0.243962
         5         4         3        26     9        0.000000        0.532825         3    ;  uncertainty k = 0.094810
         5         4         3        26     9      180.000000       -0.045473         4    ;  uncertainty k = 0.102307
         5         4        20        19     9        0.000000        1.443081         1    ;  uncertainty k = 1.304452
         5         4        20        19     9      180.000000       -2.473230         2    ;  uncertainty k = 0.281218
         5         4        20        19     9        0.000000        0.304322         3    ;  uncertainty k = 0.257178
         5         4        20        19     9      180.000000       -0.101582         4    ;  uncertainty k = 0.164343
         5         4        20        21     9        0.000000       -0.467947         1    ;  uncertainty k = 1.250634
         5         4        20        21     9      180.000000       -3.874220         2    ;  uncertainty k = 1.296902
         5         4        20        21     9        0.000000        0.782527         3    ;  uncertainty k = 0.272847
         5         4        20        21     9      180.000000        0.103056         4    ;  uncertainty k = 0.250140
         5         4        20        38     9        0.000000        0.898810         1    ;  uncertainty k = 0.914138
         5         4        20        38     9      180.000000       -1.074444         2    ;  uncertainty k = 0.524728
         5         4        20        38     9        0.000000       -0.213083         3    ;  uncertainty k = 0.067323
         5         4        20        38     9      180.000000       -0.005965         4    ;  uncertainty k = 0.190660
         5         6         7         8     9        0.000000        0.312413         1    ;  uncertainty k = 0.242918
         5         6         7         8     9      180.000000        8.638334         2    ;  uncertainty k = 0.468596
         5         6         7         8     9        0.000000        1.448800         3    ;  uncertainty k = 0.340804
         5         6         7         8     9      180.000000        1.905016         4    ;  uncertainty k = 0.200484
         5         6         7        29     9        0.000000        0.035752         1    ;  uncertainty k = 0.305800
         5         6         7        29     9      180.000000        7.827037         2    ;  uncertainty k = 0.268347
         5         6         7        29     9        0.000000        0.557555         3    ;  uncertainty k = 0.370059
         5         6         7        29     9      180.000000        0.865304         4    ;  uncertainty k = 0.172707
         5         6        11        10     9        0.000000        0.312413         1    ;  uncertainty k = 0.242918
         5         6        11        10     9      180.000000        8.638334         2    ;  uncertainty k = 0.468596
         5         6        11        10     9        0.000000        1.448800         3    ;  uncertainty k = 0.340804
         5         6        11        10     9      180.000000        1.905016         4    ;  uncertainty k = 0.200484
         5         6        11        33     9        0.000000        0.035753         1    ;  uncertainty k = 0.305801
         5         6        11        33     9      180.000000        7.827039         2    ;  uncertainty k = 0.268348
         5         6        11        33     9        0.000000        0.557555         3    ;  uncertainty k = 0.370060
         5         6        11        33     9      180.000000        0.865304         4    ;  uncertainty k = 0.172707
         5        12        13        14     9        0.000000        0.687365         1    ;  uncertainty k = 0.664322
         5        12        13        14     9      180.000000        3.920519         2    ;  uncertainty k = 0.967805
         5        12        13        14     9        0.000000        0.416351         3    ;  uncertainty k = 0.484840
         5        12        13        14     9      180.000000        0.399131         4    ;  uncertainty k = 0.253422
         5        12        13        19     9        0.000000        4.313200         1    ;  uncertainty k = 1.979505
         5        12        13        19     9      180.000000        1.941225         2    ;  uncertainty k = 0.900359
         5        12        13        19     9        0.000000        0.064457         3    ;  uncertainty k = 0.389527
         5        12        13        19     9      180.000000        0.703925         4    ;  uncertainty k = 0.248073
         6         5         4        20     9        0.000000       -0.623384         1    ;  uncertainty k = 0.877655
         6         5         4        20     9      180.000000       -0.396015         2    ;  uncertainty k = 0.404786
         6         5         4        20     9        0.000000        0.407604         3    ;  uncertainty k = 0.198448
         6         5         4        20     9      180.000000       -0.028123         4    ;  uncertainty k = 0.156909
         6         5         4        27     9        0.000000        0.510067         1    ;  uncertainty k = 0.242738
         6         5         4        27     9      180.000000        0.127609         2    ;  uncertainty k = 0.589996
         6         5         4        27     9        0.000000        0.445091         3    ;  uncertainty k = 0.075779
         6         5         4        27     9      180.000000       -0.031899         4    ;  uncertainty k = 0.107803
         6         5        12        13     9        0.000000       -1.161250         1    ;  uncertainty k = 0.941801
         6         5        12        13     9      180.000000        0.098774         2    ;  uncertainty k = 0.243033
         6         5        12        13     9        0.000000        1.026787         3    ;  uncertainty k = 0.253842
         6         5        12        13     9      180.000000        0.206747         4    ;  uncertainty k = 0.105039
         6         5        12        34     9        0.000000        4.878358         1    ;  uncertainty k = 0.569249
         6         5        12        34     9      180.000000       -1.058872         2    ;  uncertainty k = 0.283859
         6         5        12        34     9        0.000000        0.413858         3    ;  uncertainty k = 0.297007
         6         5        12        34     9      180.000000       -0.032690         4    ;  uncertainty k = 0.182555
         6         7         8         9     9        0.000000       -0.073185         1    ;  uncertainty k = 0.135863
         6         7         8         9     9      180.000000       13.840581         2    ;  uncertainty k = 0.218470
         6         7         8         9     9        0.000000       -0.942124         3    ;  uncertainty k = 0.500159
         6         7         8         9     9      180.000000        0.720226         4    ;  uncertainty k = 0.249573
         6         7         8        30     9        0.000000        0.078938         1    ;  uncertainty k = 0.238410
         6         7         8        30     9      180.000000        7.523903         2    ;  uncertainty k = 0.411008
         6         7         8        30     9        0.000000        1.486224         3    ;  uncertainty k = 0.266909
         6         7         8        30     9      180.000000        1.791253         4    ;  uncertainty k = 0.130361
         6        11        10         9     9        0.000000       -0.073185         1    ;  uncertainty k = 0.135863
         6        11        10         9     9      180.000000       13.840581         2    ;  uncertainty k = 0.218470
         6        11        10         9     9        0.000000       -0.942124         3    ;  uncertainty k = 0.500159
         6        11        10         9     9      180.000000        0.720226         4    ;  uncertainty k = 0.249573
         6        11        10        32     9        0.000000        0.078937         1    ;  uncertainty k = 0.238410
         6        11        10        32     9      180.000000        7.523904         2    ;  uncertainty k = 0.411008
         6        11        10        32     9        0.000000        1.486224         3    ;  uncertainty k = 0.266910
         6        11        10        32     9      180.000000        1.791252         4    ;  uncertainty k = 0.130361
         7         6         5        12     9        0.000000       -0.590756         1    ;  uncertainty k = 0.525590
         7         6         5        12     9      180.000000        2.732820         2    ;  uncertainty k = 0.257489
         7         6         5        12     9        0.000000        0.629229         3    ;  uncertainty k = 0.228491
         7         6         5        12     9      180.000000        0.435378         4    ;  uncertainty k = 0.023802
         7         6         5        28     9        0.000000       -0.618195         1    ;  uncertainty k = 0.243536
         7         6         5        28     9      180.000000        2.285545         2    ;  uncertainty k = 0.337301
         7         6         5        28     9        0.000000        0.482603         3    ;  uncertainty k = 0.112818
         7         6         5        28     9      180.000000        0.236140         4    ;  uncertainty k = 0.049741
         7         6        11        10     9        0.000000       -0.244750         1    ;  uncertainty k = 0.085030
         7         6        11        10     9      180.000000       11.550238         2    ;  uncertainty k = 0.281782
         7         6        11        10     9        0.000000       -0.471965         3    ;  uncertainty k = 0.307308
         7         6        11        10     9      180.000000        0.819629         4    ;  uncertainty k = 0.339588
         7         6        11        33     9        0.000000        0.103785         1    ;  uncertainty k = 0.115164
         7         6        11        33     9      180.000000        7.232566         2    ;  uncertainty k = 0.479326
         7         6        11        33     9        0.000000        1.441609         3    ;  uncertainty k = 0.358039
         7         6        11        33     9      180.000000        1.626932         4    ;  uncertainty k = 0.180627
         7         8         9        10     9        0.000000        0.003338         1    ;  uncertainty k = 0.036528
         7         8         9        10     9      180.000000       15.061872         2    ;  uncertainty k = 0.266781
         7         8         9        10     9        0.000000       -1.241530         3    ;  uncertainty k = 0.510933
         7         8         9        10     9      180.000000        0.486539         4    ;  uncertainty k = 0.300059
         7         8         9        31     9        0.000000        0.055743         1    ;  uncertainty k = 0.094833
         7         8         9        31     9      180.000000        7.490470         2    ;  uncertainty k = 0.333391
         7         8         9        31     9        0.000000        1.467121         3    ;  uncertainty k = 0.292765
         7         8         9        31     9      180.000000        1.797081         4    ;  uncertainty k = 0.179698
         8         7         6        11     9        0.000000       -0.244750         1    ;  uncertainty k = 0.085030
         8         7         6        11     9      180.000000       11.550238         2    ;  uncertainty k = 0.281782
         8         7         6        11     9        0.000000       -0.471965         3    ;  uncertainty k = 0.307308
         8         7         6        11     9      180.000000        0.819629         4    ;  uncertainty k = 0.339588
         8         9        10        11     9        0.000000        0.003338         1    ;  uncertainty k = 0.036528
         8         9        10        11     9      180.000000       15.061872         2    ;  uncertainty k = 0.266781
         8         9        10        11     9        0.000000       -1.241530         3    ;  uncertainty k = 0.510933
         8         9        10        11     9      180.000000        0.486539         4    ;  uncertainty k = 0.300059
         8         9        10        32     9        0.000000        0.045944         1    ;  uncertainty k = 0.040455
         8         9        10        32     9      180.000000        7.527539         2    ;  uncertainty k = 0.325490
         8         9        10        32     9        0.000000        1.433627         3    ;  uncertainty k = 0.327115
         8         9        10        32     9      180.000000        1.790207         4    ;  uncertainty k = 0.158460
         9         8         7        29     9        0.000000        0.053110         1    ;  uncertainty k = 0.076537
         9         8         7        29     9      180.000000        7.946075         2    ;  uncertainty k = 0.338883
         9         8         7        29     9        0.000000        1.427769         3    ;  uncertainty k = 0.326159
         9         8         7        29     9      180.000000        1.836126         4    ;  uncertainty k = 0.159402
         9        10        11        33     9        0.000000        0.053110         1    ;  uncertainty k = 0.076538
         9        10        11        33     9      180.000000        7.946075         2    ;  uncertainty k = 0.338884
         9        10        11        33     9        0.000000        1.427770         3    ;  uncertainty k = 0.326160
         9        10        11        33     9      180.000000        1.836126         4    ;  uncertainty k = 0.159402
        10         9         8        30     9        0.000000        0.045944         1    ;  uncertainty k = 0.040456
        10         9         8        30     9      180.000000        7.527538         2    ;  uncertainty k = 0.325490
        10         9         8        30     9        0.000000        1.433628         3    ;  uncertainty k = 0.327115
        10         9         8        30     9      180.000000        1.790207         4    ;  uncertainty k = 0.158460
        11         6         5        12     9        0.000000       -0.590756         1    ;  uncertainty k = 0.525590
        11         6         5        12     9      180.000000        2.732820         2    ;  uncertainty k = 0.257489
        11         6         5        12     9        0.000000        0.629229         3    ;  uncertainty k = 0.228491
        11         6         5        12     9      180.000000        0.435378         4    ;  uncertainty k = 0.023802
        11         6         5        28     9        0.000000       -0.618195         1    ;  uncertainty k = 0.243536
        11         6         5        28     9      180.000000        2.285545         2    ;  uncertainty k = 0.337301
        11         6         5        28     9        0.000000        0.482603         3    ;  uncertainty k = 0.112818
        11         6         5        28     9      180.000000        0.236140         4    ;  uncertainty k = 0.049741
        11         6         7        29     9        0.000000        0.103786         1    ;  uncertainty k = 0.115164
        11         6         7        29     9      180.000000        7.232565         2    ;  uncertainty k = 0.479326
        11         6         7        29     9        0.000000        1.441610         3    ;  uncertainty k = 0.358040
        11         6         7        29     9      180.000000        1.626932         4    ;  uncertainty k = 0.180626
        11        10         9        31     9        0.000000        0.055743         1    ;  uncertainty k = 0.094833
        11        10         9        31     9      180.000000        7.490470         2    ;  uncertainty k = 0.333391
        11        10         9        31     9        0.000000        1.467121         3    ;  uncertainty k = 0.292765
        11        10         9        31     9      180.000000        1.797081         4    ;  uncertainty k = 0.179698
        12         5         4        20     9        0.000000        0.200364         1    ;  uncertainty k = 1.922207
        12         5         4        20     9      180.000000       -1.227915         2    ;  uncertainty k = 0.307508
        12         5         4        20     9        0.000000        0.544508         3    ;  uncertainty k = 0.453490
        12         5         4        20     9      180.000000       -0.168559         4    ;  uncertainty k = 0.372340
        12         5         4        27     9        0.000000       -0.939089         1    ;  uncertainty k = 0.596800
        12         5         4        27     9      180.000000        0.164887         2    ;  uncertainty k = 0.417950
        12         5         4        27     9        0.000000        0.637484         3    ;  uncertainty k = 0.269057
        12         5         4        27     9      180.000000        0.053786         4    ;  uncertainty k = 0.091379
        12        13        14        15     9        0.000000        0.243417         1    ;  uncertainty k = 0.317723
        12        13        14        15     9      180.000000       10.198494         2    ;  uncertainty k = 0.500018
        12        13        14        15     9        0.000000        1.211708         3    ;  uncertainty k = 0.208913
        12        13        14        15     9      180.000000        1.681652         4    ;  uncertainty k = 0.260419
        12        13        14        35     9        0.000000       -0.270388         1    ;  uncertainty k = 0.536887
        12        13        14        35     9      180.000000        8.052975         2    ;  uncertainty k = 0.316839
        12        13        14        35     9        0.000000        1.039643         3    ;  uncertainty k = 0.151306
        12        13        14        35     9      180.000000        1.221876         4    ;  uncertainty k = 0.315440
        12        13        19        18     9        0.000000        0.427631         1    ;  uncertainty k = 0.445899
        12        13        19        18     9      180.000000        7.737253         2    ;  uncertainty k = 0.340913
        12        13        19        18     9        0.000000        0.946883         3    ;  uncertainty k = 0.163416
        12        13        19        18     9      180.000000        1.347383         4    ;  uncertainty k = 0.382341
        12        13        19        20     9        0.000000       -0.152740         1    ;  uncertainty k = 0.626736
        12        13        19        20     9      180.000000        7.470772         2    ;  uncertainty k = 1.089919
        12        13        19        20     9        0.000000        0.619113         3    ;  uncertainty k = 0.520723
        12        13        19        20     9      180.000000        1.144658         4    ;  uncertainty k = 0.547763
        13        12         5        28     9        0.000000       -0.880958         1    ;  uncertainty k = 0.375037
        13        12         5        28     9      180.000000       -0.561583         2    ;  uncertainty k = 0.471966
        13        12         5        28     9        0.000000        0.680151         3    ;  uncertainty k = 0.163013
        13        12         5        28     9      180.000000        0.214718         4    ;  uncertainty k = 0.091340
        13        14        15        16     9        0.000000        0.124549         1    ;  uncertainty k = 0.234300
        13        14        15        16     9      180.000000       14.764725         2    ;  uncertainty k = 0.191511
        13        14        15        16     9        0.000000       -0.615931         3    ;  uncertainty k = 0.450115
        13        14        15        16     9      180.000000        0.898330         4    ;  uncertainty k = 0.291200
        13        14        15        36     9        0.000000        0.347819         1    ;  uncertainty k = 0.397008
        13        14        15        36     9      180.000000        8.848359         2    ;  uncertainty k = 0.466106
        13        14        15        36     9        0.000000        1.321975         3    ;  uncertainty k = 0.286317
        13        14        15        36     9      180.000000        1.589906         4    ;  uncertainty k = 0.252860
        13        19        18        16     9        0.000000       -0.158514         1    ;  uncertainty k = 0.364505
        13        19        18        16     9      180.000000       12.840231         2    ;  uncertainty k = 0.312075
        13        19        18        16     9        0.000000       -0.293228         3    ;  uncertainty k = 0.374067
        13        19        18        16     9      180.000000        0.980292         4    ;  uncertainty k = 0.344930
        13        19        18        37     9        0.000000        0.270153         1    ;  uncertainty k = 0.430313
        13        19        18        37     9      180.000000        8.186205         2    ;  uncertainty k = 0.613587
        13        19        18        37     9        0.000000        1.380308         3    ;  uncertainty k = 0.284989
        13        19        18        37     9      180.000000        1.561669         4    ;  uncertainty k = 0.186069
        13        19        20        21     9        0.000000       -1.821747         1    ;  uncertainty k = 2.338288
        13        19        20        21     9      180.000000        0.491181         2    ;  uncertainty k = 1.144911
        13        19        20        21     9        0.000000        1.523411         3    ;  uncertainty k = 0.315663
        13        19        20        21     9      180.000000       -0.028150         4    ;  uncertainty k = 0.197047
        13        19        20        38     9        0.000000       -0.314281         1    ;  uncertainty k = 0.769527
        13        19        20        38     9      180.000000        2.141735         2    ;  uncertainty k = 0.258656
        13        19        20        38     9        0.000000        0.443529         3    ;  uncertainty k = 0.196834
        13        19        20        38     9      180.000000       -0.204132         4    ;  uncertainty k = 0.152061
        14        13        12        34     9        0.000000        1.677830         1    ;  uncertainty k = 0.646226
        14        13        12        34     9      180.000000        4.958599         2    ;  uncertainty k = 0.351779
        14        13        12        34     9        0.000000        0.816027         3    ;  uncertainty k = 0.287752
        14        13        12        34     9      180.000000       -0.002590         4    ;  uncertainty k = 0.182019
        14        13        19        18     9        0.000000        0.189107         1    ;  uncertainty k = 0.426390
        14        13        19        18     9      180.000000        6.051243         2    ;  uncertainty k = 0.596677
        14        13        19        18     9        0.000000        0.355166         3    ;  uncertainty k = 0.468119
        14        13        19        18     9      180.000000        1.340471         4    ;  uncertainty k = 0.245643
        14        13        19        20     9        0.000000        0.481162         1    ;  uncertainty k = 0.538126
        14        13        19        20     9      180.000000        5.545681         2    ;  uncertainty k = 0.546514
        14        13        19        20     9        0.000000        1.305141         3    ;  uncertainty k = 0.205440
        14        13        19        20     9      180.000000        1.615726         4    ;  uncertainty k = 0.270165
        14        15        16        17     9        0.000000        0.174804         1    ;  uncertainty k = 0.229197
        14        15        16        17     9      180.000000        9.042416         2    ;  uncertainty k = 0.703393
        14        15        16        17     9        0.000000        1.447645         3    ;  uncertainty k = 0.503189
        14        15        16        17     9      180.000000        1.677012         4    ;  uncertainty k = 0.170861
        14        15        16        18     9        0.000000       -0.004586         1    ;  uncertainty k = 0.318621
        14        15        16        18     9      180.000000       10.448539         2    ;  uncertainty k = 0.585045
        14        15        16        18     9        0.000000       -0.418585         3    ;  uncertainty k = 0.432873
        14        15        16        18     9      180.000000        1.065849         4    ;  uncertainty k = 0.250575
        15        14        13        19     9        0.000000        0.199344         1    ;  uncertainty k = 0.385832
        15        14        13        19     9      180.000000        7.409266         2    ;  uncertainty k = 0.512946
        15        14        13        19     9        0.000000        0.416034         3    ;  uncertainty k = 0.481999
        15        14        13        19     9      180.000000        1.386278         4    ;  uncertainty k = 0.182692
        15        16        18        19     9        0.000000        0.098219         1    ;  uncertainty k = 0.198832
        15        16        18        19     9      180.000000        9.468909         2    ;  uncertainty k = 0.376298
        15        16        18        19     9        0.000000       -0.071241         3    ;  uncertainty k = 0.682802
        15        16        18        19     9      180.000000        1.274180         4    ;  uncertainty k = 0.397552
        15        16        18        37     9        0.000000       -0.023899         1    ;  uncertainty k = 0.167925
        15        16        18        37     9      180.000000        6.338516         2    ;  uncertainty k = 0.447099
        15        16        18        37     9        0.000000        1.416253         3    ;  uncertainty k = 0.372331
        15        16        18        37     9      180.000000        1.578220         4    ;  uncertainty k = 0.157730
        16        15        14        35     9        0.000000        0.068836         1    ;  uncertainty k = 0.174965
        16        15        14        35     9      180.000000        8.443382         2    ;  uncertainty k = 0.313869
        16        15        14        35     9        0.000000        1.527341         3    ;  uncertainty k = 0.278599
        16        15        14        35     9      180.000000        1.914605         4    ;  uncertainty k = 0.237876
        16        18        19        20     9        0.000000        0.139437         1    ;  uncertainty k = 0.341832
        16        18        19        20     9      180.000000       10.087763         2    ;  uncertainty k = 0.495276
        16        18        19        20     9        0.000000        1.410378         3    ;  uncertainty k = 0.241883
        16        18        19        20     9      180.000000        1.825039         4    ;  uncertainty k = 0.386874
        17        16        15        36     9        0.000000       -0.064495         1    ;  uncertainty k = 0.192371
        17        16        15        36     9      180.000000        7.204687         2    ;  uncertainty k = 0.228326
        17        16        15        36     9        0.000000        0.629692         3    ;  uncertainty k = 0.314893
        17        16        15        36     9      180.000000        0.953192         4    ;  uncertainty k = 0.183482
        17        16        18        19     9        0.000000        0.071767         1    ;  uncertainty k = 0.192038
        17        16        18        19     9      180.000000        9.768824         2    ;  uncertainty k = 0.592928
        17        16        18        19     9        0.000000        1.401664         3    ;  uncertainty k = 0.483878
        17        16        18        19     9      180.000000        1.626375         4    ;  uncertainty k = 0.116890
        17        16        18        37     9        0.000000       -0.085596         1    ;  uncertainty k = 0.382969
        17        16        18        37     9      180.000000        7.459157         2    ;  uncertainty k = 0.456544
        17        16        18        37     9        0.000000        0.730473         3    ;  uncertainty k = 0.326636
        17        16        18        37     9      180.000000        1.043770         4    ;  uncertainty k = 0.265426
        18        16        15        36     9        0.000000        0.048464         1    ;  uncertainty k = 0.201546
        18        16        15        36     9      180.000000        5.904349         2    ;  uncertainty k = 0.589366
        18        16        15        36     9        0.000000        1.344728         3    ;  uncertainty k = 0.264748
        18        16        15        36     9      180.000000        1.519727         4    ;  uncertainty k = 0.160381
        18        19        20        21     9        0.000000        0.138357         1    ;  uncertainty k = 0.547768
        18        19        20        21     9      180.000000        1.638705         2    ;  uncertainty k = 0.594751
        18        19        20        21     9        0.000000       -0.271290         3    ;  uncertainty k = 0.317633
        18        19        20        21     9      180.000000        0.110236         4    ;  uncertainty k = 0.110633
        18        19        20        38     9        0.000000        0.519051         1    ;  uncertainty k = 0.735931
        18        19        20        38     9      180.000000        1.870333         2    ;  uncertainty k = 0.363510
        18        19        20        38     9        0.000000        0.054986         3    ;  uncertainty k = 0.164776
        18        19        20        38     9      180.000000       -0.026799         4    ;  uncertainty k = 0.165103
        19        13        12        34     9        0.000000       11.638328         1    ;  uncertainty k = 0.594123
        19        13        12        34     9      180.000000        5.159223         2    ;  uncertainty k = 0.574046
        19        13        12        34     9        0.000000        0.277220         3    ;  uncertainty k = 0.283156
        19        13        12        34     9      180.000000        0.216875         4    ;  uncertainty k = 0.178768
        19        13        14        35     9        0.000000        0.283863         1    ;  uncertainty k = 1.039205
        19        13        14        35     9      180.000000        6.162941         2    ;  uncertainty k = 0.660599
        19        13        14        35     9        0.000000        1.321908         3    ;  uncertainty k = 0.282163
        19        13        14        35     9      180.000000        1.299424         4    ;  uncertainty k = 0.205830
        19        20         4        27     9        0.000000       -0.456628         1    ;  uncertainty k = 0.951106
        19        20         4        27     9      180.000000        0.755900         2    ;  uncertainty k = 0.527880
        19        20         4        27     9        0.000000        0.017125         3    ;  uncertainty k = 0.093532
        19        20         4        27     9      180.000000       -0.059556         4    ;  uncertainty k = 0.107669
        20         4         3        25     9        0.000000       -0.465454         1    ;  uncertainty k = 0.379190
        20         4         3        25     9      180.000000       -0.670144         2    ;  uncertainty k = 0.110744
        20         4         3        25     9        0.000000        0.331021         3    ;  uncertainty k = 0.105883
        20         4         3        25     9      180.000000       -0.005641         4    ;  uncertainty k = 0.043685
        20         4         3        26     9        0.000000       -0.465454         1    ;  uncertainty k = 0.379190
        20         4         3        26     9      180.000000       -0.670144         2    ;  uncertainty k = 0.110744
        20         4         3        26     9        0.000000        0.331021         3    ;  uncertainty k = 0.105883
        20         4         3        26     9      180.000000       -0.005641         4    ;  uncertainty k = 0.043685
        20         4         5        28     9        0.000000        0.735010         1    ;  uncertainty k = 0.742663
        20         4         5        28     9      180.000000       -1.387993         2    ;  uncertainty k = 0.728855
        20         4         5        28     9        0.000000       -0.436658         3    ;  uncertainty k = 0.151604
        20         4         5        28     9      180.000000        0.033961         4    ;  uncertainty k = 0.146037
        20        19        18        37     9        0.000000       -0.196556         1    ;  uncertainty k = 0.538627
        20        19        18        37     9      180.000000        8.246156         2    ;  uncertainty k = 0.786610
        20        19        18        37     9        0.000000        0.763888         3    ;  uncertainty k = 0.270420
        20        19        18        37     9      180.000000        1.092836         4    ;  uncertainty k = 0.407917
        20        21         1        22     9        0.000000       -3.556130         1    ;  uncertainty k = 1.501858
        20        21         1        22     9      180.000000       -0.582344         2    ;  uncertainty k = 0.302699
        20        21         1        22     9        0.000000        0.349893         3    ;  uncertainty k = 0.212384
        20        21         1        22     9      180.000000       -0.115136         4    ;  uncertainty k = 0.127969
        20        21         1        39     9        0.000000       -3.556134         1    ;  uncertainty k = 1.501861
        20        21         1        39     9      180.000000       -0.582343         2    ;  uncertainty k = 0.302701
        20        21         1        39     9        0.000000        0.349893         3    ;  uncertainty k = 0.212384
        20        21         1        39     9      180.000000       -0.115136         4    ;  uncertainty k = 0.127970
        21         1         2        23     9        0.000000       -1.395869         1    ;  uncertainty k = 0.482616
        21         1         2        23     9      180.000000       -0.573584         2    ;  uncertainty k = 0.311178
        21         1         2        23     9        0.000000        1.274117         3    ;  uncertainty k = 0.171800
        21         1         2        23     9      180.000000       -0.148010         4    ;  uncertainty k = 0.122827
        21         1         2        24     9        0.000000       -1.395869         1    ;  uncertainty k = 0.482616
        21         1         2        24     9      180.000000       -0.573584         2    ;  uncertainty k = 0.311178
        21         1         2        24     9        0.000000        1.274117         3    ;  uncertainty k = 0.171800
        21         1         2        24     9      180.000000       -0.148010         4    ;  uncertainty k = 0.122827
        21        20         4        27     9        0.000000       -0.657333         1    ;  uncertainty k = 0.570099
        21        20         4        27     9      180.000000        0.578839         2    ;  uncertainty k = 0.534125
        21        20         4        27     9        0.000000        0.189904         3    ;  uncertainty k = 0.295445
        21        20         4        27     9      180.000000       -0.141174         4    ;  uncertainty k = 0.144511
        22         1         2        23     9        0.000000       -0.274868         1    ;  uncertainty k = 0.378415
        22         1         2        23     9      180.000000        0.798972         2    ;  uncertainty k = 0.452568
        22         1         2        23     9        0.000000        0.200804         3    ;  uncertainty k = 0.151527
        22         1         2        23     9      180.000000       -0.352311         4    ;  uncertainty k = 0.070138
        22         1         2        24     9        0.000000       -0.274868         1    ;  uncertainty k = 0.378415
        22         1         2        24     9      180.000000        0.798972         2    ;  uncertainty k = 0.452568
        22         1         2        24     9        0.000000        0.200804         3    ;  uncertainty k = 0.151527
        22         1         2        24     9      180.000000       -0.352311         4    ;  uncertainty k = 0.070138
        23         2         1        39     9        0.000000       -0.274867         1    ;  uncertainty k = 0.378415
        23         2         1        39     9      180.000000        0.798974         2    ;  uncertainty k = 0.452568
        23         2         1        39     9        0.000000        0.200804         3    ;  uncertainty k = 0.151527
        23         2         1        39     9      180.000000       -0.352311         4    ;  uncertainty k = 0.070138
        23         2         3        25     9        0.000000        1.884565         1    ;  uncertainty k = 0.391703
        23         2         3        25     9      180.000000        0.108172         2    ;  uncertainty k = 0.140230
        23         2         3        25     9        0.000000        0.315320         3    ;  uncertainty k = 0.092655
        23         2         3        25     9      180.000000        0.071629         4    ;  uncertainty k = 0.021587
        23         2         3        26     9        0.000000        1.884565         1    ;  uncertainty k = 0.391703
        23         2         3        26     9      180.000000        0.108172         2    ;  uncertainty k = 0.140230
        23         2         3        26     9        0.000000        0.315320         3    ;  uncertainty k = 0.092655
        23         2         3        26     9      180.000000        0.071629         4    ;  uncertainty k = 0.021587
        24         2         1        39     9        0.000000       -0.274867         1    ;  uncertainty k = 0.378415
        24         2         1        39     9      180.000000        0.798974         2    ;  uncertainty k = 0.452568
        24         2         1        39     9        0.000000        0.200804         3    ;  uncertainty k = 0.151527
        24         2         1        39     9      180.000000       -0.352311         4    ;  uncertainty k = 0.070138
        24         2         3        25     9        0.000000        1.884565         1    ;  uncertainty k = 0.391703
        24         2         3        25     9      180.000000        0.108172         2    ;  uncertainty k = 0.140230
        24         2         3        25     9        0.000000        0.315320         3    ;  uncertainty k = 0.092655
        24         2         3        25     9      180.000000        0.071629         4    ;  uncertainty k = 0.021587
        24         2         3        26     9        0.000000        1.884565         1    ;  uncertainty k = 0.391703
        24         2         3        26     9      180.000000        0.108172         2    ;  uncertainty k = 0.140230
        24         2         3        26     9        0.000000        0.315320         3    ;  uncertainty k = 0.092655
        24         2         3        26     9      180.000000        0.071629         4    ;  uncertainty k = 0.021587
        25         3         4        27     9        0.000000        1.587362         1    ;  uncertainty k = 0.258659
        25         3         4        27     9      180.000000       -0.027774         2    ;  uncertainty k = 0.315848
        25         3         4        27     9        0.000000       -0.059218         3    ;  uncertainty k = 0.119422
        25         3         4        27     9      180.000000        0.010985         4    ;  uncertainty k = 0.065672
        26         3         4        27     9        0.000000        1.587362         1    ;  uncertainty k = 0.258659
        26         3         4        27     9      180.000000       -0.027774         2    ;  uncertainty k = 0.315848
        26         3         4        27     9        0.000000       -0.059218         3    ;  uncertainty k = 0.119422
        26         3         4        27     9      180.000000        0.010985         4    ;  uncertainty k = 0.065672
        27         4         5        28     9        0.000000        1.072490         1    ;  uncertainty k = 0.444187
        27         4         5        28     9      180.000000       -0.046095         2    ;  uncertainty k = 0.241923
        27         4         5        28     9        0.000000       -0.346052         3    ;  uncertainty k = 0.178924
        27         4         5        28     9      180.000000       -0.268855         4    ;  uncertainty k = 0.104119
        27         4        20        38     9        0.000000        2.059470         1    ;  uncertainty k = 0.462406
        27         4        20        38     9      180.000000        0.788966         2    ;  uncertainty k = 0.476186
        27         4        20        38     9        0.000000       -0.496943         3    ;  uncertainty k = 0.238375
        27         4        20        38     9      180.000000       -0.173604         4    ;  uncertainty k = 0.070462
        28         5        12        34     9        0.000000        0.468542         1    ;  uncertainty k = 0.563664
        28         5        12        34     9      180.000000       -0.983993         2    ;  uncertainty k = 0.285944
        28         5        12        34     9        0.000000        0.482175         3    ;  uncertainty k = 0.277173
        28         5        12        34     9      180.000000        0.028441         4    ;  uncertainty k = 0.127509
        29         7         8        30     9        0.000000       -0.038400         1    ;  uncertainty k = 0.034127
        29         7         8        30     9      180.000000        7.644156         2    ;  uncertainty k = 0.255449
        29         7         8        30     9        0.000000       -0.470075         3    ;  uncertainty k = 0.270053
        29         7         8        30     9      180.000000        0.106023         4    ;  uncertainty k = 0.117776
        30         8         9        31     9        0.000000       -0.016279         1    ;  uncertainty k = 0.090335
        30         8         9        31     9      180.000000        7.510682         2    ;  uncertainty k = 0.369436
        30         8         9        31     9        0.000000       -0.422665         3    ;  uncertainty k = 0.276611
        30         8         9        31     9      180.000000        0.041075         4    ;  uncertainty k = 0.155578
        31         9        10        32     9        0.000000       -0.016279         1    ;  uncertainty k = 0.090335
        31         9        10        32     9      180.000000        7.510681         2    ;  uncertainty k = 0.369437
        31         9        10        32     9        0.000000       -0.422665         3    ;  uncertainty k = 0.276612
        31         9        10        32     9      180.000000        0.041075         4    ;  uncertainty k = 0.155578
        32        10        11        33     9        0.000000       -0.038401         1    ;  uncertainty k = 0.034127
        32        10        11        33     9      180.000000        7.644154         2    ;  uncertainty k = 0.255448
        32        10        11        33     9        0.000000       -0.470075         3    ;  uncertainty k = 0.270053
        32        10        11        33     9      180.000000        0.106023         4    ;  uncertainty k = 0.117776
        35        14        15        36     9        0.000000        0.103541         1    ;  uncertainty k = 0.594716
        35        14        15        36     9      180.000000        7.812328         2    ;  uncertainty k = 0.435081
        35        14        15        36     9        0.000000       -0.347041         3    ;  uncertainty k = 0.284582
        35        14        15        36     9      180.000000        0.124107         4    ;  uncertainty k = 0.178097

[ dihedrals ] ; impropers
;       ai        aj        ak        al funct           phase               k        pn
         6         5         7        11     4      180.000000       12.903618         2    ;  uncertainty k = 0.121797
         6         7        11         5     4      180.000000       12.903618         2    ;  uncertainty k = 0.121797
         6        11         5         7     4      180.000000       12.903618         2    ;  uncertainty k = 0.121797
         7         6         8        29     4      180.000000        4.073200         2    ;  uncertainty k = 0.089532
         7         8        29         6     4      180.000000        4.073200         2    ;  uncertainty k = 0.089532
         7        29         6         8     4      180.000000        4.073200         2    ;  uncertainty k = 0.089532
         8         7         9        30     4      180.000000        4.075594         2    ;  uncertainty k = 0.076312
         8         9        30         7     4      180.000000        4.075594         2    ;  uncertainty k = 0.076312
         8        30         7         9     4      180.000000        4.075594         2    ;  uncertainty k = 0.076312
         9         8        10        31     4      180.000000        4.286747         2    ;  uncertainty k = 0.163794
         9        10        31         8     4      180.000000        4.286747         2    ;  uncertainty k = 0.163794
         9        31         8        10     4      180.000000        4.286747         2    ;  uncertainty k = 0.163794
        10         9        11        32     4      180.000000        4.075594         2    ;  uncertainty k = 0.076311
        10        11        32         9     4      180.000000        4.075594         2    ;  uncertainty k = 0.076311
        10        32         9        11     4      180.000000        4.075594         2    ;  uncertainty k = 0.076311
        11         6        10        33     4      180.000000        4.073199         2    ;  uncertainty k = 0.089533
        11        10        33         6     4      180.000000        4.073199         2    ;  uncertainty k = 0.089533
        11        33         6        10     4      180.000000        4.073199         2    ;  uncertainty k = 0.089533
        13        12        14        19     4      180.000000       21.145990         2    ;  uncertainty k = 0.166880
        13        14        19        12     4      180.000000       21.145990         2    ;  uncertainty k = 0.166880
        13        19        12        14     4      180.000000       21.145990         2    ;  uncertainty k = 0.166880
        14        13        15        35     4      180.000000        2.250170         2    ;  uncertainty k = 0.256230
        14        15        35        13     4      180.000000        2.250170         2    ;  uncertainty k = 0.256230
        14        35        13        15     4      180.000000        2.250170         2    ;  uncertainty k = 0.256230
        15        14        16        36     4      180.000000        3.844856         2    ;  uncertainty k = 0.211860
        15        16        36        14     4      180.000000        3.844856         2    ;  uncertainty k = 0.211860
        15        36        14        16     4      180.000000        3.844856         2    ;  uncertainty k = 0.211860
        16        15        17        18     4      180.000000       11.140713         2    ;  uncertainty k = 0.108937
        16        17        18        15     4      180.000000       11.140713         2    ;  uncertainty k = 0.108937
        16        18        15        17     4      180.000000       11.140713         2    ;  uncertainty k = 0.108937
        18        16        19        37     4      180.000000        3.578535         2    ;  uncertainty k = 0.187212
        18        19        37        16     4      180.000000        3.578535         2    ;  uncertainty k = 0.187212
        18        37        16        19     4      180.000000        3.578535         2    ;  uncertainty k = 0.187212
        19        13        18        20     4      180.000000       11.226440         2    ;  uncertainty k = 0.198536
        19        18        20        13     4      180.000000       11.226440         2    ;  uncertainty k = 0.198536
        19        20        13        18     4      180.000000       11.226440         2    ;  uncertainty k = 0.198536

[ pairs ]
;       ai        aj funct
         1         4     1
         1        19     1
         1        25     1
         1        26     1
         1        38     1
         2         5     1
         2        20     1
         2        27     1
         3         6     1
         3        12     1
         3        19     1
         3        21     1
         3        22     1
         3        28     1
         3        38     1
         3        39     1
         4         7     1
         4        11     1
         4        13     1
         4        18     1
         4        23     1
         4        24     1
         4        34     1
         5         8     1
         5        10     1
         5        14     1
         5        19     1
         5        21     1
         5        25     1
         5        26     1
         5        29     1
         5        33     1
         5        38     1
         6         9     1
         6        13     1
         6        20     1
         6        27     1
         6        30     1
         6        32     1
         6        34     1
         7        10     1
         7        12     1
         7        28     1
         7        31     1
         7        33     1
         8        11     1
         8        32     1
         9        29     1
         9        33     1
        10        30     1
        11        12     1
        11        28     1
        11        29     1
        11        31     1
        12        15     1
        12        18     1
        12        20     1
        12        27     1
        12        35     1
        13        16     1
        13        21     1
        13        28     1
        13        36     1
        13        37     1
        13        38     1
        14        17     1
        14        18     1
        14        20     1
        14        34     1
        15        19     1
        15        37     1
        16        20     1
        16        35     1
        17        19     1
        17        36     1
        17        37     1
        18        21     1
        18        36     1
        18        38     1
        19        27     1
        19        34     1
        19        35     1
        20        22     1
        20        25     1
        20        26     1
        20        28     1
        20        37     1
        20        39     1
        21        23     1
        21        24     1
        21        27     1
        22        23     1
        22        24     1
        23        25     1
        23        26     1
        23        39     1
        24        25     1
        24        26     1
        24        39     1
        25        27     1
        26        27     1
        27        28     1
        27        38     1
        28        34     1
        29        30     1
        30        31     1
        31        32     1
        32        33     1
        35        36     1
