; ITP file created by ByteFF-joint-25, 2026-02-17 09:16:26.940512

[ atomtypes ]
;name           bonded.type        at.num        mass        charge   ptype           sigma         epsilon
 c0bf                                   6      0.0000       0.00000       A     3.39769e-01     4.50697e-01    ;  uncertainty sigma = 0.000009, epsilon = 0.000635
 n1bf                                   7      0.0000       0.00000       A     3.36541e-01     3.59079e-01    ;  uncertainty sigma = 0.000034, epsilon = 0.001111
 c2bf                                   6      0.0000       0.00000       A     3.39769e-01     4.50697e-01    ;  uncertainty sigma = 0.000009, epsilon = 0.000635
 c3bf                                   6      0.0000       0.00000       A     3.39766e-01     4.50891e-01    ;  uncertainty sigma = 0.000011, epsilon = 0.000653
 c4bf                                   6      0.0000       0.00000       A     3.39808e-01     4.51166e-01    ;  uncertainty sigma = 0.000003, epsilon = 0.000414
 s5bf                                  16      0.0000       0.00000       A     4.05769e-01     2.57898e-01    ;  uncertainty sigma = 0.000012, epsilon = 0.000655
 o6bf                                   8      0.0000       0.00000       A     3.04817e-01     6.12581e-01    ;  uncertainty sigma = 0.000008, epsilon = 0.001450
 o7bf                                   8      0.0000       0.00000       A     3.04817e-01     6.12581e-01    ;  uncertainty sigma = 0.000008, epsilon = 0.001450
 n8bf                                   7      0.0000       0.00000       A     3.50725e-01     2.16317e-01    ;  uncertainty sigma = 0.000071, epsilon = 0.003062
 c9bf                                   6      0.0000       0.00000       A     3.39752e-01     4.50240e-01    ;  uncertainty sigma = 0.000009, epsilon = 0.000702
 c10bf                                  6      0.0000       0.00000       A     3.39771e-01     4.51214e-01    ;  uncertainty sigma = 0.000007, epsilon = 0.001331
 c11bf                                  6      0.0000       0.00000       A     3.39788e-01     4.50777e-01    ;  uncertainty sigma = 0.000008, epsilon = 0.000747
 c12bf                                  6      0.0000       0.00000       A     3.39750e-01     4.51142e-01    ;  uncertainty sigma = 0.000011, epsilon = 0.000651
 c13bf                                  6      0.0000       0.00000       A     3.39755e-01     4.50973e-01    ;  uncertainty sigma = 0.000035, epsilon = 0.000615
 c14bf                                  6      0.0000       0.00000       A     3.39771e-01     4.51627e-01    ;  uncertainty sigma = 0.000010, epsilon = 0.001353
 c15bf                                  6      0.0000       0.00000       A     3.31532e-01     4.13295e-01    ;  uncertainty sigma = 0.000012, epsilon = 0.000849
 c16bf                                  6      0.0000       0.00000       A     3.31519e-01     4.13329e-01    ;  uncertainty sigma = 0.000002, epsilon = 0.000632
 c17bf                                  6      0.0000       0.00000       A     3.31520e-01     4.13328e-01    ;  uncertainty sigma = 0.000003, epsilon = 0.000582
 c18bf                                  6      0.0000       0.00000       A     3.31518e-01     4.13340e-01    ;  uncertainty sigma = 0.000003, epsilon = 0.000580
 c19bf                                  6      0.0000       0.00000       A     3.31520e-01     4.13328e-01    ;  uncertainty sigma = 0.000003, epsilon = 0.000582
 c20bf                                  6      0.0000       0.00000       A     3.31519e-01     4.13329e-01    ;  uncertainty sigma = 0.000002, epsilon = 0.000632
 n21bf                                  7      0.0000       0.00000       A     3.27940e-01     6.43754e-01    ;  uncertainty sigma = 0.000013, epsilon = 0.005170
 c22bf                                  6      0.0000       0.00000       A     3.31564e-01     4.13427e-01    ;  uncertainty sigma = 0.000018, epsilon = 0.001467
 c23bf                                  6      0.0000       0.00000       A     3.31515e-01     4.13089e-01    ;  uncertainty sigma = 0.000013, epsilon = 0.000496
 f24bf                                  9      0.0000       0.00000       A     3.03374e-01     3.48547e-01    ;  uncertainty sigma = 0.000029, epsilon = 0.000925
 c25bf                                  6      0.0000       0.00000       A     3.31515e-01     4.13185e-01    ;  uncertainty sigma = 0.000010, epsilon = 0.000733
 c26bf                                  6      0.0000       0.00000       A     3.31522e-01     4.13139e-01    ;  uncertainty sigma = 0.000006, epsilon = 0.000720
 cl27bf                                17      0.0000       0.00000       A     3.46583e-01     1.10403e+00    ;  uncertainty sigma = 0.000016, epsilon = 0.000818
 c28bf                                  6      0.0000       0.00000       A     3.31511e-01     4.13387e-01    ;  uncertainty sigma = 0.000005, epsilon = 0.000809
 c29bf                                  6      0.0000       0.00000       A     3.31543e-01     4.13629e-01    ;  uncertainty sigma = 0.000015, epsilon = 0.000598
 c30bf                                  6      0.0000       0.00000       A     3.39757e-01     4.50771e-01    ;  uncertainty sigma = 0.000019, epsilon = 0.001629
 o31bf                                  8      0.0000       0.00000       A     3.15654e-01     3.03412e-01    ;  uncertainty sigma = 0.000034, epsilon = 0.001414
 h32bf                                  1      0.0000       0.00000       A     2.42215e-01     8.67454e-02    ;  uncertainty sigma = 0.000010, epsilon = 0.000531
 h33bf                                  1      0.0000       0.00000       A     2.42215e-01     8.67454e-02    ;  uncertainty sigma = 0.000010, epsilon = 0.000531
 h34bf                                  1      0.0000       0.00000       A     2.42215e-01     8.67454e-02    ;  uncertainty sigma = 0.000010, epsilon = 0.000531
 h35bf                                  1      0.0000       0.00000       A     2.42215e-01     8.67454e-02    ;  uncertainty sigma = 0.000010, epsilon = 0.000531
 h36bf                                  1      0.0000       0.00000       A     2.42215e-01     8.67454e-02    ;  uncertainty sigma = 0.000010, epsilon = 0.000531
 h37bf                                  1      0.0000       0.00000       A     2.42215e-01     8.67454e-02    ;  uncertainty sigma = 0.000010, epsilon = 0.000531
 h38bf                                  1      0.0000       0.00000       A     2.42207e-01     8.65138e-02    ;  uncertainty sigma = 0.000028, epsilon = 0.000684
 h39bf                                  1      0.0000       0.00000       A     2.42207e-01     8.65138e-02    ;  uncertainty sigma = 0.000028, epsilon = 0.000684
 h40bf                                  1      0.0000       0.00000       A     2.42111e-01     8.66098e-02    ;  uncertainty sigma = 0.000060, epsilon = 0.000987
 h41bf                                  1      0.0000       0.00000       A     2.42111e-01     8.66098e-02    ;  uncertainty sigma = 0.000060, epsilon = 0.000987
 h42bf                                  1      0.0000       0.00000       A     1.10655e-01     4.09994e-02    ;  uncertainty sigma = 0.000153, epsilon = 0.001083
 h43bf                                  1      0.0000       0.00000       A     2.42236e-01     8.68881e-02    ;  uncertainty sigma = 0.000037, epsilon = 0.000911
 h44bf                                  1      0.0000       0.00000       A     2.42236e-01     8.68881e-02    ;  uncertainty sigma = 0.000037, epsilon = 0.000911
 h45bf                                  1      0.0000       0.00000       A     2.42231e-01     8.71340e-02    ;  uncertainty sigma = 0.000053, epsilon = 0.001129
 h46bf                                  1      0.0000       0.00000       A     2.60026e-01     8.66992e-02    ;  uncertainty sigma = 0.000012, epsilon = 0.000652
 h47bf                                  1      0.0000       0.00000       A     2.60026e-01     8.66992e-02    ;  uncertainty sigma = 0.000012, epsilon = 0.000652
 h48bf                                  1      0.0000       0.00000       A     2.60028e-01     8.66832e-02    ;  uncertainty sigma = 0.000010, epsilon = 0.000720
 h49bf                                  1      0.0000       0.00000       A     2.60028e-01     8.66832e-02    ;  uncertainty sigma = 0.000010, epsilon = 0.000720
 h50bf                                  1      0.0000       0.00000       A     2.59938e-01     8.64077e-02    ;  uncertainty sigma = 0.000052, epsilon = 0.000980
 h51bf                                  1      0.0000       0.00000       A     2.42303e-01     8.69597e-02    ;  uncertainty sigma = 0.000074, epsilon = 0.001557
 h52bf                                  1      0.0000       0.00000       A     2.62560e-01     6.70315e-02    ;  uncertainty sigma = 0.000006, epsilon = 0.000529
 h53bf                                  1      0.0000       0.00000       A     2.62559e-01     6.70249e-02    ;  uncertainty sigma = 0.000010, epsilon = 0.000440
 h54bf                                  1      0.0000       0.00000       A     2.62552e-01     6.70647e-02    ;  uncertainty sigma = 0.000011, epsilon = 0.000453
 h55bf                                  1      0.0000       0.00000       A     2.62559e-01     6.70249e-02    ;  uncertainty sigma = 0.000010, epsilon = 0.000440
 h56bf                                  1      0.0000       0.00000       A     2.62560e-01     6.70315e-02    ;  uncertainty sigma = 0.000006, epsilon = 0.000529
 h57bf                                  1      0.0000       0.00000       A     1.10680e-01     4.07052e-02    ;  uncertainty sigma = 0.000120, epsilon = 0.001586
 h58bf                                  1      0.0000       0.00000       A     2.62565e-01     6.72303e-02    ;  uncertainty sigma = 0.000016, epsilon = 0.000519
 h59bf                                  1      0.0000       0.00000       A     2.62544e-01     6.69724e-02    ;  uncertainty sigma = 0.000010, epsilon = 0.000546
 h60bf                                  1      0.0000       0.00000       A     2.42239e-01     8.76588e-02    ;  uncertainty sigma = 0.000274, epsilon = 0.002166

[ moleculetype ]
;name             nrexcl
 MOL                   3

[ atoms ]
;       nr            type      resi   res      atom      cgnr      charge          mass ; qtot
         1            c0bf         1   UNL        c0         1     0.14922       12.0110 ; qtot    0.149
         2            n1bf         1   UNL        n1         2    -0.72408       14.0070 ; qtot   -0.575
         3            c2bf         1   UNL        c2         3     0.14922       12.0110 ; qtot   -0.426
         4            c3bf         1   UNL        c3         4     0.19077       12.0110 ; qtot   -0.235
         5            c4bf         1   UNL        c4         5    -0.17983       12.0110 ; qtot   -0.415
         6            s5bf         1   UNL        s5         6     1.13241       32.0670 ; qtot    0.718
         7            o6bf         1   UNL        o6         7    -0.59286       15.9990 ; qtot    0.125
         8            o7bf         1   UNL        o7         8    -0.59286       15.9990 ; qtot   -0.468
         9            n8bf         1   UNL        n8         9    -0.79510       14.0070 ; qtot   -1.263
        10            c9bf         1   UNL        c9        10     0.19647       12.0110 ; qtot   -1.067
        11           c10bf         1   UNL       c10        11     0.12443       12.0110 ; qtot   -0.942
        12           c11bf         1   UNL       c11        12    -0.10269       12.0110 ; qtot   -1.045
        13           c12bf         1   UNL       c12        13    -0.06729       12.0110 ; qtot   -1.112
        14           c13bf         1   UNL       c13        14    -0.09438       12.0110 ; qtot   -1.207
        15           c14bf         1   UNL       c14        15     0.26381       12.0110 ; qtot   -0.943
        16           c15bf         1   UNL       c15        16    -0.10622       12.0110 ; qtot   -1.049
        17           c16bf         1   UNL       c16        17    -0.11888       12.0110 ; qtot   -1.168
        18           c17bf         1   UNL       c17        18    -0.13078       12.0110 ; qtot   -1.299
        19           c18bf         1   UNL       c18        19    -0.12452       12.0110 ; qtot   -1.423
        20           c19bf         1   UNL       c19        20    -0.13078       12.0110 ; qtot   -1.554
        21           c20bf         1   UNL       c20        21    -0.11888       12.0110 ; qtot   -1.673
        22           n21bf         1   UNL       n21        22    -0.73407       14.0070 ; qtot   -2.407
        23           c22bf         1   UNL       c22        23     0.14601       12.0110 ; qtot   -2.261
        24           c23bf         1   UNL       c23        24     0.06991       12.0110 ; qtot   -2.191
        25           f24bf         1   UNL       f24        25    -0.14884       18.9980 ; qtot   -2.340
        26           c25bf         1   UNL       c25        26    -0.10975       12.0110 ; qtot   -2.450
        27           c26bf         1   UNL       c26        27     0.01757       12.0110 ; qtot   -2.432
        28          cl27bf         1   UNL      cl27        28    -0.10370       35.4530 ; qtot   -2.536
        29           c28bf         1   UNL       c28        29    -0.07225       12.0110 ; qtot   -2.608
        30           c29bf         1   UNL       c29        30    -0.12863       12.0110 ; qtot   -2.737
        31           c30bf         1   UNL       c30        31     0.19976       12.0110 ; qtot   -2.537
        32           o31bf         1   UNL       o31        32    -0.41717       15.9990 ; qtot   -2.954
        33           h32bf         1   UNL       h32        33     0.03290        1.0080 ; qtot   -2.921
        34           h33bf         1   UNL       h33        34     0.03290        1.0080 ; qtot   -2.888
        35           h34bf         1   UNL       h34        35     0.03290        1.0080 ; qtot   -2.855
        36           h35bf         1   UNL       h35        36     0.03290        1.0080 ; qtot   -2.822
        37           h36bf         1   UNL       h36        37     0.03290        1.0080 ; qtot   -2.789
        38           h37bf         1   UNL       h37        38     0.03290        1.0080 ; qtot   -2.757
        39           h38bf         1   UNL       h38        39     0.05591        1.0080 ; qtot   -2.701
        40           h39bf         1   UNL       h39        40     0.05591        1.0080 ; qtot   -2.645
        41           h40bf         1   UNL       h40        41     0.10391        1.0080 ; qtot   -2.541
        42           h41bf         1   UNL       h41        42     0.10391        1.0080 ; qtot   -2.437
        43           h42bf         1   UNL       h42        43     0.43000        1.0080 ; qtot   -2.007
        44           h43bf         1   UNL       h43        44     0.06895        1.0080 ; qtot   -1.938
        45           h44bf         1   UNL       h44        45     0.06895        1.0080 ; qtot   -1.869
        46           h45bf         1   UNL       h45        46     0.05768        1.0080 ; qtot   -1.811
        47           h46bf         1   UNL       h46        47     0.05563        1.0080 ; qtot   -1.756
        48           h47bf         1   UNL       h47        48     0.05563        1.0080 ; qtot   -1.700
        49           h48bf         1   UNL       h48        49     0.04984        1.0080 ; qtot   -1.650
        50           h49bf         1   UNL       h49        50     0.04984        1.0080 ; qtot   -1.600
        51           h50bf         1   UNL       h50        51     0.06904        1.0080 ; qtot   -1.531
        52           h51bf         1   UNL       h51        52     0.05551        1.0080 ; qtot   -1.476
        53           h52bf         1   UNL       h52        53     0.13512        1.0080 ; qtot   -1.341
        54           h53bf         1   UNL       h53        54     0.13172        1.0080 ; qtot   -1.209
        55           h54bf         1   UNL       h54        55     0.13373        1.0080 ; qtot   -1.075
        56           h55bf         1   UNL       h55        56     0.13172        1.0080 ; qtot   -0.944
        57           h56bf         1   UNL       h56        57     0.13512        1.0080 ; qtot   -0.808
        58           h57bf         1   UNL       h57        58     0.42097        1.0080 ; qtot   -0.387
        59           h58bf         1   UNL       h58        59     0.17051        1.0080 ; qtot   -0.217
        60           h59bf         1   UNL       h59        60     0.15635        1.0080 ; qtot   -0.061
        61           h60bf         1   UNL       h60        61     0.06063        1.0080 ; qtot    0.000

[ bonds ]
;       ai        aj funct               r               k
         1         2     1        0.145256   243880.467090    ;  uncertainty r = 0.000059, k = 3.617198
         1        33     1        0.109923   307036.190137    ;  uncertainty r = 0.000018, k = 1.416832
         1        34     1        0.109923   307036.190137    ;  uncertainty r = 0.000018, k = 1.416832
         1        35     1        0.109923   307036.190137    ;  uncertainty r = 0.000018, k = 1.416832
         2         3     1        0.145256   243880.467090    ;  uncertainty r = 0.000059, k = 3.617198
         2         4     1        0.144822   243784.932764    ;  uncertainty r = 0.000110, k = 5.109429
         3        36     1        0.109923   307036.190137    ;  uncertainty r = 0.000018, k = 1.416832
         3        37     1        0.109923   307036.190137    ;  uncertainty r = 0.000018, k = 1.416832
         3        38     1        0.109923   307036.190137    ;  uncertainty r = 0.000018, k = 1.416832
         4         5     1        0.153910   231480.157520    ;  uncertainty r = 0.000069, k = 14.617804
         4        39     1        0.109795   303838.739746    ;  uncertainty r = 0.000024, k = 3.342766
         4        40     1        0.109795   303838.739746    ;  uncertainty r = 0.000024, k = 3.342766
         5         6     1        0.181643   156671.685474    ;  uncertainty r = 0.000144, k = 27.676456
         5        41     1        0.109605   322429.270166    ;  uncertainty r = 0.000035, k = 3.598610
         5        42     1        0.109605   322429.270166    ;  uncertainty r = 0.000035, k = 3.598610
         6         7     1        0.147828   563289.386719    ;  uncertainty r = 0.000063, k = 11.091240
         6         8     1        0.147828   563289.386719    ;  uncertainty r = 0.000063, k = 11.091240
         6         9     1        0.171431   222403.732568    ;  uncertainty r = 0.000203, k = 43.645909
         9        10     1        0.146619   233474.401465    ;  uncertainty r = 0.000173, k = 15.481040
         9        43     1        0.102355   446696.189746    ;  uncertainty r = 0.000037, k = 2.563599
        10        11     1        0.152359   203709.802393    ;  uncertainty r = 0.000139, k = 7.815115
        10        44     1        0.109535   307176.950684    ;  uncertainty r = 0.000015, k = 1.513039
        10        45     1        0.109535   307176.950684    ;  uncertainty r = 0.000015, k = 1.513039
        11        12     1        0.152807   205882.142139    ;  uncertainty r = 0.000049, k = 6.034528
        11        32     1        0.142749   237731.360986    ;  uncertainty r = 0.000148, k = 9.385987
        11        46     1        0.110028   305655.858301    ;  uncertainty r = 0.000057, k = 3.767299
        12        13     1        0.153373   213728.521143    ;  uncertainty r = 0.000057, k = 3.067805
        12        47     1        0.109666   309965.756250    ;  uncertainty r = 0.000019, k = 0.694348
        12        48     1        0.109666   309965.756250    ;  uncertainty r = 0.000019, k = 0.694348
        13        14     1        0.153242   204627.159204    ;  uncertainty r = 0.000107, k = 8.446566
        13        49     1        0.109603   307691.242529    ;  uncertainty r = 0.000022, k = 1.054570
        13        50     1        0.109603   307691.242529    ;  uncertainty r = 0.000022, k = 1.054570
        14        15     1        0.153800   193320.744482    ;  uncertainty r = 0.000040, k = 8.694137
        14        31     1        0.153393   193890.975366    ;  uncertainty r = 0.000149, k = 10.420407
        14        51     1        0.109712   307584.676172    ;  uncertainty r = 0.000061, k = 3.997520
        15        16     1        0.151694   221715.481934    ;  uncertainty r = 0.000083, k = 6.119503
        15        22     1        0.146412   245465.070264    ;  uncertainty r = 0.000056, k = 13.015779
        15        52     1        0.110029   298346.754541    ;  uncertainty r = 0.000122, k = 4.232422
        16        17     1        0.139859   350947.632764    ;  uncertainty r = 0.000040, k = 0.862444
        16        21     1        0.139859   350947.632764    ;  uncertainty r = 0.000040, k = 0.862444
        17        18     1        0.139620   365997.698340    ;  uncertainty r = 0.000023, k = 1.204462
        17        53     1        0.108883   334327.852148    ;  uncertainty r = 0.000023, k = 0.510237
        18        19     1        0.139607   371240.977637    ;  uncertainty r = 0.000016, k = 0.703160
        18        54     1        0.108851   333986.906201    ;  uncertainty r = 0.000010, k = 1.017361
        19        20     1        0.139607   371240.977637    ;  uncertainty r = 0.000016, k = 0.703160
        19        55     1        0.108841   334518.920801    ;  uncertainty r = 0.000012, k = 0.635600
        20        21     1        0.139620   365997.698340    ;  uncertainty r = 0.000023, k = 1.204462
        20        56     1        0.108851   333986.906201    ;  uncertainty r = 0.000010, k = 1.017361
        21        57     1        0.108883   334327.852148    ;  uncertainty r = 0.000023, k = 0.510247
        22        23     1        0.138781   338551.894336    ;  uncertainty r = 0.000200, k = 8.492272
        22        58     1        0.101386   413993.878223    ;  uncertainty r = 0.000059, k = 1.811296
        23        24     1        0.139996   355317.696143    ;  uncertainty r = 0.000065, k = 5.693935
        23        30     1        0.140477   349727.035547    ;  uncertainty r = 0.000152, k = 21.310479
        24        25     1        0.136333   330246.690088    ;  uncertainty r = 0.000064, k = 7.513058
        24        26     1        0.138317   358097.027441    ;  uncertainty r = 0.000050, k = 8.754662
        26        27     1        0.139579   367600.356250    ;  uncertainty r = 0.000069, k = 3.198203
        26        59     1        0.108676   338170.523145    ;  uncertainty r = 0.000012, k = 1.348235
        27        28     1        0.175567   199356.772266    ;  uncertainty r = 0.000041, k = 5.055074
        27        29     1        0.139340   355714.772656    ;  uncertainty r = 0.000060, k = 4.410570
        29        30     1        0.139306   354486.003564    ;  uncertainty r = 0.000122, k = 2.565189
        29        60     1        0.108732   336159.118262    ;  uncertainty r = 0.000039, k = 1.908305
        30        31     1        0.151022   220709.089990    ;  uncertainty r = 0.000135, k = 7.819346
        31        32     1        0.143048   227830.189551    ;  uncertainty r = 0.000171, k = 9.107615
        31        61     1        0.110055   305127.546582    ;  uncertainty r = 0.000103, k = 4.044583

[ angles ]
;       ai        aj        ak funct           theta             cth
         1         2         3     1      107.454788      516.819700    ;  uncertainty theta = 0.000476, k = 0.035582
         1         2         4     1      106.119797      481.914302    ;  uncertainty theta = 0.001728, k = 0.071811
         2         1        33     1      109.969566      454.402408    ;  uncertainty theta = 0.001878, k = 0.015183
         2         1        34     1      109.969566      454.402408    ;  uncertainty theta = 0.001878, k = 0.015183
         2         1        35     1      109.969566      454.402408    ;  uncertainty theta = 0.001878, k = 0.015183
         2         3        36     1      109.969566      454.402408    ;  uncertainty theta = 0.001878, k = 0.015183
         2         3        37     1      109.969566      454.402408    ;  uncertainty theta = 0.001878, k = 0.015183
         2         3        38     1      109.969566      454.402408    ;  uncertainty theta = 0.001878, k = 0.015183
         2         4         5     1      110.343887      612.747170    ;  uncertainty theta = 0.003303, k = 0.134120
         2         4        39     1      108.508484      437.793200    ;  uncertainty theta = 0.001017, k = 0.055338
         2         4        40     1      108.508484      437.793200    ;  uncertainty theta = 0.001017, k = 0.055338
         3         2         4     1      106.119797      481.914302    ;  uncertainty theta = 0.001728, k = 0.071811
         4         5         6     1      109.563126      504.955734    ;  uncertainty theta = 0.003293, k = 0.091146
         4         5        41     1      110.768494      379.085620    ;  uncertainty theta = 0.003546, k = 0.110345
         4         5        42     1      110.768494      379.085684    ;  uncertainty theta = 0.003546, k = 0.110345
         5         4        39     1      106.697739      407.181452    ;  uncertainty theta = 0.001226, k = 0.120271
         5         4        40     1      106.697739      407.181452    ;  uncertainty theta = 0.001226, k = 0.120271
         5         6         7     1      112.974449      658.555573    ;  uncertainty theta = 0.003748, k = 0.148321
         5         6         8     1      112.974449      658.555573    ;  uncertainty theta = 0.003748, k = 0.148321
         5         6         9     1      102.511551      723.268077    ;  uncertainty theta = 0.004315, k = 0.226815
         6         5        41     1      105.523659      374.182176    ;  uncertainty theta = 0.003385, k = 0.130408
         6         5        42     1      105.523659      374.182176    ;  uncertainty theta = 0.003385, k = 0.130408
         6         9        10     1      110.304565      417.881150    ;  uncertainty theta = 0.004223, k = 0.112185
         6         9        43     1      110.568008      454.235268    ;  uncertainty theta = 0.004660, k = 0.115605
         7         6         8     1      124.588158      842.435274    ;  uncertainty theta = 0.001456, k = 0.072569
         7         6         9     1      114.626175      818.687805    ;  uncertainty theta = 0.002171, k = 0.094357
         8         6         9     1      114.626175      818.687805    ;  uncertainty theta = 0.002171, k = 0.094357
         9        10        11     1      108.055260      570.240971    ;  uncertainty theta = 0.004668, k = 0.172450
         9        10        44     1      106.758339      422.991700    ;  uncertainty theta = 0.001774, k = 0.102951
         9        10        45     1      106.758339      422.991700    ;  uncertainty theta = 0.001774, k = 0.102951
        10         9        43     1      110.634178      395.533115    ;  uncertainty theta = 0.003509, k = 0.091047
        10        11        12     1      111.388840      555.287078    ;  uncertainty theta = 0.001692, k = 0.104495
        10        11        32     1      106.277367      571.129152    ;  uncertainty theta = 0.002722, k = 0.093453
        10        11        46     1      107.619553      395.833208    ;  uncertainty theta = 0.003542, k = 0.114009
        11        10        44     1      108.398056      396.542373    ;  uncertainty theta = 0.001587, k = 0.072130
        11        10        45     1      108.398056      396.542373    ;  uncertainty theta = 0.001587, k = 0.072130
        11        12        13     1      109.208054      593.274039    ;  uncertainty theta = 0.002367, k = 0.075545
        11        12        47     1      107.691429      382.907983    ;  uncertainty theta = 0.001739, k = 0.076803
        11        12        48     1      107.691429      382.907983    ;  uncertainty theta = 0.001739, k = 0.076803
        11        32        31     1      110.650818      506.264447    ;  uncertainty theta = 0.005467, k = 0.183976
        12        11        32     1      110.392601      679.423797    ;  uncertainty theta = 0.002912, k = 0.141680
        12        11        46     1      109.412277      400.699719    ;  uncertainty theta = 0.001592, k = 0.062920
        12        13        14     1      109.553368      575.197532    ;  uncertainty theta = 0.001931, k = 0.112139
        12        13        49     1      108.669052      404.376456    ;  uncertainty theta = 0.001655, k = 0.091386
        12        13        50     1      108.669052      404.376456    ;  uncertainty theta = 0.001655, k = 0.091386
        13        12        47     1      109.076981      398.335685    ;  uncertainty theta = 0.000833, k = 0.058002
        13        12        48     1      109.076981      398.335685    ;  uncertainty theta = 0.000833, k = 0.058002
        13        14        15     1      110.627304      548.421809    ;  uncertainty theta = 0.001519, k = 0.165951
        13        14        31     1      109.701134      585.109314    ;  uncertainty theta = 0.001426, k = 0.107424
        13        14        51     1      108.033615      400.292593    ;  uncertainty theta = 0.002769, k = 0.102571
        14        13        49     1      108.106857      388.738073    ;  uncertainty theta = 0.001573, k = 0.068099
        14        13        50     1      108.106857      388.738073    ;  uncertainty theta = 0.001573, k = 0.068099
        14        15        16     1      111.710739      536.791444    ;  uncertainty theta = 0.002579, k = 0.172522
        14        15        22     1      108.273865      704.451505    ;  uncertainty theta = 0.003996, k = 0.104661
        14        15        52     1      107.093971      386.028905    ;  uncertainty theta = 0.002703, k = 0.126280
        14        31        30     1      111.659340      555.230258    ;  uncertainty theta = 0.005536, k = 0.245979
        14        31        32     1      111.097069      662.548492    ;  uncertainty theta = 0.005301, k = 0.099910
        14        31        61     1      107.903770      393.711712    ;  uncertainty theta = 0.003909, k = 0.118329
        15        14        31     1      109.575706      551.307375    ;  uncertainty theta = 0.004366, k = 0.133181
        15        14        51     1      105.919556      390.293698    ;  uncertainty theta = 0.001590, k = 0.089845
        15        16        17     1      119.869118      424.511222    ;  uncertainty theta = 0.003274, k = 0.143273
        15        16        21     1      119.869118      424.511222    ;  uncertainty theta = 0.003274, k = 0.143273
        15        22        23     1      113.554550      394.395819    ;  uncertainty theta = 0.004923, k = 0.144162
        15        22        58     1      110.517822      342.921051    ;  uncertainty theta = 0.003889, k = 0.119522
        16        15        22     1      110.952232      663.025206    ;  uncertainty theta = 0.001005, k = 0.195907
        16        15        52     1      106.363998      410.332508    ;  uncertainty theta = 0.001972, k = 0.092032
        16        17        18     1      121.166641      520.322945    ;  uncertainty theta = 0.001889, k = 0.047519
        16        17        53     1      118.895851      266.730000    ;  uncertainty theta = 0.002264, k = 0.064094
        16        21        20     1      121.166641      520.322945    ;  uncertainty theta = 0.001889, k = 0.047519
        16        21        57     1      118.895851      266.730000    ;  uncertainty theta = 0.002264, k = 0.064094
        17        16        21     1      120.206970      460.017476    ;  uncertainty theta = 0.003029, k = 0.098153
        17        18        19     1      119.685776      513.267201    ;  uncertainty theta = 0.000971, k = 0.012607
        17        18        54     1      120.211227      283.897609    ;  uncertainty theta = 0.001315, k = 0.018226
        18        17        53     1      120.235497      292.477280    ;  uncertainty theta = 0.001696, k = 0.031107
        18        19        20     1      118.246803      526.555213    ;  uncertainty theta = 0.000903, k = 0.024014
        18        19        55     1      120.647278      289.320829    ;  uncertainty theta = 0.001403, k = 0.006566
        19        18        54     1      120.620949      287.638700    ;  uncertainty theta = 0.001444, k = 0.012507
        19        20        21     1      119.685776      513.267201    ;  uncertainty theta = 0.000971, k = 0.012607
        19        20        56     1      120.620949      287.638764    ;  uncertainty theta = 0.001444, k = 0.012507
        20        19        55     1      120.647278      289.320829    ;  uncertainty theta = 0.001403, k = 0.006566
        20        21        57     1      120.235497      292.477280    ;  uncertainty theta = 0.001696, k = 0.031107
        21        20        56     1      120.211227      283.897609    ;  uncertainty theta = 0.001315, k = 0.018226
        22        15        52     1      107.718811      454.950307    ;  uncertainty theta = 0.004217, k = 0.106072
        22        23        24     1      121.010925      490.434631    ;  uncertainty theta = 0.004737, k = 0.299349
        22        23        30     1      123.090271      487.003593    ;  uncertainty theta = 0.010770, k = 0.290863
        23        22        58     1      111.789696      373.989977    ;  uncertainty theta = 0.004991, k = 0.141848
        23        24        25     1      115.970947      451.665660    ;  uncertainty theta = 0.002831, k = 0.265714
        23        24        26     1      124.330299      367.029742    ;  uncertainty theta = 0.001563, k = 0.160060
        23        30        29     1      121.913986      459.339210    ;  uncertainty theta = 0.004758, k = 0.159351
        23        30        31     1      119.444870      363.151262    ;  uncertainty theta = 0.007491, k = 0.441273
        24        23        30     1      117.604980      363.872047    ;  uncertainty theta = 0.009116, k = 0.296569
        24        26        27     1      118.018143      468.922362    ;  uncertainty theta = 0.002596, k = 0.127875
        24        26        59     1      120.544006      276.883235    ;  uncertainty theta = 0.000751, k = 0.076308
        25        24        26     1      119.441208      519.198131    ;  uncertainty theta = 0.002189, k = 0.151105
        26        27        28     1      120.090111      453.895465    ;  uncertainty theta = 0.001202, k = 0.074147
        26        27        29     1      121.606979      376.437613    ;  uncertainty theta = 0.002272, k = 0.176070
        27        26        59     1      122.424210      280.627231    ;  uncertainty theta = 0.001825, k = 0.067727
        27        29        30     1      120.608688      494.889420    ;  uncertainty theta = 0.003912, k = 0.076519
        27        29        60     1      120.671425      289.351601    ;  uncertainty theta = 0.001601, k = 0.094599
        28        27        29     1      120.624161      437.884623    ;  uncertainty theta = 0.001042, k = 0.080217
        29        30        31     1      119.414017      405.953213    ;  uncertainty theta = 0.003546, k = 0.156324
        30        29        60     1      119.143982      263.665212    ;  uncertainty theta = 0.003062, k = 0.105905
        30        31        32     1      108.804245      644.414718    ;  uncertainty theta = 0.007510, k = 0.329808
        30        31        61     1      108.353615      392.285433    ;  uncertainty theta = 0.003920, k = 0.082927
        31        14        51     1      106.383461      399.109714    ;  uncertainty theta = 0.002860, k = 0.086773
        32        11        46     1      106.853470      455.590107    ;  uncertainty theta = 0.005074, k = 0.174071
        32        31        61     1      106.395973      449.356850    ;  uncertainty theta = 0.002310, k = 0.167470
        33         1        34     1      106.637680      320.281765    ;  uncertainty theta = 0.002145, k = 0.018269
        33         1        35     1      106.637680      320.281765    ;  uncertainty theta = 0.002145, k = 0.018269
        34         1        35     1      106.637680      320.281765    ;  uncertainty theta = 0.002145, k = 0.018269
        36         3        37     1      106.637680      320.281765    ;  uncertainty theta = 0.002145, k = 0.018269
        36         3        38     1      106.637680      320.281765    ;  uncertainty theta = 0.002145, k = 0.018269
        37         3        38     1      106.637680      320.281765    ;  uncertainty theta = 0.002145, k = 0.018269
        39         4        40     1      105.687393      317.649560    ;  uncertainty theta = 0.001944, k = 0.052169
        41         5        42     1      108.069763      304.929398    ;  uncertainty theta = 0.002295, k = 0.071388
        44        10        45     1      106.415855      325.097713    ;  uncertainty theta = 0.000505, k = 0.041931
        47        12        48     1      105.203430      314.010649    ;  uncertainty theta = 0.001060, k = 0.027160
        49        13        50     1      104.585793      315.268990    ;  uncertainty theta = 0.002093, k = 0.030266

[ dihedrals ] ; propers for gromacs 4.5 or higher, use funct 9
;       ai        aj        ak        al funct           phase               k        pn
         1         2         3        36     9        0.000000       -5.969732         1    ;  uncertainty k = 0.495417
         1         2         3        36     9      180.000000       -1.275649         2    ;  uncertainty k = 0.054282
         1         2         3        36     9        0.000000        1.203621         3    ;  uncertainty k = 0.028864
         1         2         3        36     9      180.000000        0.189035         4    ;  uncertainty k = 0.054828
         1         2         3        37     9        0.000000       -5.969732         1    ;  uncertainty k = 0.495417
         1         2         3        37     9      180.000000       -1.275649         2    ;  uncertainty k = 0.054282
         1         2         3        37     9        0.000000        1.203621         3    ;  uncertainty k = 0.028864
         1         2         3        37     9      180.000000        0.189035         4    ;  uncertainty k = 0.054828
         1         2         3        38     9        0.000000       -5.969732         1    ;  uncertainty k = 0.495417
         1         2         3        38     9      180.000000       -1.275649         2    ;  uncertainty k = 0.054282
         1         2         3        38     9        0.000000        1.203621         3    ;  uncertainty k = 0.028864
         1         2         3        38     9      180.000000        0.189035         4    ;  uncertainty k = 0.054828
         1         2         4         5     9        0.000000       -5.212823         1    ;  uncertainty k = 1.199100
         1         2         4         5     9      180.000000       -2.219384         2    ;  uncertainty k = 0.396613
         1         2         4         5     9        0.000000        1.109512         3    ;  uncertainty k = 0.117329
         1         2         4         5     9      180.000000        0.262567         4    ;  uncertainty k = 0.082830
         1         2         4        39     9        0.000000       -2.090750         1    ;  uncertainty k = 0.314241
         1         2         4        39     9      180.000000       -0.150873         2    ;  uncertainty k = 0.173534
         1         2         4        39     9        0.000000        0.697961         3    ;  uncertainty k = 0.055654
         1         2         4        39     9      180.000000        0.097062         4    ;  uncertainty k = 0.055476
         1         2         4        40     9        0.000000       -2.090750         1    ;  uncertainty k = 0.314241
         1         2         4        40     9      180.000000       -0.150873         2    ;  uncertainty k = 0.173534
         1         2         4        40     9        0.000000        0.697961         3    ;  uncertainty k = 0.055654
         1         2         4        40     9      180.000000        0.097062         4    ;  uncertainty k = 0.055476
         2         4         5         6     9        0.000000      -12.569967         1    ;  uncertainty k = 1.738835
         2         4         5         6     9      180.000000       -1.422856         2    ;  uncertainty k = 0.806214
         2         4         5         6     9        0.000000        0.706569         3    ;  uncertainty k = 0.300961
         2         4         5         6     9      180.000000        0.308566         4    ;  uncertainty k = 0.268757
         2         4         5        41     9        0.000000        0.114760         1    ;  uncertainty k = 0.891271
         2         4         5        41     9      180.000000       -0.455896         2    ;  uncertainty k = 0.530749
         2         4         5        41     9        0.000000        0.999247         3    ;  uncertainty k = 0.243256
         2         4         5        41     9      180.000000       -0.087360         4    ;  uncertainty k = 0.114663
         2         4         5        42     9        0.000000        0.114760         1    ;  uncertainty k = 0.891271
         2         4         5        42     9      180.000000       -0.455896         2    ;  uncertainty k = 0.530749
         2         4         5        42     9        0.000000        0.999247         3    ;  uncertainty k = 0.243256
         2         4         5        42     9      180.000000       -0.087360         4    ;  uncertainty k = 0.114663
         3         2         1        33     9        0.000000       -5.969732         1    ;  uncertainty k = 0.495417
         3         2         1        33     9      180.000000       -1.275649         2    ;  uncertainty k = 0.054282
         3         2         1        33     9        0.000000        1.203621         3    ;  uncertainty k = 0.028864
         3         2         1        33     9      180.000000        0.189035         4    ;  uncertainty k = 0.054828
         3         2         1        34     9        0.000000       -5.969732         1    ;  uncertainty k = 0.495417
         3         2         1        34     9      180.000000       -1.275649         2    ;  uncertainty k = 0.054282
         3         2         1        34     9        0.000000        1.203621         3    ;  uncertainty k = 0.028864
         3         2         1        34     9      180.000000        0.189035         4    ;  uncertainty k = 0.054828
         3         2         1        35     9        0.000000       -5.969732         1    ;  uncertainty k = 0.495417
         3         2         1        35     9      180.000000       -1.275649         2    ;  uncertainty k = 0.054282
         3         2         1        35     9        0.000000        1.203621         3    ;  uncertainty k = 0.028864
         3         2         1        35     9      180.000000        0.189035         4    ;  uncertainty k = 0.054828
         3         2         4         5     9        0.000000       -5.212823         1    ;  uncertainty k = 1.199100
         3         2         4         5     9      180.000000       -2.219384         2    ;  uncertainty k = 0.396613
         3         2         4         5     9        0.000000        1.109512         3    ;  uncertainty k = 0.117329
         3         2         4         5     9      180.000000        0.262567         4    ;  uncertainty k = 0.082830
         3         2         4        39     9        0.000000       -2.090750         1    ;  uncertainty k = 0.314241
         3         2         4        39     9      180.000000       -0.150873         2    ;  uncertainty k = 0.173534
         3         2         4        39     9        0.000000        0.697961         3    ;  uncertainty k = 0.055654
         3         2         4        39     9      180.000000        0.097062         4    ;  uncertainty k = 0.055476
         3         2         4        40     9        0.000000       -2.090750         1    ;  uncertainty k = 0.314241
         3         2         4        40     9      180.000000       -0.150873         2    ;  uncertainty k = 0.173534
         3         2         4        40     9        0.000000        0.697961         3    ;  uncertainty k = 0.055654
         3         2         4        40     9      180.000000        0.097062         4    ;  uncertainty k = 0.055476
         4         2         1        33     9        0.000000       -5.241818         1    ;  uncertainty k = 0.520476
         4         2         1        33     9      180.000000       -2.065465         2    ;  uncertainty k = 0.247399
         4         2         1        33     9        0.000000        0.910411         3    ;  uncertainty k = 0.075970
         4         2         1        33     9      180.000000        0.153033         4    ;  uncertainty k = 0.118035
         4         2         1        34     9        0.000000       -5.241818         1    ;  uncertainty k = 0.520476
         4         2         1        34     9      180.000000       -2.065465         2    ;  uncertainty k = 0.247399
         4         2         1        34     9        0.000000        0.910411         3    ;  uncertainty k = 0.075970
         4         2         1        34     9      180.000000        0.153033         4    ;  uncertainty k = 0.118035
         4         2         1        35     9        0.000000       -5.241818         1    ;  uncertainty k = 0.520476
         4         2         1        35     9      180.000000       -2.065465         2    ;  uncertainty k = 0.247399
         4         2         1        35     9        0.000000        0.910411         3    ;  uncertainty k = 0.075970
         4         2         1        35     9      180.000000        0.153033         4    ;  uncertainty k = 0.118035
         4         2         3        36     9        0.000000       -5.241818         1    ;  uncertainty k = 0.520476
         4         2         3        36     9      180.000000       -2.065465         2    ;  uncertainty k = 0.247399
         4         2         3        36     9        0.000000        0.910411         3    ;  uncertainty k = 0.075970
         4         2         3        36     9      180.000000        0.153033         4    ;  uncertainty k = 0.118035
         4         2         3        37     9        0.000000       -5.241818         1    ;  uncertainty k = 0.520476
         4         2         3        37     9      180.000000       -2.065465         2    ;  uncertainty k = 0.247399
         4         2         3        37     9        0.000000        0.910411         3    ;  uncertainty k = 0.075970
         4         2         3        37     9      180.000000        0.153033         4    ;  uncertainty k = 0.118035
         4         2         3        38     9        0.000000       -5.241818         1    ;  uncertainty k = 0.520476
         4         2         3        38     9      180.000000       -2.065465         2    ;  uncertainty k = 0.247399
         4         2         3        38     9        0.000000        0.910411         3    ;  uncertainty k = 0.075970
         4         2         3        38     9      180.000000        0.153033         4    ;  uncertainty k = 0.118035
         4         5         6         7     9        0.000000       -6.270596         1    ;  uncertainty k = 0.959168
         4         5         6         7     9      180.000000        1.798642         2    ;  uncertainty k = 0.581577
         4         5         6         7     9        0.000000        0.447341         3    ;  uncertainty k = 0.101111
         4         5         6         7     9      180.000000       -0.255831         4    ;  uncertainty k = 0.115279
         4         5         6         8     9        0.000000       -6.270596         1    ;  uncertainty k = 0.959168
         4         5         6         8     9      180.000000        1.798642         2    ;  uncertainty k = 0.581577
         4         5         6         8     9        0.000000        0.447341         3    ;  uncertainty k = 0.101111
         4         5         6         8     9      180.000000       -0.255831         4    ;  uncertainty k = 0.115279
         4         5         6         9     9        0.000000       -5.938795         1    ;  uncertainty k = 1.607336
         4         5         6         9     9      180.000000        1.034374         2    ;  uncertainty k = 1.137635
         4         5         6         9     9        0.000000        0.618008         3    ;  uncertainty k = 0.295852
         4         5         6         9     9      180.000000       -0.122037         4    ;  uncertainty k = 0.137214
         5         6         9        10     9        0.000000       -8.626226         1    ;  uncertainty k = 0.901283
         5         6         9        10     9      180.000000       -5.792505         2    ;  uncertainty k = 0.454708
         5         6         9        10     9        0.000000        1.773431         3    ;  uncertainty k = 0.612955
         5         6         9        10     9      180.000000        0.459510         4    ;  uncertainty k = 0.113718
         5         6         9        43     9        0.000000       -4.580906         1    ;  uncertainty k = 1.084592
         5         6         9        43     9      180.000000       -5.459476         2    ;  uncertainty k = 0.500511
         5         6         9        43     9        0.000000       -1.118622         3    ;  uncertainty k = 0.274341
         5         6         9        43     9      180.000000        0.462138         4    ;  uncertainty k = 0.286317
         6         5         4        39     9        0.000000        2.358843         1    ;  uncertainty k = 0.674775
         6         5         4        39     9      180.000000       -1.690098         2    ;  uncertainty k = 0.842031
         6         5         4        39     9        0.000000        0.350566         3    ;  uncertainty k = 0.200314
         6         5         4        39     9      180.000000       -0.249162         4    ;  uncertainty k = 0.174699
         6         5         4        40     9        0.000000        2.358843         1    ;  uncertainty k = 0.674775
         6         5         4        40     9      180.000000       -1.690098         2    ;  uncertainty k = 0.842031
         6         5         4        40     9        0.000000        0.350566         3    ;  uncertainty k = 0.200314
         6         5         4        40     9      180.000000       -0.249162         4    ;  uncertainty k = 0.174699
         6         9        10        11     9        0.000000       -6.142945         1    ;  uncertainty k = 0.245245
         6         9        10        11     9      180.000000       -2.326826         2    ;  uncertainty k = 0.189161
         6         9        10        11     9        0.000000       -0.244739         3    ;  uncertainty k = 0.217636
         6         9        10        11     9      180.000000        0.380614         4    ;  uncertainty k = 0.103925
         6         9        10        44     9        0.000000        0.689058         1    ;  uncertainty k = 0.467235
         6         9        10        44     9      180.000000       -3.096035         2    ;  uncertainty k = 0.397122
         6         9        10        44     9        0.000000       -0.002157         3    ;  uncertainty k = 0.229819
         6         9        10        44     9      180.000000       -0.064203         4    ;  uncertainty k = 0.176444
         6         9        10        45     9        0.000000        0.689058         1    ;  uncertainty k = 0.467235
         6         9        10        45     9      180.000000       -3.096035         2    ;  uncertainty k = 0.397122
         6         9        10        45     9        0.000000       -0.002157         3    ;  uncertainty k = 0.229819
         6         9        10        45     9      180.000000       -0.064203         4    ;  uncertainty k = 0.176444
         7         6         5        41     9        0.000000        0.483367         1    ;  uncertainty k = 0.487603
         7         6         5        41     9      180.000000       -0.214047         2    ;  uncertainty k = 0.147372
         7         6         5        41     9        0.000000        0.419036         3    ;  uncertainty k = 0.097647
         7         6         5        41     9      180.000000        0.148059         4    ;  uncertainty k = 0.038467
         7         6         5        42     9        0.000000        0.483367         1    ;  uncertainty k = 0.487603
         7         6         5        42     9      180.000000       -0.214047         2    ;  uncertainty k = 0.147372
         7         6         5        42     9        0.000000        0.419036         3    ;  uncertainty k = 0.097647
         7         6         5        42     9      180.000000        0.148059         4    ;  uncertainty k = 0.038467
         7         6         9        10     9        0.000000        2.118129         1    ;  uncertainty k = 0.767081
         7         6         9        10     9      180.000000        1.652189         2    ;  uncertainty k = 0.519225
         7         6         9        10     9        0.000000        1.378322         3    ;  uncertainty k = 0.404222
         7         6         9        10     9      180.000000       -0.356320         4    ;  uncertainty k = 0.218455
         7         6         9        43     9        0.000000        5.088978         1    ;  uncertainty k = 0.583947
         7         6         9        43     9      180.000000       -0.021342         2    ;  uncertainty k = 0.434953
         7         6         9        43     9        0.000000       -0.185672         3    ;  uncertainty k = 0.134514
         7         6         9        43     9      180.000000       -0.271420         4    ;  uncertainty k = 0.198418
         8         6         5        41     9        0.000000        0.483367         1    ;  uncertainty k = 0.487603
         8         6         5        41     9      180.000000       -0.214047         2    ;  uncertainty k = 0.147372
         8         6         5        41     9        0.000000        0.419036         3    ;  uncertainty k = 0.097647
         8         6         5        41     9      180.000000        0.148059         4    ;  uncertainty k = 0.038467
         8         6         5        42     9        0.000000        0.483367         1    ;  uncertainty k = 0.487603
         8         6         5        42     9      180.000000       -0.214047         2    ;  uncertainty k = 0.147372
         8         6         5        42     9        0.000000        0.419036         3    ;  uncertainty k = 0.097647
         8         6         5        42     9      180.000000        0.148059         4    ;  uncertainty k = 0.038467
         8         6         9        10     9        0.000000        2.118129         1    ;  uncertainty k = 0.767081
         8         6         9        10     9      180.000000        1.652189         2    ;  uncertainty k = 0.519225
         8         6         9        10     9        0.000000        1.378322         3    ;  uncertainty k = 0.404222
         8         6         9        10     9      180.000000       -0.356320         4    ;  uncertainty k = 0.218455
         8         6         9        43     9        0.000000        5.088978         1    ;  uncertainty k = 0.583947
         8         6         9        43     9      180.000000       -0.021342         2    ;  uncertainty k = 0.434953
         8         6         9        43     9        0.000000       -0.185672         3    ;  uncertainty k = 0.134514
         8         6         9        43     9      180.000000       -0.271420         4    ;  uncertainty k = 0.198418
         9         6         5        41     9        0.000000        2.175927         1    ;  uncertainty k = 0.793760
         9         6         5        41     9      180.000000       -1.888652         2    ;  uncertainty k = 0.503005
         9         6         5        41     9        0.000000        0.092329         3    ;  uncertainty k = 0.165351
         9         6         5        41     9      180.000000        0.066607         4    ;  uncertainty k = 0.101758
         9         6         5        42     9        0.000000        2.175927         1    ;  uncertainty k = 0.793760
         9         6         5        42     9      180.000000       -1.888652         2    ;  uncertainty k = 0.503005
         9         6         5        42     9        0.000000        0.092329         3    ;  uncertainty k = 0.165351
         9         6         5        42     9      180.000000        0.066607         4    ;  uncertainty k = 0.101758
         9        10        11        12     9        0.000000       -2.101017         1    ;  uncertainty k = 1.231881
         9        10        11        12     9      180.000000        0.583356         2    ;  uncertainty k = 0.632394
         9        10        11        12     9        0.000000        1.699179         3    ;  uncertainty k = 0.116328
         9        10        11        12     9      180.000000       -0.469389         4    ;  uncertainty k = 0.225178
         9        10        11        32     9        0.000000       -0.893281         1    ;  uncertainty k = 1.146486
         9        10        11        32     9      180.000000       -2.892504         2    ;  uncertainty k = 0.303507
         9        10        11        32     9        0.000000        2.616720         3    ;  uncertainty k = 0.341938
         9        10        11        32     9      180.000000       -0.173190         4    ;  uncertainty k = 0.149591
         9        10        11        46     9        0.000000       -0.238377         1    ;  uncertainty k = 0.278943
         9        10        11        46     9      180.000000       -0.368392         2    ;  uncertainty k = 0.155613
         9        10        11        46     9        0.000000        1.013167         3    ;  uncertainty k = 0.256739
         9        10        11        46     9      180.000000       -0.093131         4    ;  uncertainty k = 0.075102
        10        11        12        13     9        0.000000       -2.846508         1    ;  uncertainty k = 0.371313
        10        11        12        13     9      180.000000        0.174107         2    ;  uncertainty k = 0.354798
        10        11        12        13     9        0.000000        0.458604         3    ;  uncertainty k = 0.119358
        10        11        12        13     9      180.000000       -0.371215         4    ;  uncertainty k = 0.149134
        10        11        12        47     9        0.000000       -0.699363         1    ;  uncertainty k = 0.294690
        10        11        12        47     9      180.000000       -0.344242         2    ;  uncertainty k = 0.264845
        10        11        12        47     9        0.000000        0.210249         3    ;  uncertainty k = 0.112343
        10        11        12        47     9      180.000000       -0.220060         4    ;  uncertainty k = 0.109549
        10        11        12        48     9        0.000000       -0.699363         1    ;  uncertainty k = 0.294690
        10        11        12        48     9      180.000000       -0.344242         2    ;  uncertainty k = 0.264845
        10        11        12        48     9        0.000000        0.210249         3    ;  uncertainty k = 0.112343
        10        11        12        48     9      180.000000       -0.220060         4    ;  uncertainty k = 0.109549
        10        11        32        31     9        0.000000       -5.069769         1    ;  uncertainty k = 0.675490
        10        11        32        31     9      180.000000       -0.137661         2    ;  uncertainty k = 0.179438
        10        11        32        31     9        0.000000        0.553233         3    ;  uncertainty k = 0.285154
        10        11        32        31     9      180.000000       -0.091358         4    ;  uncertainty k = 0.215025
        11        10         9        43     9        0.000000        5.942712         1    ;  uncertainty k = 0.569996
        11        10         9        43     9      180.000000       -5.706748         2    ;  uncertainty k = 0.446604
        11        10         9        43     9        0.000000        0.435550         3    ;  uncertainty k = 0.208603
        11        10         9        43     9      180.000000       -0.145712         4    ;  uncertainty k = 0.202013
        11        12        13        14     9        0.000000       -4.812861         1    ;  uncertainty k = 1.091555
        11        12        13        14     9      180.000000       -0.593061         2    ;  uncertainty k = 0.611601
        11        12        13        14     9        0.000000        1.220014         3    ;  uncertainty k = 0.241589
        11        12        13        14     9      180.000000       -0.958009         4    ;  uncertainty k = 0.184091
        11        12        13        49     9        0.000000       -1.041418         1    ;  uncertainty k = 0.639476
        11        12        13        49     9      180.000000       -0.583637         2    ;  uncertainty k = 0.223164
        11        12        13        49     9        0.000000        0.412852         3    ;  uncertainty k = 0.148135
        11        12        13        49     9      180.000000        0.036646         4    ;  uncertainty k = 0.042338
        11        12        13        50     9        0.000000       -1.041418         1    ;  uncertainty k = 0.639476
        11        12        13        50     9      180.000000       -0.583637         2    ;  uncertainty k = 0.223164
        11        12        13        50     9        0.000000        0.412852         3    ;  uncertainty k = 0.148135
        11        12        13        50     9      180.000000        0.036646         4    ;  uncertainty k = 0.042338
        11        32        31        14     9        0.000000        4.256454         1    ;  uncertainty k = 1.342929
        11        32        31        14     9      180.000000       -1.844129         2    ;  uncertainty k = 1.082165
        11        32        31        14     9        0.000000        0.077561         3    ;  uncertainty k = 0.325890
        11        32        31        14     9      180.000000        0.049618         4    ;  uncertainty k = 0.201779
        11        32        31        30     9        0.000000       -2.971643         1    ;  uncertainty k = 1.622280
        11        32        31        30     9      180.000000       -1.170100         2    ;  uncertainty k = 0.899073
        11        32        31        30     9        0.000000        0.864549         3    ;  uncertainty k = 0.523415
        11        32        31        30     9      180.000000       -0.093715         4    ;  uncertainty k = 0.215831
        11        32        31        61     9        0.000000       -1.654418         1    ;  uncertainty k = 0.511118
        11        32        31        61     9      180.000000       -0.500412         2    ;  uncertainty k = 0.346984
        11        32        31        61     9        0.000000        0.428234         3    ;  uncertainty k = 0.080766
        11        32        31        61     9      180.000000       -0.110346         4    ;  uncertainty k = 0.209565
        12        11        10        44     9        0.000000       -0.946334         1    ;  uncertainty k = 0.438098
        12        11        10        44     9      180.000000       -0.086405         2    ;  uncertainty k = 0.335455
        12        11        10        44     9        0.000000        0.353156         3    ;  uncertainty k = 0.054940
        12        11        10        44     9      180.000000       -0.199261         4    ;  uncertainty k = 0.078974
        12        11        10        45     9        0.000000       -0.946334         1    ;  uncertainty k = 0.438098
        12        11        10        45     9      180.000000       -0.086405         2    ;  uncertainty k = 0.335455
        12        11        10        45     9        0.000000        0.353156         3    ;  uncertainty k = 0.054940
        12        11        10        45     9      180.000000       -0.199261         4    ;  uncertainty k = 0.078974
        12        11        32        31     9        0.000000        2.516865         1    ;  uncertainty k = 3.048094
        12        11        32        31     9      180.000000       -1.327025         2    ;  uncertainty k = 0.430625
        12        11        32        31     9        0.000000       -0.077263         3    ;  uncertainty k = 0.609457
        12        11        32        31     9      180.000000        0.022014         4    ;  uncertainty k = 0.162807
        12        13        14        15     9        0.000000       -3.429832         1    ;  uncertainty k = 0.550482
        12        13        14        15     9      180.000000        0.029410         2    ;  uncertainty k = 0.171172
        12        13        14        15     9        0.000000        1.158285         3    ;  uncertainty k = 0.144854
        12        13        14        15     9      180.000000       -0.539417         4    ;  uncertainty k = 0.154760
        12        13        14        31     9        0.000000       -3.485906         1    ;  uncertainty k = 0.267936
        12        13        14        31     9      180.000000        0.116361         2    ;  uncertainty k = 0.394729
        12        13        14        31     9        0.000000        1.025668         3    ;  uncertainty k = 0.170000
        12        13        14        31     9      180.000000       -0.778208         4    ;  uncertainty k = 0.061466
        12        13        14        51     9        0.000000       -2.394423         1    ;  uncertainty k = 0.511518
        12        13        14        51     9      180.000000        0.127402         2    ;  uncertainty k = 0.262657
        12        13        14        51     9        0.000000        0.026200         3    ;  uncertainty k = 0.077562
        12        13        14        51     9      180.000000       -0.101942         4    ;  uncertainty k = 0.083305
        13        12        11        32     9        0.000000       -2.322547         1    ;  uncertainty k = 0.706965
        13        12        11        32     9      180.000000       -1.066635         2    ;  uncertainty k = 0.587681
        13        12        11        32     9        0.000000        1.433882         3    ;  uncertainty k = 0.413572
        13        12        11        32     9      180.000000       -0.492784         4    ;  uncertainty k = 0.314085
        13        12        11        46     9        0.000000        0.612736         1    ;  uncertainty k = 0.760534
        13        12        11        46     9      180.000000       -1.864866         2    ;  uncertainty k = 0.702773
        13        12        11        46     9        0.000000       -0.285378         3    ;  uncertainty k = 0.170786
        13        12        11        46     9      180.000000        0.135833         4    ;  uncertainty k = 0.089878
        13        14        15        16     9        0.000000       -0.460265         1    ;  uncertainty k = 0.378480
        13        14        15        16     9      180.000000        0.091417         2    ;  uncertainty k = 0.234286
        13        14        15        16     9        0.000000        1.027683         3    ;  uncertainty k = 0.137264
        13        14        15        16     9      180.000000       -0.027056         4    ;  uncertainty k = 0.091487
        13        14        15        22     9        0.000000       -2.690971         1    ;  uncertainty k = 0.457017
        13        14        15        22     9      180.000000        0.562053         2    ;  uncertainty k = 0.351266
        13        14        15        22     9        0.000000        1.098836         3    ;  uncertainty k = 0.218602
        13        14        15        22     9      180.000000       -0.294577         4    ;  uncertainty k = 0.291895
        13        14        15        52     9        0.000000       -0.243573         1    ;  uncertainty k = 0.392155
        13        14        15        52     9      180.000000       -0.308384         2    ;  uncertainty k = 0.183697
        13        14        15        52     9        0.000000        0.093415         3    ;  uncertainty k = 0.150044
        13        14        15        52     9      180.000000       -0.117627         4    ;  uncertainty k = 0.084836
        13        14        31        30     9        0.000000       -1.732697         1    ;  uncertainty k = 0.876203
        13        14        31        30     9      180.000000       -0.812110         2    ;  uncertainty k = 0.214859
        13        14        31        30     9        0.000000        0.631251         3    ;  uncertainty k = 0.203010
        13        14        31        30     9      180.000000       -0.213574         4    ;  uncertainty k = 0.115878
        13        14        31        32     9        0.000000       -1.612268         1    ;  uncertainty k = 0.799759
        13        14        31        32     9      180.000000       -1.484665         2    ;  uncertainty k = 0.956289
        13        14        31        32     9        0.000000        0.926102         3    ;  uncertainty k = 0.284838
        13        14        31        32     9      180.000000       -0.034797         4    ;  uncertainty k = 0.259904
        13        14        31        61     9        0.000000        0.372593         1    ;  uncertainty k = 0.557550
        13        14        31        61     9      180.000000       -0.492179         2    ;  uncertainty k = 0.386340
        13        14        31        61     9        0.000000       -0.168047         3    ;  uncertainty k = 0.120087
        13        14        31        61     9      180.000000       -0.045971         4    ;  uncertainty k = 0.139834
        14        13        12        47     9        0.000000       -0.789240         1    ;  uncertainty k = 0.229373
        14        13        12        47     9      180.000000       -0.686149         2    ;  uncertainty k = 0.216409
        14        13        12        47     9        0.000000        0.412549         3    ;  uncertainty k = 0.127350
        14        13        12        47     9      180.000000       -0.047675         4    ;  uncertainty k = 0.115682
        14        13        12        48     9        0.000000       -0.789240         1    ;  uncertainty k = 0.229373
        14        13        12        48     9      180.000000       -0.686149         2    ;  uncertainty k = 0.216409
        14        13        12        48     9        0.000000        0.412549         3    ;  uncertainty k = 0.127350
        14        13        12        48     9      180.000000       -0.047675         4    ;  uncertainty k = 0.115682
        14        15        16        17     9        0.000000       -0.111537         1    ;  uncertainty k = 0.709383
        14        15        16        17     9      180.000000        1.832259         2    ;  uncertainty k = 0.233886
        14        15        16        17     9        0.000000        0.274101         3    ;  uncertainty k = 0.144963
        14        15        16        17     9      180.000000        0.245319         4    ;  uncertainty k = 0.077451
        14        15        16        21     9        0.000000       -0.111537         1    ;  uncertainty k = 0.709383
        14        15        16        21     9      180.000000        1.832259         2    ;  uncertainty k = 0.233886
        14        15        16        21     9        0.000000        0.274101         3    ;  uncertainty k = 0.144963
        14        15        16        21     9      180.000000        0.245319         4    ;  uncertainty k = 0.077451
        14        15        22        23     9        0.000000        0.548068         1    ;  uncertainty k = 1.309096
        14        15        22        23     9      180.000000        0.291283         2    ;  uncertainty k = 0.543452
        14        15        22        23     9        0.000000        0.281390         3    ;  uncertainty k = 0.230791
        14        15        22        23     9      180.000000        0.171171         4    ;  uncertainty k = 0.179397
        14        15        22        58     9        0.000000        3.364422         1    ;  uncertainty k = 0.792659
        14        15        22        58     9      180.000000       -1.771652         2    ;  uncertainty k = 1.305731
        14        15        22        58     9        0.000000        0.478059         3    ;  uncertainty k = 0.318344
        14        15        22        58     9      180.000000       -0.021921         4    ;  uncertainty k = 0.075868
        14        31        30        23     9        0.000000        0.015728         1    ;  uncertainty k = 2.103622
        14        31        30        23     9      180.000000        0.090598         2    ;  uncertainty k = 1.144573
        14        31        30        23     9        0.000000        0.046490         3    ;  uncertainty k = 0.682021
        14        31        30        23     9      180.000000        0.764860         4    ;  uncertainty k = 0.172593
        14        31        30        29     9        0.000000       -1.511541         1    ;  uncertainty k = 0.713272
        14        31        30        29     9      180.000000        0.031538         2    ;  uncertainty k = 0.433587
        14        31        30        29     9        0.000000       -0.143618         3    ;  uncertainty k = 0.198407
        14        31        30        29     9      180.000000        0.411953         4    ;  uncertainty k = 0.136694
        15        14        13        49     9        0.000000        0.087291         1    ;  uncertainty k = 0.314080
        15        14        13        49     9      180.000000       -0.651820         2    ;  uncertainty k = 0.226606
        15        14        13        49     9        0.000000        0.474405         3    ;  uncertainty k = 0.093397
        15        14        13        49     9      180.000000       -0.051753         4    ;  uncertainty k = 0.104749
        15        14        13        50     9        0.000000        0.087291         1    ;  uncertainty k = 0.314080
        15        14        13        50     9      180.000000       -0.651820         2    ;  uncertainty k = 0.226606
        15        14        13        50     9        0.000000        0.474405         3    ;  uncertainty k = 0.093397
        15        14        13        50     9      180.000000       -0.051753         4    ;  uncertainty k = 0.104749
        15        14        31        30     9        0.000000        1.246175         1    ;  uncertainty k = 1.083684
        15        14        31        30     9      180.000000       -2.310668         2    ;  uncertainty k = 0.382704
        15        14        31        30     9        0.000000        0.276406         3    ;  uncertainty k = 0.185230
        15        14        31        30     9      180.000000       -0.158340         4    ;  uncertainty k = 0.138007
        15        14        31        32     9        0.000000       -0.942760         1    ;  uncertainty k = 1.560998
        15        14        31        32     9      180.000000       -3.375463         2    ;  uncertainty k = 1.519686
        15        14        31        32     9        0.000000        0.664151         3    ;  uncertainty k = 0.249167
        15        14        31        32     9      180.000000        0.113797         4    ;  uncertainty k = 0.321441
        15        14        31        61     9        0.000000        0.850552         1    ;  uncertainty k = 0.754507
        15        14        31        61     9      180.000000       -1.038194         2    ;  uncertainty k = 0.486162
        15        14        31        61     9        0.000000       -0.237166         3    ;  uncertainty k = 0.099607
        15        14        31        61     9      180.000000        0.002744         4    ;  uncertainty k = 0.201386
        15        16        17        18     9        0.000000        0.315475         1    ;  uncertainty k = 0.262602
        15        16        17        18     9      180.000000        8.621091         2    ;  uncertainty k = 0.465138
        15        16        17        18     9        0.000000        1.453888         3    ;  uncertainty k = 0.336787
        15        16        17        18     9      180.000000        1.906667         4    ;  uncertainty k = 0.204333
        15        16        17        53     9        0.000000        0.041226         1    ;  uncertainty k = 0.295434
        15        16        17        53     9      180.000000        7.823420         2    ;  uncertainty k = 0.255813
        15        16        17        53     9        0.000000        0.567730         3    ;  uncertainty k = 0.365385
        15        16        17        53     9      180.000000        0.878203         4    ;  uncertainty k = 0.166432
        15        16        21        20     9        0.000000        0.315475         1    ;  uncertainty k = 0.262602
        15        16        21        20     9      180.000000        8.621091         2    ;  uncertainty k = 0.465138
        15        16        21        20     9        0.000000        1.453888         3    ;  uncertainty k = 0.336787
        15        16        21        20     9      180.000000        1.906667         4    ;  uncertainty k = 0.204333
        15        16        21        57     9        0.000000        0.041226         1    ;  uncertainty k = 0.295434
        15        16        21        57     9      180.000000        7.823420         2    ;  uncertainty k = 0.255813
        15        16        21        57     9        0.000000        0.567730         3    ;  uncertainty k = 0.365385
        15        16        21        57     9      180.000000        0.878203         4    ;  uncertainty k = 0.166432
        15        22        23        24     9        0.000000        2.352779         1    ;  uncertainty k = 1.717334
        15        22        23        24     9      180.000000        2.381757         2    ;  uncertainty k = 0.915067
        15        22        23        24     9        0.000000        0.725986         3    ;  uncertainty k = 0.337987
        15        22        23        24     9      180.000000        0.373315         4    ;  uncertainty k = 0.145269
        15        22        23        30     9        0.000000        3.311740         1    ;  uncertainty k = 1.251880
        15        22        23        30     9      180.000000        1.841296         2    ;  uncertainty k = 0.699894
        15        22        23        30     9        0.000000       -0.324185         3    ;  uncertainty k = 0.371095
        15        22        23        30     9      180.000000        0.553658         4    ;  uncertainty k = 0.225031
        16        15        14        31     9        0.000000       -0.653295         1    ;  uncertainty k = 0.761335
        16        15        14        31     9      180.000000       -0.366478         2    ;  uncertainty k = 0.365848
        16        15        14        31     9        0.000000        0.405218         3    ;  uncertainty k = 0.209776
        16        15        14        31     9      180.000000       -0.028585         4    ;  uncertainty k = 0.142202
        16        15        14        51     9        0.000000        0.521826         1    ;  uncertainty k = 0.245890
        16        15        14        51     9      180.000000        0.128842         2    ;  uncertainty k = 0.617819
        16        15        14        51     9        0.000000        0.456514         3    ;  uncertainty k = 0.077842
        16        15        14        51     9      180.000000       -0.031889         4    ;  uncertainty k = 0.109122
        16        15        22        23     9        0.000000       -1.271087         1    ;  uncertainty k = 0.767769
        16        15        22        23     9      180.000000        0.111683         2    ;  uncertainty k = 0.136914
        16        15        22        23     9        0.000000        1.047349         3    ;  uncertainty k = 0.234418
        16        15        22        23     9      180.000000        0.230458         4    ;  uncertainty k = 0.093726
        16        15        22        58     9        0.000000        4.853101         1    ;  uncertainty k = 0.666151
        16        15        22        58     9      180.000000       -0.863729         2    ;  uncertainty k = 0.353945
        16        15        22        58     9        0.000000        0.434146         3    ;  uncertainty k = 0.251029
        16        15        22        58     9      180.000000       -0.043424         4    ;  uncertainty k = 0.187740
        16        17        18        19     9        0.000000       -0.073185         1    ;  uncertainty k = 0.135863
        16        17        18        19     9      180.000000       13.840581         2    ;  uncertainty k = 0.218470
        16        17        18        19     9        0.000000       -0.942124         3    ;  uncertainty k = 0.500159
        16        17        18        19     9      180.000000        0.720226         4    ;  uncertainty k = 0.249573
        16        17        18        54     9        0.000000        0.078937         1    ;  uncertainty k = 0.238410
        16        17        18        54     9      180.000000        7.523904         2    ;  uncertainty k = 0.411008
        16        17        18        54     9        0.000000        1.486224         3    ;  uncertainty k = 0.266910
        16        17        18        54     9      180.000000        1.791252         4    ;  uncertainty k = 0.130361
        16        21        20        19     9        0.000000       -0.073185         1    ;  uncertainty k = 0.135863
        16        21        20        19     9      180.000000       13.840581         2    ;  uncertainty k = 0.218470
        16        21        20        19     9        0.000000       -0.942124         3    ;  uncertainty k = 0.500159
        16        21        20        19     9      180.000000        0.720226         4    ;  uncertainty k = 0.249573
        16        21        20        56     9        0.000000        0.078937         1    ;  uncertainty k = 0.238410
        16        21        20        56     9      180.000000        7.523904         2    ;  uncertainty k = 0.411008
        16        21        20        56     9        0.000000        1.486224         3    ;  uncertainty k = 0.266910
        16        21        20        56     9      180.000000        1.791252         4    ;  uncertainty k = 0.130361
        17        16        15        22     9        0.000000       -0.587440         1    ;  uncertainty k = 0.650241
        17        16        15        22     9      180.000000        2.752986         2    ;  uncertainty k = 0.235149
        17        16        15        22     9        0.000000        0.633136         3    ;  uncertainty k = 0.233844
        17        16        15        22     9      180.000000        0.456102         4    ;  uncertainty k = 0.027417
        17        16        15        52     9        0.000000       -0.605120         1    ;  uncertainty k = 0.219677
        17        16        15        52     9      180.000000        2.297380         2    ;  uncertainty k = 0.337137
        17        16        15        52     9        0.000000        0.473321         3    ;  uncertainty k = 0.111321
        17        16        15        52     9      180.000000        0.234329         4    ;  uncertainty k = 0.048057
        17        16        21        20     9        0.000000       -0.244750         1    ;  uncertainty k = 0.085030
        17        16        21        20     9      180.000000       11.550238         2    ;  uncertainty k = 0.281782
        17        16        21        20     9        0.000000       -0.471965         3    ;  uncertainty k = 0.307308
        17        16        21        20     9      180.000000        0.819629         4    ;  uncertainty k = 0.339588
        17        16        21        57     9        0.000000        0.103785         1    ;  uncertainty k = 0.115164
        17        16        21        57     9      180.000000        7.232566         2    ;  uncertainty k = 0.479326
        17        16        21        57     9        0.000000        1.441609         3    ;  uncertainty k = 0.358039
        17        16        21        57     9      180.000000        1.626932         4    ;  uncertainty k = 0.180627
        17        18        19        20     9        0.000000        0.003338         1    ;  uncertainty k = 0.036528
        17        18        19        20     9      180.000000       15.061872         2    ;  uncertainty k = 0.266781
        17        18        19        20     9        0.000000       -1.241530         3    ;  uncertainty k = 0.510933
        17        18        19        20     9      180.000000        0.486539         4    ;  uncertainty k = 0.300059
        17        18        19        55     9        0.000000        0.055743         1    ;  uncertainty k = 0.094833
        17        18        19        55     9      180.000000        7.490470         2    ;  uncertainty k = 0.333391
        17        18        19        55     9        0.000000        1.467121         3    ;  uncertainty k = 0.292765
        17        18        19        55     9      180.000000        1.797081         4    ;  uncertainty k = 0.179698
        18        17        16        21     9        0.000000       -0.244750         1    ;  uncertainty k = 0.085030
        18        17        16        21     9      180.000000       11.550238         2    ;  uncertainty k = 0.281782
        18        17        16        21     9        0.000000       -0.471965         3    ;  uncertainty k = 0.307308
        18        17        16        21     9      180.000000        0.819629         4    ;  uncertainty k = 0.339588
        18        19        20        21     9        0.000000        0.003338         1    ;  uncertainty k = 0.036528
        18        19        20        21     9      180.000000       15.061872         2    ;  uncertainty k = 0.266781
        18        19        20        21     9        0.000000       -1.241530         3    ;  uncertainty k = 0.510933
        18        19        20        21     9      180.000000        0.486539         4    ;  uncertainty k = 0.300059
        18        19        20        56     9        0.000000        0.045944         1    ;  uncertainty k = 0.040455
        18        19        20        56     9      180.000000        7.527539         2    ;  uncertainty k = 0.325490
        18        19        20        56     9        0.000000        1.433627         3    ;  uncertainty k = 0.327115
        18        19        20        56     9      180.000000        1.790207         4    ;  uncertainty k = 0.158460
        19        18        17        53     9        0.000000        0.053110         1    ;  uncertainty k = 0.076538
        19        18        17        53     9      180.000000        7.946075         2    ;  uncertainty k = 0.338884
        19        18        17        53     9        0.000000        1.427770         3    ;  uncertainty k = 0.326160
        19        18        17        53     9      180.000000        1.836126         4    ;  uncertainty k = 0.159402
        19        20        21        57     9        0.000000        0.053110         1    ;  uncertainty k = 0.076538
        19        20        21        57     9      180.000000        7.946075         2    ;  uncertainty k = 0.338884
        19        20        21        57     9        0.000000        1.427770         3    ;  uncertainty k = 0.326160
        19        20        21        57     9      180.000000        1.836126         4    ;  uncertainty k = 0.159402
        20        19        18        54     9        0.000000        0.045944         1    ;  uncertainty k = 0.040455
        20        19        18        54     9      180.000000        7.527539         2    ;  uncertainty k = 0.325490
        20        19        18        54     9        0.000000        1.433627         3    ;  uncertainty k = 0.327115
        20        19        18        54     9      180.000000        1.790207         4    ;  uncertainty k = 0.158460
        21        16        15        22     9        0.000000       -0.587440         1    ;  uncertainty k = 0.650241
        21        16        15        22     9      180.000000        2.752986         2    ;  uncertainty k = 0.235149
        21        16        15        22     9        0.000000        0.633136         3    ;  uncertainty k = 0.233844
        21        16        15        22     9      180.000000        0.456102         4    ;  uncertainty k = 0.027417
        21        16        15        52     9        0.000000       -0.605120         1    ;  uncertainty k = 0.219677
        21        16        15        52     9      180.000000        2.297380         2    ;  uncertainty k = 0.337137
        21        16        15        52     9        0.000000        0.473321         3    ;  uncertainty k = 0.111321
        21        16        15        52     9      180.000000        0.234329         4    ;  uncertainty k = 0.048057
        21        16        17        53     9        0.000000        0.103785         1    ;  uncertainty k = 0.115164
        21        16        17        53     9      180.000000        7.232566         2    ;  uncertainty k = 0.479326
        21        16        17        53     9        0.000000        1.441609         3    ;  uncertainty k = 0.358039
        21        16        17        53     9      180.000000        1.626932         4    ;  uncertainty k = 0.180627
        21        20        19        55     9        0.000000        0.055743         1    ;  uncertainty k = 0.094833
        21        20        19        55     9      180.000000        7.490470         2    ;  uncertainty k = 0.333391
        21        20        19        55     9        0.000000        1.467121         3    ;  uncertainty k = 0.292765
        21        20        19        55     9      180.000000        1.797081         4    ;  uncertainty k = 0.179698
        22        15        14        31     9        0.000000       -0.106016         1    ;  uncertainty k = 2.141023
        22        15        14        31     9      180.000000       -1.222533         2    ;  uncertainty k = 0.412973
        22        15        14        31     9        0.000000        0.530218         3    ;  uncertainty k = 0.457420
        22        15        14        31     9      180.000000       -0.153222         4    ;  uncertainty k = 0.383381
        22        15        14        51     9        0.000000       -0.987504         1    ;  uncertainty k = 0.658849
        22        15        14        51     9      180.000000        0.141272         2    ;  uncertainty k = 0.387448
        22        15        14        51     9        0.000000        0.636103         3    ;  uncertainty k = 0.252693
        22        15        14        51     9      180.000000        0.058629         4    ;  uncertainty k = 0.106340
        22        23        24        25     9        0.000000       -0.061352         1    ;  uncertainty k = 0.584373
        22        23        24        25     9      180.000000       11.109707         2    ;  uncertainty k = 0.360450
        22        23        24        25     9        0.000000        0.834232         3    ;  uncertainty k = 0.132934
        22        23        24        25     9      180.000000        1.175836         4    ;  uncertainty k = 0.314090
        22        23        24        26     9        0.000000        0.085940         1    ;  uncertainty k = 0.525052
        22        23        24        26     9      180.000000        6.975069         2    ;  uncertainty k = 0.309603
        22        23        24        26     9        0.000000        1.148104         3    ;  uncertainty k = 0.292968
        22        23        24        26     9      180.000000        1.671938         4    ;  uncertainty k = 0.198887
        22        23        30        29     9        0.000000        0.466159         1    ;  uncertainty k = 0.358589
        22        23        30        29     9      180.000000        7.504093         2    ;  uncertainty k = 0.316774
        22        23        30        29     9        0.000000        0.993075         3    ;  uncertainty k = 0.133552
        22        23        30        29     9      180.000000        1.468521         4    ;  uncertainty k = 0.354322
        22        23        30        31     9        0.000000        0.061195         1    ;  uncertainty k = 0.713236
        22        23        30        31     9      180.000000        7.811100         2    ;  uncertainty k = 0.981864
        22        23        30        31     9        0.000000        0.637687         3    ;  uncertainty k = 0.611599
        22        23        30        31     9      180.000000        1.193518         4    ;  uncertainty k = 0.501732
        23        22        15        52     9        0.000000       -0.908069         1    ;  uncertainty k = 0.551345
        23        22        15        52     9      180.000000       -0.513393         2    ;  uncertainty k = 0.378077
        23        22        15        52     9        0.000000        0.699103         3    ;  uncertainty k = 0.184244
        23        22        15        52     9      180.000000        0.231201         4    ;  uncertainty k = 0.071403
        23        24        26        27     9        0.000000        0.023366         1    ;  uncertainty k = 0.094378
        23        24        26        27     9      180.000000        9.383073         2    ;  uncertainty k = 0.528874
        23        24        26        27     9        0.000000        0.388020         3    ;  uncertainty k = 0.413253
        23        24        26        27     9      180.000000        1.302754         4    ;  uncertainty k = 0.295943
        23        24        26        59     9        0.000000        0.401275         1    ;  uncertainty k = 0.278020
        23        24        26        59     9      180.000000        6.171698         2    ;  uncertainty k = 0.739578
        23        24        26        59     9        0.000000        1.350209         3    ;  uncertainty k = 0.436543
        23        24        26        59     9      180.000000        1.502582         4    ;  uncertainty k = 0.244469
        23        30        29        27     9        0.000000       -0.152208         1    ;  uncertainty k = 0.232118
        23        30        29        27     9      180.000000       12.708094         2    ;  uncertainty k = 0.385594
        23        30        29        27     9        0.000000       -0.388732         3    ;  uncertainty k = 0.445379
        23        30        29        27     9      180.000000        1.061469         4    ;  uncertainty k = 0.371241
        23        30        29        60     9        0.000000        0.395598         1    ;  uncertainty k = 0.424358
        23        30        29        60     9      180.000000        8.060806         2    ;  uncertainty k = 0.713820
        23        30        29        60     9        0.000000        1.426329         3    ;  uncertainty k = 0.289720
        23        30        29        60     9      180.000000        1.649939         4    ;  uncertainty k = 0.124062
        23        30        31        32     9        0.000000       -2.364598         1    ;  uncertainty k = 2.670155
        23        30        31        32     9      180.000000        0.568810         2    ;  uncertainty k = 1.120765
        23        30        31        32     9        0.000000        1.463233         3    ;  uncertainty k = 0.438404
        23        30        31        32     9      180.000000       -0.037826         4    ;  uncertainty k = 0.173602
        23        30        31        61     9        0.000000       -0.394077         1    ;  uncertainty k = 0.867616
        23        30        31        61     9      180.000000        2.173418         2    ;  uncertainty k = 0.218814
        23        30        31        61     9        0.000000        0.441462         3    ;  uncertainty k = 0.297770
        23        30        31        61     9      180.000000       -0.201049         4    ;  uncertainty k = 0.163318
        24        23        22        58     9        0.000000        4.791940         1    ;  uncertainty k = 1.014873
        24        23        22        58     9      180.000000        3.694192         2    ;  uncertainty k = 0.753853
        24        23        22        58     9        0.000000        0.742536         3    ;  uncertainty k = 0.313526
        24        23        22        58     9      180.000000        0.077129         4    ;  uncertainty k = 0.219819
        24        23        30        29     9        0.000000        0.244485         1    ;  uncertainty k = 0.342368
        24        23        30        29     9      180.000000        5.667483         2    ;  uncertainty k = 0.527622
        24        23        30        29     9        0.000000        0.463212         3    ;  uncertainty k = 0.362039
        24        23        30        29     9      180.000000        1.417452         4    ;  uncertainty k = 0.298361
        24        23        30        31     9        0.000000        0.615658         1    ;  uncertainty k = 0.585377
        24        23        30        31     9      180.000000        5.627604         2    ;  uncertainty k = 0.496718
        24        23        30        31     9        0.000000        1.235689         3    ;  uncertainty k = 0.375671
        24        23        30        31     9      180.000000        1.487370         4    ;  uncertainty k = 0.243496
        24        26        27        28     9        0.000000        0.137856         1    ;  uncertainty k = 0.423272
        24        26        27        28     9      180.000000        9.128243         2    ;  uncertainty k = 0.673439
        24        26        27        28     9        0.000000        1.383103         3    ;  uncertainty k = 0.564418
        24        26        27        28     9      180.000000        1.659609         4    ;  uncertainty k = 0.158040
        24        26        27        29     9        0.000000        0.017833         1    ;  uncertainty k = 0.213875
        24        26        27        29     9      180.000000        9.648489         2    ;  uncertainty k = 0.446771
        24        26        27        29     9        0.000000       -0.277576         3    ;  uncertainty k = 0.465672
        24        26        27        29     9      180.000000        1.219203         4    ;  uncertainty k = 0.283674
        25        24        23        30     9        0.000000        0.340946         1    ;  uncertainty k = 0.469009
        25        24        23        30     9      180.000000        8.353718         2    ;  uncertainty k = 0.594382
        25        24        23        30     9        0.000000        1.572239         3    ;  uncertainty k = 0.230748
        25        24        23        30     9      180.000000        1.562158         4    ;  uncertainty k = 0.257513
        25        24        26        27     9        0.000000        0.087316         1    ;  uncertainty k = 0.256464
        25        24        26        27     9      180.000000       14.337684         2    ;  uncertainty k = 0.536914
        25        24        26        27     9        0.000000        1.514917         3    ;  uncertainty k = 0.238833
        25        24        26        27     9      180.000000        1.452952         4    ;  uncertainty k = 0.347800
        25        24        26        59     9        0.000000       -0.190080         1    ;  uncertainty k = 0.246767
        25        24        26        59     9      180.000000        9.768210         2    ;  uncertainty k = 0.427611
        25        24        26        59     9        0.000000        0.881513         3    ;  uncertainty k = 0.258525
        25        24        26        59     9      180.000000        1.102225         4    ;  uncertainty k = 0.293820
        26        24        23        30     9        0.000000       -0.110016         1    ;  uncertainty k = 0.658300
        26        24        23        30     9      180.000000        4.284268         2    ;  uncertainty k = 1.612994
        26        24        23        30     9        0.000000        0.437372         3    ;  uncertainty k = 0.523967
        26        24        23        30     9      180.000000        1.324831         4    ;  uncertainty k = 0.338740
        26        27        29        30     9        0.000000        0.072539         1    ;  uncertainty k = 0.189742
        26        27        29        30     9      180.000000        9.456909         2    ;  uncertainty k = 0.354029
        26        27        29        30     9        0.000000       -0.094760         3    ;  uncertainty k = 0.720728
        26        27        29        30     9      180.000000        1.322484         4    ;  uncertainty k = 0.382358
        26        27        29        60     9        0.000000       -0.019276         1    ;  uncertainty k = 0.173040
        26        27        29        60     9      180.000000        6.459723         2    ;  uncertainty k = 0.515800
        26        27        29        60     9        0.000000        1.422385         3    ;  uncertainty k = 0.396410
        26        27        29        60     9      180.000000        1.617620         4    ;  uncertainty k = 0.156864
        27        29        30        31     9        0.000000        0.200006         1    ;  uncertainty k = 0.392623
        27        29        30        31     9      180.000000       10.254828         2    ;  uncertainty k = 0.477378
        27        29        30        31     9        0.000000        1.373706         3    ;  uncertainty k = 0.244072
        27        29        30        31     9      180.000000        1.829620         4    ;  uncertainty k = 0.435094
        28        27        26        59     9        0.000000       -0.068654         1    ;  uncertainty k = 0.162595
        28        27        26        59     9      180.000000        7.037011         2    ;  uncertainty k = 0.311304
        28        27        26        59     9        0.000000        0.618258         3    ;  uncertainty k = 0.395666
        28        27        26        59     9      180.000000        0.954045         4    ;  uncertainty k = 0.204747
        28        27        29        30     9        0.000000        0.018692         1    ;  uncertainty k = 0.158795
        28        27        29        30     9      180.000000        9.639501         2    ;  uncertainty k = 0.571989
        28        27        29        30     9        0.000000        1.396189         3    ;  uncertainty k = 0.493883
        28        27        29        30     9      180.000000        1.613842         4    ;  uncertainty k = 0.087421
        28        27        29        60     9        0.000000       -0.136104         1    ;  uncertainty k = 0.463855
        28        27        29        60     9      180.000000        7.497467         2    ;  uncertainty k = 0.437737
        28        27        29        60     9        0.000000        0.714129         3    ;  uncertainty k = 0.334584
        28        27        29        60     9      180.000000        1.011133         4    ;  uncertainty k = 0.286169
        29        27        26        59     9        0.000000        0.107311         1    ;  uncertainty k = 0.153561
        29        27        26        59     9      180.000000        5.845067         2    ;  uncertainty k = 0.555581
        29        27        26        59     9        0.000000        1.369666         3    ;  uncertainty k = 0.297654
        29        27        26        59     9      180.000000        1.498166         4    ;  uncertainty k = 0.132372
        29        30        31        32     9        0.000000        0.220385         1    ;  uncertainty k = 0.444177
        29        30        31        32     9      180.000000        1.631158         2    ;  uncertainty k = 0.568352
        29        30        31        32     9        0.000000       -0.272550         3    ;  uncertainty k = 0.403560
        29        30        31        32     9      180.000000        0.140891         4    ;  uncertainty k = 0.116201
        29        30        31        61     9        0.000000        0.410393         1    ;  uncertainty k = 0.780334
        29        30        31        61     9      180.000000        1.927697         2    ;  uncertainty k = 0.357123
        29        30        31        61     9        0.000000        0.083518         3    ;  uncertainty k = 0.124088
        29        30        31        61     9      180.000000       -0.000244         4    ;  uncertainty k = 0.195371
        30        23        22        58     9        0.000000       10.002621         1    ;  uncertainty k = 0.551914
        30        23        22        58     9      180.000000        4.889364         2    ;  uncertainty k = 0.522882
        30        23        22        58     9        0.000000        0.343785         3    ;  uncertainty k = 0.276796
        30        23        22        58     9      180.000000        0.197320         4    ;  uncertainty k = 0.187632
        30        31        14        51     9        0.000000       -0.393503         1    ;  uncertainty k = 1.056067
        30        31        14        51     9      180.000000        0.641491         2    ;  uncertainty k = 0.472678
        30        31        14        51     9        0.000000        0.010888         3    ;  uncertainty k = 0.112883
        30        31        14        51     9      180.000000       -0.044876         4    ;  uncertainty k = 0.097829
        31        14        13        49     9        0.000000       -0.383141         1    ;  uncertainty k = 0.402275
        31        14        13        49     9      180.000000       -0.688267         2    ;  uncertainty k = 0.119583
        31        14        13        49     9        0.000000        0.280095         3    ;  uncertainty k = 0.115141
        31        14        13        49     9      180.000000       -0.011231         4    ;  uncertainty k = 0.054762
        31        14        13        50     9        0.000000       -0.383141         1    ;  uncertainty k = 0.402275
        31        14        13        50     9      180.000000       -0.688267         2    ;  uncertainty k = 0.119583
        31        14        13        50     9        0.000000        0.280095         3    ;  uncertainty k = 0.115141
        31        14        13        50     9      180.000000       -0.011231         4    ;  uncertainty k = 0.054762
        31        14        15        52     9        0.000000        0.640020         1    ;  uncertainty k = 0.715190
        31        14        15        52     9      180.000000       -1.362726         2    ;  uncertainty k = 0.737477
        31        14        15        52     9        0.000000       -0.399857         3    ;  uncertainty k = 0.139014
        31        14        15        52     9      180.000000        0.019632         4    ;  uncertainty k = 0.141047
        31        30        29        60     9        0.000000       -0.256680         1    ;  uncertainty k = 0.589461
        31        30        29        60     9      180.000000        8.168660         2    ;  uncertainty k = 0.813891
        31        30        29        60     9        0.000000        0.769300         3    ;  uncertainty k = 0.291618
        31        30        29        60     9      180.000000        1.111044         4    ;  uncertainty k = 0.418505
        31        32        11        46     9        0.000000       -1.988315         1    ;  uncertainty k = 1.212423
        31        32        11        46     9      180.000000       -0.740367         2    ;  uncertainty k = 0.379201
        31        32        11        46     9        0.000000        0.158009         3    ;  uncertainty k = 0.097333
        31        32        11        46     9      180.000000       -0.055801         4    ;  uncertainty k = 0.130334
        32        11        10        44     9        0.000000        0.116479         1    ;  uncertainty k = 0.368166
        32        11        10        44     9      180.000000       -1.121633         2    ;  uncertainty k = 0.146023
        32        11        10        44     9        0.000000        0.326476         3    ;  uncertainty k = 0.177114
        32        11        10        44     9      180.000000       -0.035057         4    ;  uncertainty k = 0.116074
        32        11        10        45     9        0.000000        0.116479         1    ;  uncertainty k = 0.368166
        32        11        10        45     9      180.000000       -1.121633         2    ;  uncertainty k = 0.146023
        32        11        10        45     9        0.000000        0.326476         3    ;  uncertainty k = 0.177114
        32        11        10        45     9      180.000000       -0.035057         4    ;  uncertainty k = 0.116074
        32        11        12        47     9        0.000000       -1.243217         1    ;  uncertainty k = 0.312912
        32        11        12        47     9      180.000000       -1.022824         2    ;  uncertainty k = 0.112045
        32        11        12        47     9        0.000000        0.864579         3    ;  uncertainty k = 0.147664
        32        11        12        47     9      180.000000       -0.133647         4    ;  uncertainty k = 0.089617
        32        11        12        48     9        0.000000       -1.243217         1    ;  uncertainty k = 0.312912
        32        11        12        48     9      180.000000       -1.022824         2    ;  uncertainty k = 0.112045
        32        11        12        48     9        0.000000        0.864579         3    ;  uncertainty k = 0.147664
        32        11        12        48     9      180.000000       -0.133647         4    ;  uncertainty k = 0.089617
        32        31        14        51     9        0.000000       -0.648432         1    ;  uncertainty k = 0.297678
        32        31        14        51     9      180.000000        0.603559         2    ;  uncertainty k = 0.496107
        32        31        14        51     9        0.000000        0.101323         3    ;  uncertainty k = 0.306108
        32        31        14        51     9      180.000000       -0.143787         4    ;  uncertainty k = 0.131466
        39         4         5        41     9        0.000000        0.225183         1    ;  uncertainty k = 0.108005
        39         4         5        41     9      180.000000       -0.677187         2    ;  uncertainty k = 0.474975
        39         4         5        41     9        0.000000        0.293522         3    ;  uncertainty k = 0.054529
        39         4         5        41     9      180.000000        0.081636         4    ;  uncertainty k = 0.072942
        39         4         5        42     9        0.000000        0.225183         1    ;  uncertainty k = 0.108005
        39         4         5        42     9      180.000000       -0.677187         2    ;  uncertainty k = 0.474975
        39         4         5        42     9        0.000000        0.293522         3    ;  uncertainty k = 0.054529
        39         4         5        42     9      180.000000        0.081636         4    ;  uncertainty k = 0.072942
        40         4         5        41     9        0.000000        0.225183         1    ;  uncertainty k = 0.108005
        40         4         5        41     9      180.000000       -0.677187         2    ;  uncertainty k = 0.474975
        40         4         5        41     9        0.000000        0.293522         3    ;  uncertainty k = 0.054529
        40         4         5        41     9      180.000000        0.081636         4    ;  uncertainty k = 0.072942
        40         4         5        42     9        0.000000        0.225183         1    ;  uncertainty k = 0.108005
        40         4         5        42     9      180.000000       -0.677187         2    ;  uncertainty k = 0.474975
        40         4         5        42     9        0.000000        0.293522         3    ;  uncertainty k = 0.054529
        40         4         5        42     9      180.000000        0.081636         4    ;  uncertainty k = 0.072942
        43         9        10        44     9        0.000000        4.113496         1    ;  uncertainty k = 0.866382
        43         9        10        44     9      180.000000       -3.537292         2    ;  uncertainty k = 0.489265
        43         9        10        44     9        0.000000        0.450682         3    ;  uncertainty k = 0.130677
        43         9        10        44     9      180.000000        0.330307         4    ;  uncertainty k = 0.102192
        43         9        10        45     9        0.000000        4.113496         1    ;  uncertainty k = 0.866382
        43         9        10        45     9      180.000000       -3.537292         2    ;  uncertainty k = 0.489265
        43         9        10        45     9        0.000000        0.450682         3    ;  uncertainty k = 0.130677
        43         9        10        45     9      180.000000        0.330307         4    ;  uncertainty k = 0.102192
        44        10        11        46     9        0.000000       -0.022474         1    ;  uncertainty k = 0.189096
        44        10        11        46     9      180.000000       -0.131809         2    ;  uncertainty k = 0.266401
        44        10        11        46     9        0.000000        0.120435         3    ;  uncertainty k = 0.070976
        44        10        11        46     9      180.000000       -0.067074         4    ;  uncertainty k = 0.075648
        45        10        11        46     9        0.000000       -0.022474         1    ;  uncertainty k = 0.189096
        45        10        11        46     9      180.000000       -0.131809         2    ;  uncertainty k = 0.266401
        45        10        11        46     9        0.000000        0.120435         3    ;  uncertainty k = 0.070976
        45        10        11        46     9      180.000000       -0.067074         4    ;  uncertainty k = 0.075648
        46        11        12        47     9        0.000000        0.252229         1    ;  uncertainty k = 0.257791
        46        11        12        47     9      180.000000        0.153615         2    ;  uncertainty k = 0.400370
        46        11        12        47     9        0.000000       -0.051224         3    ;  uncertainty k = 0.073992
        46        11        12        47     9      180.000000       -0.195419         4    ;  uncertainty k = 0.099923
        46        11        12        48     9        0.000000        0.252229         1    ;  uncertainty k = 0.257791
        46        11        12        48     9      180.000000        0.153615         2    ;  uncertainty k = 0.400370
        46        11        12        48     9        0.000000       -0.051224         3    ;  uncertainty k = 0.073992
        46        11        12        48     9      180.000000       -0.195419         4    ;  uncertainty k = 0.099923
        47        12        13        49     9        0.000000        1.671828         1    ;  uncertainty k = 0.440124
        47        12        13        49     9      180.000000        0.117604         2    ;  uncertainty k = 0.247076
        47        12        13        49     9        0.000000        0.343942         3    ;  uncertainty k = 0.102935
        47        12        13        49     9      180.000000        0.074379         4    ;  uncertainty k = 0.025154
        47        12        13        50     9        0.000000        1.671828         1    ;  uncertainty k = 0.440124
        47        12        13        50     9      180.000000        0.117604         2    ;  uncertainty k = 0.247076
        47        12        13        50     9        0.000000        0.343942         3    ;  uncertainty k = 0.102935
        47        12        13        50     9      180.000000        0.074379         4    ;  uncertainty k = 0.025154
        48        12        13        49     9        0.000000        1.671828         1    ;  uncertainty k = 0.440124
        48        12        13        49     9      180.000000        0.117604         2    ;  uncertainty k = 0.247076
        48        12        13        49     9        0.000000        0.343942         3    ;  uncertainty k = 0.102935
        48        12        13        49     9      180.000000        0.074379         4    ;  uncertainty k = 0.025154
        48        12        13        50     9        0.000000        1.671828         1    ;  uncertainty k = 0.440124
        48        12        13        50     9      180.000000        0.117604         2    ;  uncertainty k = 0.247076
        48        12        13        50     9        0.000000        0.343942         3    ;  uncertainty k = 0.102935
        48        12        13        50     9      180.000000        0.074379         4    ;  uncertainty k = 0.025154
        49        13        14        51     9        0.000000        1.545254         1    ;  uncertainty k = 0.344376
        49        13        14        51     9      180.000000       -0.020690         2    ;  uncertainty k = 0.342602
        49        13        14        51     9        0.000000       -0.070632         3    ;  uncertainty k = 0.119714
        49        13        14        51     9      180.000000        0.013810         4    ;  uncertainty k = 0.071778
        50        13        14        51     9        0.000000        1.545254         1    ;  uncertainty k = 0.344376
        50        13        14        51     9      180.000000       -0.020690         2    ;  uncertainty k = 0.342602
        50        13        14        51     9        0.000000       -0.070632         3    ;  uncertainty k = 0.119714
        50        13        14        51     9      180.000000        0.013810         4    ;  uncertainty k = 0.071778
        51        14        15        52     9        0.000000        1.060795         1    ;  uncertainty k = 0.473342
        51        14        15        52     9      180.000000       -0.041496         2    ;  uncertainty k = 0.253895
        51        14        15        52     9        0.000000       -0.344094         3    ;  uncertainty k = 0.165557
        51        14        15        52     9      180.000000       -0.269487         4    ;  uncertainty k = 0.106351
        51        14        31        61     9        0.000000        2.054593         1    ;  uncertainty k = 0.475699
        51        14        31        61     9      180.000000        0.848892         2    ;  uncertainty k = 0.461645
        51        14        31        61     9        0.000000       -0.480017         3    ;  uncertainty k = 0.226856
        51        14        31        61     9      180.000000       -0.167237         4    ;  uncertainty k = 0.068693
        52        15        22        58     9        0.000000        0.363982         1    ;  uncertainty k = 0.625038
        52        15        22        58     9      180.000000       -0.862575         2    ;  uncertainty k = 0.318184
        52        15        22        58     9        0.000000        0.523809         3    ;  uncertainty k = 0.251385
        52        15        22        58     9      180.000000        0.051527         4    ;  uncertainty k = 0.122685
        53        17        18        54     9        0.000000       -0.038401         1    ;  uncertainty k = 0.034127
        53        17        18        54     9      180.000000        7.644154         2    ;  uncertainty k = 0.255448
        53        17        18        54     9        0.000000       -0.470075         3    ;  uncertainty k = 0.270053
        53        17        18        54     9      180.000000        0.106023         4    ;  uncertainty k = 0.117776
        54        18        19        55     9        0.000000       -0.016279         1    ;  uncertainty k = 0.090335
        54        18        19        55     9      180.000000        7.510681         2    ;  uncertainty k = 0.369437
        54        18        19        55     9        0.000000       -0.422665         3    ;  uncertainty k = 0.276612
        54        18        19        55     9      180.000000        0.041075         4    ;  uncertainty k = 0.155578
        55        19        20        56     9        0.000000       -0.016279         1    ;  uncertainty k = 0.090335
        55        19        20        56     9      180.000000        7.510681         2    ;  uncertainty k = 0.369437
        55        19        20        56     9        0.000000       -0.422665         3    ;  uncertainty k = 0.276612
        55        19        20        56     9      180.000000        0.041075         4    ;  uncertainty k = 0.155578
        56        20        21        57     9        0.000000       -0.038401         1    ;  uncertainty k = 0.034127
        56        20        21        57     9      180.000000        7.644155         2    ;  uncertainty k = 0.255448
        56        20        21        57     9        0.000000       -0.470075         3    ;  uncertainty k = 0.270053
        56        20        21        57     9      180.000000        0.106023         4    ;  uncertainty k = 0.117776

[ dihedrals ] ; impropers
;       ai        aj        ak        al funct           phase               k        pn
        16        15        17        21     4      180.000000       12.872177         2    ;  uncertainty k = 0.122291
        16        17        21        15     4      180.000000       12.872177         2    ;  uncertainty k = 0.122291
        16        21        15        17     4      180.000000       12.872177         2    ;  uncertainty k = 0.122291
        17        16        18        53     4      180.000000        4.073199         2    ;  uncertainty k = 0.089533
        17        18        53        16     4      180.000000        4.073199         2    ;  uncertainty k = 0.089533
        17        53        16        18     4      180.000000        4.073199         2    ;  uncertainty k = 0.089533
        18        17        19        54     4      180.000000        4.075594         2    ;  uncertainty k = 0.076311
        18        19        54        17     4      180.000000        4.075594         2    ;  uncertainty k = 0.076311
        18        54        17        19     4      180.000000        4.075594         2    ;  uncertainty k = 0.076311
        19        18        20        55     4      180.000000        4.286747         2    ;  uncertainty k = 0.163794
        19        20        55        18     4      180.000000        4.286747         2    ;  uncertainty k = 0.163794
        19        55        18        20     4      180.000000        4.286747         2    ;  uncertainty k = 0.163794
        20        19        21        56     4      180.000000        4.075594         2    ;  uncertainty k = 0.076311
        20        21        56        19     4      180.000000        4.075594         2    ;  uncertainty k = 0.076311
        20        56        19        21     4      180.000000        4.075594         2    ;  uncertainty k = 0.076311
        21        16        20        57     4      180.000000        4.073199         2    ;  uncertainty k = 0.089533
        21        20        57        16     4      180.000000        4.073199         2    ;  uncertainty k = 0.089533
        21        57        16        20     4      180.000000        4.073199         2    ;  uncertainty k = 0.089533
        23        22        24        30     4      180.000000       17.952400         2    ;  uncertainty k = 0.124101
        23        24        30        22     4      180.000000       17.952400         2    ;  uncertainty k = 0.124101
        23        30        22        24     4      180.000000       17.952400         2    ;  uncertainty k = 0.124101
        24        23        25        26     4      180.000000       10.328731         2    ;  uncertainty k = 0.196745
        24        25        26        23     4      180.000000       10.328731         2    ;  uncertainty k = 0.196745
        24        26        23        25     4      180.000000       10.328731         2    ;  uncertainty k = 0.196745
        26        24        27        59     4      180.000000        1.958612         2    ;  uncertainty k = 0.141592
        26        27        59        24     4      180.000000        1.958612         2    ;  uncertainty k = 0.141592
        26        59        24        27     4      180.000000        1.958612         2    ;  uncertainty k = 0.141592
        27        26        28        29     4      180.000000       12.122902         2    ;  uncertainty k = 0.097134
        27        28        29        26     4      180.000000       12.122902         2    ;  uncertainty k = 0.097134
        27        29        26        28     4      180.000000       12.122902         2    ;  uncertainty k = 0.097134
        29        27        30        60     4      180.000000        3.249554         2    ;  uncertainty k = 0.202882
        29        30        60        27     4      180.000000        3.249554         2    ;  uncertainty k = 0.202882
        29        60        27        30     4      180.000000        3.249554         2    ;  uncertainty k = 0.202882
        30        23        29        31     4      180.000000       10.996483         2    ;  uncertainty k = 0.232187
        30        29        31        23     4      180.000000       10.996483         2    ;  uncertainty k = 0.232187
        30        31        23        29     4      180.000000       10.996483         2    ;  uncertainty k = 0.232187

[ pairs ]
;       ai        aj funct
         1         5     1
         1        36     1
         1        37     1
         1        38     1
         1        39     1
         1        40     1
         2         6     1
         2        41     1
         2        42     1
         3         5     1
         3        33     1
         3        34     1
         3        35     1
         3        39     1
         3        40     1
         4         7     1
         4         8     1
         4         9     1
         4        33     1
         4        34     1
         4        35     1
         4        36     1
         4        37     1
         4        38     1
         5        10     1
         5        43     1
         6        11     1
         6        39     1
         6        40     1
         6        44     1
         6        45     1
         7        10     1
         7        41     1
         7        42     1
         7        43     1
         8        10     1
         8        41     1
         8        42     1
         8        43     1
         9        12     1
         9        32     1
         9        41     1
         9        42     1
         9        46     1
        10        13     1
        10        31     1
        10        47     1
        10        48     1
        11        14     1
        11        30     1
        11        43     1
        11        49     1
        11        50     1
        11        61     1
        12        15     1
        12        31     1
        12        44     1
        12        45     1
        12        51     1
        13        16     1
        13        22     1
        13        30     1
        13        32     1
        13        46     1
        13        52     1
        13        61     1
        14        17     1
        14        21     1
        14        23     1
        14        29     1
        14        47     1
        14        48     1
        14        58     1
        15        18     1
        15        20     1
        15        24     1
        15        30     1
        15        32     1
        15        49     1
        15        50     1
        15        53     1
        15        57     1
        15        61     1
        16        19     1
        16        23     1
        16        31     1
        16        51     1
        16        54     1
        16        56     1
        16        58     1
        17        20     1
        17        22     1
        17        52     1
        17        55     1
        17        57     1
        18        21     1
        18        56     1
        19        53     1
        19        57     1
        20        54     1
        21        22     1
        21        52     1
        21        53     1
        21        55     1
        22        25     1
        22        26     1
        22        29     1
        22        31     1
        22        51     1
        23        27     1
        23        32     1
        23        52     1
        23        59     1
        23        60     1
        23        61     1
        24        28     1
        24        29     1
        24        31     1
        24        58     1
        25        27     1
        25        30     1
        25        59     1
        26        30     1
        26        60     1
        27        31     1
        28        30     1
        28        59     1
        28        60     1
        29        32     1
        29        59     1
        29        61     1
        30        51     1
        30        58     1
        31        46     1
        31        49     1
        31        50     1
        31        52     1
        31        60     1
        32        44     1
        32        45     1
        32        47     1
        32        48     1
        32        51     1
        39        41     1
        39        42     1
        40        41     1
        40        42     1
        43        44     1
        43        45     1
        44        46     1
        45        46     1
        46        47     1
        46        48     1
        47        49     1
        47        50     1
        48        49     1
        48        50     1
        49        51     1
        50        51     1
        51        52     1
        51        61     1
        52        58     1
        53        54     1
        54        55     1
        55        56     1
        56        57     1
