; ITP file created by ByteFF-joint-25, 2026-02-17 09:14:11.541478

[ atomtypes ]
;name           bonded.type        at.num        mass        charge   ptype           sigma         epsilon
 c0bf                                   6      0.0000       0.00000       A     3.39768e-01     4.50639e-01    ;  uncertainty sigma = 0.000009, epsilon = 0.000620
 n1bf                                   7      0.0000       0.00000       A     3.36486e-01     3.59622e-01    ;  uncertainty sigma = 0.000020, epsilon = 0.000941
 c2bf                                   6      0.0000       0.00000       A     3.39768e-01     4.50639e-01    ;  uncertainty sigma = 0.000009, epsilon = 0.000620
 c3bf                                   6      0.0000       0.00000       A     3.39791e-01     4.50462e-01    ;  uncertainty sigma = 0.000014, epsilon = 0.000988
 c4bf                                   6      0.0000       0.00000       A     3.39755e-01     4.50276e-01    ;  uncertainty sigma = 0.000010, epsilon = 0.000481
 o5bf                                   8      0.0000       0.00000       A     3.15617e-01     3.03693e-01    ;  uncertainty sigma = 0.000043, epsilon = 0.000823
 c6bf                                   6      0.0000       0.00000       A     3.31527e-01     4.13157e-01    ;  uncertainty sigma = 0.000017, epsilon = 0.001175
 o7bf                                   8      0.0000       0.00000       A     3.04828e-01     6.12648e-01    ;  uncertainty sigma = 0.000020, epsilon = 0.000679
 n8bf                                   7      0.0000       0.00000       A     3.26993e-01     4.90170e-01    ;  uncertainty sigma = 0.000013, epsilon = 0.001610
 c9bf                                   6      0.0000       0.00000       A     3.39751e-01     4.50917e-01    ;  uncertainty sigma = 0.000008, epsilon = 0.000509
 c10bf                                  6      0.0000       0.00000       A     3.39760e-01     4.51244e-01    ;  uncertainty sigma = 0.000007, epsilon = 0.001288
 c11bf                                  6      0.0000       0.00000       A     3.39788e-01     4.50768e-01    ;  uncertainty sigma = 0.000008, epsilon = 0.000726
 c12bf                                  6      0.0000       0.00000       A     3.39750e-01     4.51142e-01    ;  uncertainty sigma = 0.000011, epsilon = 0.000651
 c13bf                                  6      0.0000       0.00000       A     3.39755e-01     4.50973e-01    ;  uncertainty sigma = 0.000035, epsilon = 0.000615
 c14bf                                  6      0.0000       0.00000       A     3.39774e-01     4.51693e-01    ;  uncertainty sigma = 0.000009, epsilon = 0.001676
 c15bf                                  6      0.0000       0.00000       A     3.31532e-01     4.13295e-01    ;  uncertainty sigma = 0.000012, epsilon = 0.000849
 c16bf                                  6      0.0000       0.00000       A     3.31519e-01     4.13329e-01    ;  uncertainty sigma = 0.000002, epsilon = 0.000632
 c17bf                                  6      0.0000       0.00000       A     3.31520e-01     4.13328e-01    ;  uncertainty sigma = 0.000003, epsilon = 0.000582
 c18bf                                  6      0.0000       0.00000       A     3.31518e-01     4.13340e-01    ;  uncertainty sigma = 0.000003, epsilon = 0.000580
 c19bf                                  6      0.0000       0.00000       A     3.31520e-01     4.13328e-01    ;  uncertainty sigma = 0.000003, epsilon = 0.000582
 c20bf                                  6      0.0000       0.00000       A     3.31519e-01     4.13329e-01    ;  uncertainty sigma = 0.000002, epsilon = 0.000632
 n21bf                                  7      0.0000       0.00000       A     3.27909e-01     6.44316e-01    ;  uncertainty sigma = 0.000015, epsilon = 0.004120
 c22bf                                  6      0.0000       0.00000       A     3.31548e-01     4.13221e-01    ;  uncertainty sigma = 0.000016, epsilon = 0.001142
 c23bf                                  6      0.0000       0.00000       A     3.31520e-01     4.13421e-01    ;  uncertainty sigma = 0.000010, epsilon = 0.000475
 c24bf                                  6      0.0000       0.00000       A     3.31512e-01     4.13402e-01    ;  uncertainty sigma = 0.000007, epsilon = 0.000559
 c25bf                                  6      0.0000       0.00000       A     3.31517e-01     4.13262e-01    ;  uncertainty sigma = 0.000010, epsilon = 0.000628
 c26bf                                  6      0.0000       0.00000       A     3.39792e-01     4.50242e-01    ;  uncertainty sigma = 0.000013, epsilon = 0.000578
 f27bf                                  9      0.0000       0.00000       A     3.03451e-01     3.47806e-01    ;  uncertainty sigma = 0.000008, epsilon = 0.001323
 f28bf                                  9      0.0000       0.00000       A     3.03451e-01     3.47806e-01    ;  uncertainty sigma = 0.000008, epsilon = 0.001323
 f29bf                                  9      0.0000       0.00000       A     3.03451e-01     3.47806e-01    ;  uncertainty sigma = 0.000008, epsilon = 0.001323
 c30bf                                  6      0.0000       0.00000       A     3.31532e-01     4.13181e-01    ;  uncertainty sigma = 0.000009, epsilon = 0.000749
 c31bf                                  6      0.0000       0.00000       A     3.31540e-01     4.13241e-01    ;  uncertainty sigma = 0.000019, epsilon = 0.000618
 c32bf                                  6      0.0000       0.00000       A     3.39758e-01     4.50739e-01    ;  uncertainty sigma = 0.000017, epsilon = 0.001669
 o33bf                                  8      0.0000       0.00000       A     3.15653e-01     3.03500e-01    ;  uncertainty sigma = 0.000034, epsilon = 0.001279
 h34bf                                  1      0.0000       0.00000       A     2.42215e-01     8.67454e-02    ;  uncertainty sigma = 0.000010, epsilon = 0.000531
 h35bf                                  1      0.0000       0.00000       A     2.42215e-01     8.67454e-02    ;  uncertainty sigma = 0.000010, epsilon = 0.000531
 h36bf                                  1      0.0000       0.00000       A     2.42215e-01     8.67454e-02    ;  uncertainty sigma = 0.000010, epsilon = 0.000531
 h37bf                                  1      0.0000       0.00000       A     2.42215e-01     8.67454e-02    ;  uncertainty sigma = 0.000010, epsilon = 0.000531
 h38bf                                  1      0.0000       0.00000       A     2.42215e-01     8.67454e-02    ;  uncertainty sigma = 0.000010, epsilon = 0.000531
 h39bf                                  1      0.0000       0.00000       A     2.42215e-01     8.67454e-02    ;  uncertainty sigma = 0.000010, epsilon = 0.000531
 h40bf                                  1      0.0000       0.00000       A     2.42199e-01     8.64725e-02    ;  uncertainty sigma = 0.000030, epsilon = 0.000745
 h41bf                                  1      0.0000       0.00000       A     2.42199e-01     8.64725e-02    ;  uncertainty sigma = 0.000030, epsilon = 0.000745
 h42bf                                  1      0.0000       0.00000       A     2.42216e-01     8.68389e-02    ;  uncertainty sigma = 0.000024, epsilon = 0.000870
 h43bf                                  1      0.0000       0.00000       A     2.42216e-01     8.68389e-02    ;  uncertainty sigma = 0.000024, epsilon = 0.000870
 h44bf                                  1      0.0000       0.00000       A     1.10646e-01     4.12147e-02    ;  uncertainty sigma = 0.000077, epsilon = 0.000471
 h45bf                                  1      0.0000       0.00000       A     2.42174e-01     8.66876e-02    ;  uncertainty sigma = 0.000016, epsilon = 0.000517
 h46bf                                  1      0.0000       0.00000       A     2.42174e-01     8.66876e-02    ;  uncertainty sigma = 0.000016, epsilon = 0.000517
 h47bf                                  1      0.0000       0.00000       A     2.42212e-01     8.72057e-02    ;  uncertainty sigma = 0.000050, epsilon = 0.001067
 h48bf                                  1      0.0000       0.00000       A     2.60026e-01     8.66992e-02    ;  uncertainty sigma = 0.000012, epsilon = 0.000652
 h49bf                                  1      0.0000       0.00000       A     2.60026e-01     8.66992e-02    ;  uncertainty sigma = 0.000012, epsilon = 0.000652
 h50bf                                  1      0.0000       0.00000       A     2.60028e-01     8.66832e-02    ;  uncertainty sigma = 0.000010, epsilon = 0.000720
 h51bf                                  1      0.0000       0.00000       A     2.60028e-01     8.66832e-02    ;  uncertainty sigma = 0.000010, epsilon = 0.000720
 h52bf                                  1      0.0000       0.00000       A     2.59938e-01     8.64077e-02    ;  uncertainty sigma = 0.000052, epsilon = 0.000980
 h53bf                                  1      0.0000       0.00000       A     2.42303e-01     8.69597e-02    ;  uncertainty sigma = 0.000074, epsilon = 0.001557
 h54bf                                  1      0.0000       0.00000       A     2.62560e-01     6.70315e-02    ;  uncertainty sigma = 0.000006, epsilon = 0.000529
 h55bf                                  1      0.0000       0.00000       A     2.62559e-01     6.70249e-02    ;  uncertainty sigma = 0.000010, epsilon = 0.000440
 h56bf                                  1      0.0000       0.00000       A     2.62552e-01     6.70647e-02    ;  uncertainty sigma = 0.000011, epsilon = 0.000453
 h57bf                                  1      0.0000       0.00000       A     2.62559e-01     6.70249e-02    ;  uncertainty sigma = 0.000010, epsilon = 0.000440
 h58bf                                  1      0.0000       0.00000       A     2.62560e-01     6.70315e-02    ;  uncertainty sigma = 0.000006, epsilon = 0.000529
 h59bf                                  1      0.0000       0.00000       A     1.10675e-01     4.07500e-02    ;  uncertainty sigma = 0.000109, epsilon = 0.000764
 h60bf                                  1      0.0000       0.00000       A     2.62577e-01     6.70680e-02    ;  uncertainty sigma = 0.000013, epsilon = 0.000535
 h61bf                                  1      0.0000       0.00000       A     2.62556e-01     6.71146e-02    ;  uncertainty sigma = 0.000013, epsilon = 0.000508
 h62bf                                  1      0.0000       0.00000       A     2.62531e-01     6.70779e-02    ;  uncertainty sigma = 0.000022, epsilon = 0.000511
 h63bf                                  1      0.0000       0.00000       A     2.42239e-01     8.76589e-02    ;  uncertainty sigma = 0.000274, epsilon = 0.002166

[ moleculetype ]
;name             nrexcl
 MOL                   3

[ atoms ]
;       nr            type      resi   res      atom      cgnr      charge          mass ; qtot
         1            c0bf         1   UNL        c0         1     0.14856       12.0110 ; qtot    0.149
         2            n1bf         1   UNL        n1         2    -0.72378       14.0070 ; qtot   -0.575
         3            c2bf         1   UNL        c2         3     0.14856       12.0110 ; qtot   -0.427
         4            c3bf         1   UNL        c3         4     0.14915       12.0110 ; qtot   -0.278
         5            c4bf         1   UNL        c4         5     0.14272       12.0110 ; qtot   -0.135
         6            o5bf         1   UNL        o5         6    -0.43675       15.9990 ; qtot   -0.572
         7            c6bf         1   UNL        c6         7     0.74785       12.0110 ; qtot    0.176
         8            o7bf         1   UNL        o7         8    -0.58273       15.9990 ; qtot   -0.406
         9            n8bf         1   UNL        n8         9    -0.55863       14.0070 ; qtot   -0.965
        10            c9bf         1   UNL        c9        10     0.10601       12.0110 ; qtot   -0.859
        11           c10bf         1   UNL       c10        11     0.11937       12.0110 ; qtot   -0.740
        12           c11bf         1   UNL       c11        12    -0.10295       12.0110 ; qtot   -0.843
        13           c12bf         1   UNL       c12        13    -0.06725       12.0110 ; qtot   -0.910
        14           c13bf         1   UNL       c13        14    -0.09461       12.0110 ; qtot   -1.004
        15           c14bf         1   UNL       c14        15     0.25867       12.0110 ; qtot   -0.746
        16           c15bf         1   UNL       c15        16    -0.10560       12.0110 ; qtot   -0.851
        17           c16bf         1   UNL       c16        17    -0.11888       12.0110 ; qtot   -0.970
        18           c17bf         1   UNL       c17        18    -0.13078       12.0110 ; qtot   -1.101
        19           c18bf         1   UNL       c18        19    -0.12452       12.0110 ; qtot   -1.226
        20           c19bf         1   UNL       c19        20    -0.13078       12.0110 ; qtot   -1.356
        21           c20bf         1   UNL       c20        21    -0.11888       12.0110 ; qtot   -1.475
        22           n21bf         1   UNL       n21        22    -0.73725       14.0070 ; qtot   -2.213
        23           c22bf         1   UNL       c22        23     0.18349       12.0110 ; qtot   -2.029
        24           c23bf         1   UNL       c23        24    -0.20421       12.0110 ; qtot   -2.233
        25           c24bf         1   UNL       c24        25    -0.02807       12.0110 ; qtot   -2.261
        26           c25bf         1   UNL       c25        26    -0.22948       12.0110 ; qtot   -2.491
        27           c26bf         1   UNL       c26        27     0.71240       12.0110 ; qtot   -1.778
        28           f27bf         1   UNL       f27        28    -0.22895       18.9980 ; qtot   -2.007
        29           f28bf         1   UNL       f28        29    -0.22895       18.9980 ; qtot   -2.236
        30           f29bf         1   UNL       f29        30    -0.22895       18.9980 ; qtot   -2.465
        31           c30bf         1   UNL       c30        31    -0.01242       12.0110 ; qtot   -2.478
        32           c31bf         1   UNL       c31        32    -0.15471       12.0110 ; qtot   -2.632
        33           c32bf         1   UNL       c32        33     0.20159       12.0110 ; qtot   -2.431
        34           o33bf         1   UNL       o33        34    -0.41792       15.9990 ; qtot   -2.849
        35           h34bf         1   UNL       h34        35     0.03259        1.0080 ; qtot   -2.816
        36           h35bf         1   UNL       h35        36     0.03259        1.0080 ; qtot   -2.784
        37           h36bf         1   UNL       h36        37     0.03259        1.0080 ; qtot   -2.751
        38           h37bf         1   UNL       h37        38     0.03259        1.0080 ; qtot   -2.718
        39           h38bf         1   UNL       h38        39     0.03259        1.0080 ; qtot   -2.686
        40           h39bf         1   UNL       h39        40     0.03259        1.0080 ; qtot   -2.653
        41           h40bf         1   UNL       h40        41     0.04927        1.0080 ; qtot   -2.604
        42           h41bf         1   UNL       h41        42     0.04927        1.0080 ; qtot   -2.555
        43           h42bf         1   UNL       h42        43     0.06345        1.0080 ; qtot   -2.491
        44           h43bf         1   UNL       h43        44     0.06345        1.0080 ; qtot   -2.428
        45           h44bf         1   UNL       h44        45     0.33169        1.0080 ; qtot   -2.096
        46           h45bf         1   UNL       h45        46     0.06697        1.0080 ; qtot   -2.029
        47           h46bf         1   UNL       h46        47     0.06697        1.0080 ; qtot   -1.962
        48           h47bf         1   UNL       h47        48     0.05530        1.0080 ; qtot   -1.907
        49           h48bf         1   UNL       h48        49     0.05461        1.0080 ; qtot   -1.852
        50           h49bf         1   UNL       h49        50     0.05461        1.0080 ; qtot   -1.798
        51           h50bf         1   UNL       h50        51     0.04984        1.0080 ; qtot   -1.748
        52           h51bf         1   UNL       h51        52     0.04984        1.0080 ; qtot   -1.698
        53           h52bf         1   UNL       h52        53     0.06904        1.0080 ; qtot   -1.629
        54           h53bf         1   UNL       h53        54     0.05360        1.0080 ; qtot   -1.575
        55           h54bf         1   UNL       h54        55     0.13512        1.0080 ; qtot   -1.440
        56           h55bf         1   UNL       h55        56     0.13172        1.0080 ; qtot   -1.308
        57           h56bf         1   UNL       h56        57     0.13373        1.0080 ; qtot   -1.175
        58           h57bf         1   UNL       h57        58     0.13172        1.0080 ; qtot   -1.043
        59           h58bf         1   UNL       h58        59     0.13512        1.0080 ; qtot   -0.908
        60           h59bf         1   UNL       h59        60     0.40889        1.0080 ; qtot   -0.499
        61           h60bf         1   UNL       h60        61     0.13718        1.0080 ; qtot   -0.362
        62           h61bf         1   UNL       h61        62     0.15124        1.0080 ; qtot   -0.211
        63           h62bf         1   UNL       h62        63     0.15267        1.0080 ; qtot   -0.058
        64           h63bf         1   UNL       h63        64     0.05784        1.0080 ; qtot   -0.000

[ bonds ]
;       ai        aj funct               r               k
         1         2     1        0.145144   243699.664355    ;  uncertainty r = 0.000014, k = 1.733091
         1        35     1        0.109928   306938.408545    ;  uncertainty r = 0.000022, k = 1.374311
         1        36     1        0.109928   306938.408545    ;  uncertainty r = 0.000022, k = 1.374311
         1        37     1        0.109928   306938.408545    ;  uncertainty r = 0.000022, k = 1.374311
         2         3     1        0.145144   243699.664355    ;  uncertainty r = 0.000014, k = 1.733091
         2         4     1        0.144404   253919.717676    ;  uncertainty r = 0.000118, k = 7.638747
         3        38     1        0.109928   306938.408545    ;  uncertainty r = 0.000022, k = 1.374311
         3        39     1        0.109928   306938.408545    ;  uncertainty r = 0.000022, k = 1.374311
         3        40     1        0.109928   306938.408545    ;  uncertainty r = 0.000022, k = 1.374311
         4         5     1        0.152511   208559.286694    ;  uncertainty r = 0.000053, k = 3.133533
         4        41     1        0.109970   303005.974609    ;  uncertainty r = 0.000029, k = 1.145848
         4        42     1        0.109970   303005.974609    ;  uncertainty r = 0.000029, k = 1.145848
         5         6     1        0.143212   234190.564160    ;  uncertainty r = 0.000100, k = 11.407653
         5        43     1        0.109395   310055.136133    ;  uncertainty r = 0.000054, k = 2.300010
         5        44     1        0.109395   310055.136133    ;  uncertainty r = 0.000054, k = 2.300010
         6         7     1        0.135602   301869.317871    ;  uncertainty r = 0.000129, k = 18.119061
         7         8     1        0.122900   677069.824316    ;  uncertainty r = 0.000078, k = 7.950897
         7         9     1        0.137063   300708.937158    ;  uncertainty r = 0.000086, k = 27.336765
         9        10     1        0.145181   277215.537109    ;  uncertainty r = 0.000066, k = 13.677593
         9        45     1        0.101585   421237.938965    ;  uncertainty r = 0.000079, k = 2.148001
        10        11     1        0.152772   203920.521851    ;  uncertainty r = 0.000067, k = 5.966865
        10        46     1        0.109462   307703.628027    ;  uncertainty r = 0.000044, k = 1.242226
        10        47     1        0.109462   307703.628027    ;  uncertainty r = 0.000044, k = 1.242226
        11        12     1        0.152848   206018.420923    ;  uncertainty r = 0.000050, k = 5.864721
        11        34     1        0.142859   236412.267139    ;  uncertainty r = 0.000164, k = 9.047780
        11        48     1        0.110043   305185.822266    ;  uncertainty r = 0.000060, k = 3.250139
        12        13     1        0.153377   213759.293359    ;  uncertainty r = 0.000058, k = 3.220313
        12        49     1        0.109674   309921.015234    ;  uncertainty r = 0.000019, k = 0.774029
        12        50     1        0.109674   309921.015234    ;  uncertainty r = 0.000019, k = 0.774029
        13        14     1        0.153242   204627.159204    ;  uncertainty r = 0.000107, k = 8.446566
        13        51     1        0.109603   307691.242529    ;  uncertainty r = 0.000022, k = 1.054570
        13        52     1        0.109603   307691.242529    ;  uncertainty r = 0.000022, k = 1.054570
        14        15     1        0.153739   194039.869482    ;  uncertainty r = 0.000049, k = 9.258939
        14        33     1        0.153400   194695.905054    ;  uncertainty r = 0.000160, k = 12.259052
        14        53     1        0.109712   307584.676172    ;  uncertainty r = 0.000061, k = 3.997520
        15        16     1        0.151697   221951.751270    ;  uncertainty r = 0.000088, k = 6.014310
        15        22     1        0.146438   246437.370166    ;  uncertainty r = 0.000120, k = 17.715179
        15        54     1        0.110060   298327.090967    ;  uncertainty r = 0.000134, k = 4.183496
        16        17     1        0.139859   350947.632764    ;  uncertainty r = 0.000040, k = 0.862444
        16        21     1        0.139859   350947.632764    ;  uncertainty r = 0.000040, k = 0.862444
        17        18     1        0.139620   365997.698340    ;  uncertainty r = 0.000023, k = 1.204462
        17        55     1        0.108883   334327.852148    ;  uncertainty r = 0.000023, k = 0.510237
        18        19     1        0.139607   371240.977637    ;  uncertainty r = 0.000016, k = 0.703160
        18        56     1        0.108851   333986.906201    ;  uncertainty r = 0.000010, k = 1.017361
        19        20     1        0.139607   371240.977637    ;  uncertainty r = 0.000016, k = 0.703160
        19        57     1        0.108841   334518.920801    ;  uncertainty r = 0.000012, k = 0.635600
        20        21     1        0.139620   365997.698340    ;  uncertainty r = 0.000023, k = 1.204462
        20        58     1        0.108851   333986.906201    ;  uncertainty r = 0.000010, k = 1.017361
        21        59     1        0.108883   334327.852148    ;  uncertainty r = 0.000023, k = 0.510237
        22        23     1        0.139955   343991.451855    ;  uncertainty r = 0.000126, k = 9.082280
        22        60     1        0.101439   412844.274170    ;  uncertainty r = 0.000047, k = 2.472846
        23        24     1        0.140865   368811.377051    ;  uncertainty r = 0.000044, k = 7.230098
        23        32     1        0.140838   346500.523926    ;  uncertainty r = 0.000177, k = 22.908260
        24        25     1        0.138816   370640.140527    ;  uncertainty r = 0.000068, k = 3.048032
        24        61     1        0.108921   336733.064795    ;  uncertainty r = 0.000029, k = 1.483001
        25        26     1        0.139378   352395.918848    ;  uncertainty r = 0.000125, k = 2.402639
        25        62     1        0.108598   332329.164746    ;  uncertainty r = 0.000022, k = 1.147973
        26        27     1        0.149257   213835.559937    ;  uncertainty r = 0.000082, k = 4.037128
        26        31     1        0.139076   345540.098779    ;  uncertainty r = 0.000116, k = 2.172408
        27        28     1        0.135370   287114.180371    ;  uncertainty r = 0.000024, k = 3.515911
        27        29     1        0.135370   287114.180371    ;  uncertainty r = 0.000024, k = 3.515911
        27        30     1        0.135370   287114.180371    ;  uncertainty r = 0.000024, k = 3.515911
        31        32     1        0.139099   350903.300342    ;  uncertainty r = 0.000165, k = 2.364266
        31        63     1        0.108699   332543.906299    ;  uncertainty r = 0.000028, k = 1.734934
        32        33     1        0.150993   220016.523584    ;  uncertainty r = 0.000073, k = 8.238226
        33        34     1        0.143165   226666.029346    ;  uncertainty r = 0.000172, k = 9.128949
        33        64     1        0.110073   304804.348926    ;  uncertainty r = 0.000100, k = 3.298885

[ angles ]
;       ai        aj        ak funct           theta             cth
         1         2         3     1      107.214684      514.787936    ;  uncertainty theta = 0.000539, k = 0.016107
         1         2         4     1      106.468643      481.660942    ;  uncertainty theta = 0.001422, k = 0.030659
         2         1        35     1      109.991478      455.775283    ;  uncertainty theta = 0.001714, k = 0.007126
         2         1        36     1      109.991478      455.775283    ;  uncertainty theta = 0.001714, k = 0.007126
         2         1        37     1      109.991478      455.775283    ;  uncertainty theta = 0.001714, k = 0.007126
         2         3        38     1      109.991478      455.775283    ;  uncertainty theta = 0.001714, k = 0.007126
         2         3        39     1      109.991478      455.775283    ;  uncertainty theta = 0.001714, k = 0.007126
         2         3        40     1      109.991478      455.775283    ;  uncertainty theta = 0.001714, k = 0.007126
         2         4         5     1      110.041733      558.616606    ;  uncertainty theta = 0.001352, k = 0.112803
         2         4        41     1      108.289818      437.654214    ;  uncertainty theta = 0.002000, k = 0.046125
         2         4        42     1      108.289818      437.654214    ;  uncertainty theta = 0.002000, k = 0.046125
         3         2         4     1      106.468643      481.660942    ;  uncertainty theta = 0.001422, k = 0.030659
         4         5         6     1      107.695374      563.513858    ;  uncertainty theta = 0.003731, k = 0.155464
         4         5        43     1      110.360794      408.381058    ;  uncertainty theta = 0.003046, k = 0.069626
         4         5        44     1      110.360794      408.381058    ;  uncertainty theta = 0.003046, k = 0.069626
         5         4        41     1      107.148682      413.895956    ;  uncertainty theta = 0.001243, k = 0.090496
         5         4        42     1      107.148682      413.895956    ;  uncertainty theta = 0.001243, k = 0.090496
         5         6         7     1      111.112938      518.484688    ;  uncertainty theta = 0.003429, k = 0.163788
         6         5        43     1      105.836266      424.994639    ;  uncertainty theta = 0.003126, k = 0.093212
         6         5        44     1      105.836266      424.994639    ;  uncertainty theta = 0.003126, k = 0.093212
         6         7         8     1      124.258156      621.582052    ;  uncertainty theta = 0.005162, k = 0.194611
         6         7         9     1      112.806740      624.165770    ;  uncertainty theta = 0.003598, k = 0.201780
         7         9        10     1      114.564896      436.647605    ;  uncertainty theta = 0.002906, k = 0.160667
         7         9        45     1      114.714699      363.986230    ;  uncertainty theta = 0.003252, k = 0.133824
         8         7         9     1      126.569984      715.337464    ;  uncertainty theta = 0.004009, k = 0.128913
         9        10        11     1      110.136658      588.381703    ;  uncertainty theta = 0.003325, k = 0.064594
         9        10        46     1      107.373741      452.984748    ;  uncertainty theta = 0.001791, k = 0.051990
         9        10        47     1      107.373741      452.984748    ;  uncertainty theta = 0.001791, k = 0.051990
        10         9        45     1      112.698143      318.479931    ;  uncertainty theta = 0.004365, k = 0.135845
        10        11        12     1      111.564842      554.578359    ;  uncertainty theta = 0.000908, k = 0.125258
        10        11        34     1      106.655563      566.615468    ;  uncertainty theta = 0.002195, k = 0.056060
        10        11        48     1      107.729576      397.212882    ;  uncertainty theta = 0.001755, k = 0.098795
        11        10        46     1      107.998093      393.137063    ;  uncertainty theta = 0.001436, k = 0.042498
        11        10        47     1      107.998093      393.137063    ;  uncertainty theta = 0.001436, k = 0.042498
        11        12        13     1      109.238815      593.742900    ;  uncertainty theta = 0.002347, k = 0.075781
        11        12        49     1      107.711143      382.799897    ;  uncertainty theta = 0.001611, k = 0.075634
        11        12        50     1      107.711143      382.799897    ;  uncertainty theta = 0.001611, k = 0.075634
        11        34        33     1      110.743286      507.064141    ;  uncertainty theta = 0.006597, k = 0.174738
        12        11        34     1      110.352066      683.863040    ;  uncertainty theta = 0.002543, k = 0.156395
        12        11        48     1      109.328934      400.498135    ;  uncertainty theta = 0.001225, k = 0.069818
        12        13        14     1      109.531601      575.016155    ;  uncertainty theta = 0.001887, k = 0.111836
        12        13        51     1      108.687294      404.607695    ;  uncertainty theta = 0.001709, k = 0.090417
        12        13        52     1      108.687294      404.607695    ;  uncertainty theta = 0.001709, k = 0.090417
        13        12        49     1      109.048744      398.454911    ;  uncertainty theta = 0.000871, k = 0.054277
        13        12        50     1      109.048744      398.454911    ;  uncertainty theta = 0.000871, k = 0.054277
        13        14        15     1      110.668663      549.457211    ;  uncertainty theta = 0.001592, k = 0.164943
        13        14        33     1      109.757545      586.243673    ;  uncertainty theta = 0.001743, k = 0.104953
        13        14        53     1      108.033615      400.292593    ;  uncertainty theta = 0.002769, k = 0.102571
        14        13        51     1      108.106857      388.738073    ;  uncertainty theta = 0.001573, k = 0.068099
        14        13        52     1      108.106857      388.738073    ;  uncertainty theta = 0.001573, k = 0.068099
        14        15        16     1      111.667801      538.117458    ;  uncertainty theta = 0.002515, k = 0.172335
        14        15        22     1      108.357506      705.618040    ;  uncertainty theta = 0.004557, k = 0.110169
        14        15        54     1      107.075500      386.196237    ;  uncertainty theta = 0.002778, k = 0.128014
        14        33        32     1      111.625320      556.167725    ;  uncertainty theta = 0.004213, k = 0.223970
        14        33        34     1      110.977501      663.653483    ;  uncertainty theta = 0.005316, k = 0.090230
        14        33        64     1      107.766983      393.384135    ;  uncertainty theta = 0.003517, k = 0.113971
        15        14        33     1      109.545090      552.757117    ;  uncertainty theta = 0.004180, k = 0.136617
        15        14        53     1      105.964149      389.824868    ;  uncertainty theta = 0.001608, k = 0.093762
        15        16        17     1      119.922928      425.651326    ;  uncertainty theta = 0.003113, k = 0.143043
        15        16        21     1      119.922928      425.651326    ;  uncertainty theta = 0.003113, k = 0.143043
        15        22        23     1      114.218887      391.657507    ;  uncertainty theta = 0.007311, k = 0.149022
        15        22        60     1      110.064499      352.462577    ;  uncertainty theta = 0.003551, k = 0.095281
        16        15        22     1      111.031082      663.623157    ;  uncertainty theta = 0.001203, k = 0.168660
        16        15        54     1      106.340919      410.762138    ;  uncertainty theta = 0.002105, k = 0.098132
        16        17        18     1      121.166641      520.322945    ;  uncertainty theta = 0.001889, k = 0.047519
        16        17        55     1      118.895851      266.730000    ;  uncertainty theta = 0.002264, k = 0.064094
        16        21        20     1      121.166641      520.322945    ;  uncertainty theta = 0.001889, k = 0.047519
        16        21        59     1      118.895851      266.730000    ;  uncertainty theta = 0.002264, k = 0.064094
        17        16        21     1      120.206970      460.017476    ;  uncertainty theta = 0.003029, k = 0.098153
        17        18        19     1      119.685776      513.267201    ;  uncertainty theta = 0.000971, k = 0.012607
        17        18        56     1      120.211227      283.897609    ;  uncertainty theta = 0.001315, k = 0.018226
        18        17        55     1      120.235497      292.477280    ;  uncertainty theta = 0.001696, k = 0.031107
        18        19        20     1      118.246803      526.555213    ;  uncertainty theta = 0.000903, k = 0.024014
        18        19        57     1      120.647278      289.320829    ;  uncertainty theta = 0.001403, k = 0.006566
        19        18        56     1      120.620949      287.638700    ;  uncertainty theta = 0.001444, k = 0.012507
        19        20        21     1      119.685776      513.267201    ;  uncertainty theta = 0.000971, k = 0.012607
        19        20        58     1      120.620949      287.638700    ;  uncertainty theta = 0.001444, k = 0.012507
        20        19        57     1      120.647278      289.320829    ;  uncertainty theta = 0.001403, k = 0.006566
        20        21        59     1      120.235497      292.477280    ;  uncertainty theta = 0.001696, k = 0.031107
        21        20        58     1      120.211227      283.897609    ;  uncertainty theta = 0.001315, k = 0.018226
        22        15        54     1      107.894577      455.839254    ;  uncertainty theta = 0.003753, k = 0.115430
        22        23        24     1      123.141701      575.910018    ;  uncertainty theta = 0.003511, k = 0.120934
        22        23        32     1      122.317627      499.033263    ;  uncertainty theta = 0.010194, k = 0.209541
        23        22        60     1      111.105759      386.782760    ;  uncertainty theta = 0.005516, k = 0.186771
        23        24        25     1      120.478416      516.109066    ;  uncertainty theta = 0.002075, k = 0.087339
        23        24        61     1      119.051010      277.924383    ;  uncertainty theta = 0.004177, k = 0.151846
        23        32        31     1      120.424454      453.080161    ;  uncertainty theta = 0.006616, k = 0.179671
        23        32        33     1      120.375412      356.825784    ;  uncertainty theta = 0.009333, k = 0.368707
        24        23        32     1      118.942970      382.845385    ;  uncertainty theta = 0.005312, k = 0.129487
        24        25        26     1      120.981323      513.612814    ;  uncertainty theta = 0.003622, k = 0.061051
        24        25        62     1      120.001465      286.894165    ;  uncertainty theta = 0.002804, k = 0.033752
        25        24        61     1      120.437355      286.262218    ;  uncertainty theta = 0.002252, k = 0.069391
        25        26        27     1      116.839577      343.993737    ;  uncertainty theta = 0.004979, k = 0.130748
        25        26        31     1      121.948021      476.310950    ;  uncertainty theta = 0.002704, k = 0.206186
        26        25        62     1      118.183693      271.648352    ;  uncertainty theta = 0.003054, k = 0.062508
        26        27        28     1      113.129189      665.135146    ;  uncertainty theta = 0.002597, k = 0.018377
        26        27        29     1      113.129189      665.135146    ;  uncertainty theta = 0.002597, k = 0.018377
        26        27        30     1      113.129189      665.135146    ;  uncertainty theta = 0.002597, k = 0.018377
        26        31        32     1      123.128983      512.049368    ;  uncertainty theta = 0.004008, k = 0.124705
        26        31        63     1      117.799782      273.317648    ;  uncertainty theta = 0.004465, k = 0.082060
        27        26        31     1      116.421097      363.451642    ;  uncertainty theta = 0.005624, k = 0.222079
        28        27        29     1      107.629150      789.646366    ;  uncertainty theta = 0.002059, k = 0.013010
        28        27        30     1      107.629150      789.646366    ;  uncertainty theta = 0.002059, k = 0.013010
        29        27        30     1      107.629150      789.646366    ;  uncertainty theta = 0.002059, k = 0.013010
        31        32        33     1      118.950241      402.591572    ;  uncertainty theta = 0.003729, k = 0.167767
        32        31        63     1      118.101120      267.172941    ;  uncertainty theta = 0.003492, k = 0.082588
        32        33        34     1      108.944107      646.378394    ;  uncertainty theta = 0.006702, k = 0.349200
        32        33        64     1      108.297501      391.435015    ;  uncertainty theta = 0.004361, k = 0.086695
        33        14        53     1      106.452866      398.861877    ;  uncertainty theta = 0.002907, k = 0.084787
        34        11        48     1      106.785538      456.491312    ;  uncertainty theta = 0.005316, k = 0.171014
        34        33        64     1      106.278244      449.051937    ;  uncertainty theta = 0.002859, k = 0.164376
        35         1        36     1      106.631874      320.305259    ;  uncertainty theta = 0.002083, k = 0.019430
        35         1        37     1      106.631874      320.305259    ;  uncertainty theta = 0.002083, k = 0.019430
        36         1        37     1      106.631874      320.305259    ;  uncertainty theta = 0.002083, k = 0.019430
        38         3        39     1      106.631874      320.305259    ;  uncertainty theta = 0.002083, k = 0.019430
        38         3        40     1      106.631874      320.305259    ;  uncertainty theta = 0.002083, k = 0.019430
        39         3        40     1      106.631874      320.305259    ;  uncertainty theta = 0.002083, k = 0.019430
        41         4        42     1      105.820816      317.629258    ;  uncertainty theta = 0.003153, k = 0.083760
        43         5        44     1      108.046364      330.208040    ;  uncertainty theta = 0.003670, k = 0.034281
        46        10        47     1      106.259842      322.361444    ;  uncertainty theta = 0.002319, k = 0.027156
        49        12        50     1      105.185692      314.068682    ;  uncertainty theta = 0.000993, k = 0.026189
        51        13        52     1      104.585793      315.269022    ;  uncertainty theta = 0.002093, k = 0.030266

[ dihedrals ] ; propers for gromacs 4.5 or higher, use funct 9
;       ai        aj        ak        al funct           phase               k        pn
         1         2         3        38     9        0.000000       -5.943607         1    ;  uncertainty k = 0.494062
         1         2         3        38     9      180.000000       -1.251291         2    ;  uncertainty k = 0.046835
         1         2         3        38     9        0.000000        1.202193         3    ;  uncertainty k = 0.030592
         1         2         3        38     9      180.000000        0.178843         4    ;  uncertainty k = 0.055164
         1         2         3        39     9        0.000000       -5.943607         1    ;  uncertainty k = 0.494062
         1         2         3        39     9      180.000000       -1.251291         2    ;  uncertainty k = 0.046835
         1         2         3        39     9        0.000000        1.202193         3    ;  uncertainty k = 0.030592
         1         2         3        39     9      180.000000        0.178843         4    ;  uncertainty k = 0.055164
         1         2         3        40     9        0.000000       -5.943607         1    ;  uncertainty k = 0.494062
         1         2         3        40     9      180.000000       -1.251291         2    ;  uncertainty k = 0.046835
         1         2         3        40     9        0.000000        1.202193         3    ;  uncertainty k = 0.030592
         1         2         3        40     9      180.000000        0.178843         4    ;  uncertainty k = 0.055164
         1         2         4         5     9        0.000000       -2.314783         1    ;  uncertainty k = 0.653672
         1         2         4         5     9      180.000000       -2.476427         2    ;  uncertainty k = 0.208326
         1         2         4         5     9        0.000000        1.115103         3    ;  uncertainty k = 0.103354
         1         2         4         5     9      180.000000        0.225987         4    ;  uncertainty k = 0.097807
         1         2         4        41     9        0.000000       -2.404704         1    ;  uncertainty k = 0.542164
         1         2         4        41     9      180.000000       -0.190287         2    ;  uncertainty k = 0.083843
         1         2         4        41     9        0.000000        0.706345         3    ;  uncertainty k = 0.081991
         1         2         4        41     9      180.000000        0.083054         4    ;  uncertainty k = 0.031789
         1         2         4        42     9        0.000000       -2.404704         1    ;  uncertainty k = 0.542164
         1         2         4        42     9      180.000000       -0.190287         2    ;  uncertainty k = 0.083843
         1         2         4        42     9        0.000000        0.706345         3    ;  uncertainty k = 0.081991
         1         2         4        42     9      180.000000        0.083054         4    ;  uncertainty k = 0.031789
         2         4         5         6     9        0.000000       -2.988221         1    ;  uncertainty k = 0.842114
         2         4         5         6     9      180.000000       -3.221444         2    ;  uncertainty k = 0.730927
         2         4         5         6     9        0.000000        2.369346         3    ;  uncertainty k = 0.160311
         2         4         5         6     9      180.000000       -0.255367         4    ;  uncertainty k = 0.115305
         2         4         5        43     9        0.000000        0.727762         1    ;  uncertainty k = 0.660007
         2         4         5        43     9      180.000000       -0.743290         2    ;  uncertainty k = 0.227927
         2         4         5        43     9        0.000000        0.755808         3    ;  uncertainty k = 0.164212
         2         4         5        43     9      180.000000       -0.032982         4    ;  uncertainty k = 0.076078
         2         4         5        44     9        0.000000        0.727762         1    ;  uncertainty k = 0.660007
         2         4         5        44     9      180.000000       -0.743290         2    ;  uncertainty k = 0.227927
         2         4         5        44     9        0.000000        0.755808         3    ;  uncertainty k = 0.164212
         2         4         5        44     9      180.000000       -0.032982         4    ;  uncertainty k = 0.076078
         3         2         1        35     9        0.000000       -5.943607         1    ;  uncertainty k = 0.494062
         3         2         1        35     9      180.000000       -1.251291         2    ;  uncertainty k = 0.046835
         3         2         1        35     9        0.000000        1.202193         3    ;  uncertainty k = 0.030592
         3         2         1        35     9      180.000000        0.178843         4    ;  uncertainty k = 0.055164
         3         2         1        36     9        0.000000       -5.943607         1    ;  uncertainty k = 0.494062
         3         2         1        36     9      180.000000       -1.251291         2    ;  uncertainty k = 0.046835
         3         2         1        36     9        0.000000        1.202193         3    ;  uncertainty k = 0.030592
         3         2         1        36     9      180.000000        0.178843         4    ;  uncertainty k = 0.055164
         3         2         1        37     9        0.000000       -5.943607         1    ;  uncertainty k = 0.494062
         3         2         1        37     9      180.000000       -1.251291         2    ;  uncertainty k = 0.046835
         3         2         1        37     9        0.000000        1.202193         3    ;  uncertainty k = 0.030592
         3         2         1        37     9      180.000000        0.178843         4    ;  uncertainty k = 0.055164
         3         2         4         5     9        0.000000       -2.314783         1    ;  uncertainty k = 0.653672
         3         2         4         5     9      180.000000       -2.476427         2    ;  uncertainty k = 0.208326
         3         2         4         5     9        0.000000        1.115103         3    ;  uncertainty k = 0.103354
         3         2         4         5     9      180.000000        0.225987         4    ;  uncertainty k = 0.097807
         3         2         4        41     9        0.000000       -2.404704         1    ;  uncertainty k = 0.542164
         3         2         4        41     9      180.000000       -0.190287         2    ;  uncertainty k = 0.083843
         3         2         4        41     9        0.000000        0.706345         3    ;  uncertainty k = 0.081991
         3         2         4        41     9      180.000000        0.083054         4    ;  uncertainty k = 0.031789
         3         2         4        42     9        0.000000       -2.404704         1    ;  uncertainty k = 0.542164
         3         2         4        42     9      180.000000       -0.190287         2    ;  uncertainty k = 0.083843
         3         2         4        42     9        0.000000        0.706345         3    ;  uncertainty k = 0.081991
         3         2         4        42     9      180.000000        0.083054         4    ;  uncertainty k = 0.031789
         4         2         1        35     9        0.000000       -5.195286         1    ;  uncertainty k = 0.561780
         4         2         1        35     9      180.000000       -1.881810         2    ;  uncertainty k = 0.182063
         4         2         1        35     9        0.000000        0.907423         3    ;  uncertainty k = 0.056325
         4         2         1        35     9      180.000000        0.154606         4    ;  uncertainty k = 0.086417
         4         2         1        36     9        0.000000       -5.195286         1    ;  uncertainty k = 0.561780
         4         2         1        36     9      180.000000       -1.881810         2    ;  uncertainty k = 0.182063
         4         2         1        36     9        0.000000        0.907423         3    ;  uncertainty k = 0.056325
         4         2         1        36     9      180.000000        0.154606         4    ;  uncertainty k = 0.086417
         4         2         1        37     9        0.000000       -5.195286         1    ;  uncertainty k = 0.561780
         4         2         1        37     9      180.000000       -1.881810         2    ;  uncertainty k = 0.182063
         4         2         1        37     9        0.000000        0.907423         3    ;  uncertainty k = 0.056325
         4         2         1        37     9      180.000000        0.154606         4    ;  uncertainty k = 0.086417
         4         2         3        38     9        0.000000       -5.195286         1    ;  uncertainty k = 0.561780
         4         2         3        38     9      180.000000       -1.881810         2    ;  uncertainty k = 0.182063
         4         2         3        38     9        0.000000        0.907423         3    ;  uncertainty k = 0.056325
         4         2         3        38     9      180.000000        0.154606         4    ;  uncertainty k = 0.086417
         4         2         3        39     9        0.000000       -5.195286         1    ;  uncertainty k = 0.561780
         4         2         3        39     9      180.000000       -1.881810         2    ;  uncertainty k = 0.182063
         4         2         3        39     9        0.000000        0.907423         3    ;  uncertainty k = 0.056325
         4         2         3        39     9      180.000000        0.154606         4    ;  uncertainty k = 0.086417
         4         2         3        40     9        0.000000       -5.195286         1    ;  uncertainty k = 0.561780
         4         2         3        40     9      180.000000       -1.881810         2    ;  uncertainty k = 0.182063
         4         2         3        40     9        0.000000        0.907423         3    ;  uncertainty k = 0.056325
         4         2         3        40     9      180.000000        0.154606         4    ;  uncertainty k = 0.086417
         4         5         6         7     9        0.000000        2.938228         1    ;  uncertainty k = 0.794441
         4         5         6         7     9      180.000000        0.541330         2    ;  uncertainty k = 0.163758
         4         5         6         7     9        0.000000       -0.494638         3    ;  uncertainty k = 0.338841
         4         5         6         7     9      180.000000        0.948194         4    ;  uncertainty k = 0.209207
         5         6         7         8     9        0.000000        4.808335         1    ;  uncertainty k = 0.595897
         5         6         7         8     9      180.000000       10.031297         2    ;  uncertainty k = 0.297275
         5         6         7         8     9        0.000000        0.882783         3    ;  uncertainty k = 0.257360
         5         6         7         8     9      180.000000        0.293338         4    ;  uncertainty k = 0.222708
         5         6         7         9     9        0.000000        4.216858         1    ;  uncertainty k = 0.764532
         5         6         7         9     9      180.000000        8.427696         2    ;  uncertainty k = 0.211546
         5         6         7         9     9        0.000000        0.369824         3    ;  uncertainty k = 0.344267
         5         6         7         9     9      180.000000        0.250675         4    ;  uncertainty k = 0.218891
         6         5         4        41     9        0.000000        0.857464         1    ;  uncertainty k = 0.390213
         6         5         4        41     9      180.000000       -2.307603         2    ;  uncertainty k = 0.279648
         6         5         4        41     9        0.000000        1.042616         3    ;  uncertainty k = 0.064568
         6         5         4        41     9      180.000000       -0.006925         4    ;  uncertainty k = 0.075233
         6         5         4        42     9        0.000000        0.857464         1    ;  uncertainty k = 0.390213
         6         5         4        42     9      180.000000       -2.307603         2    ;  uncertainty k = 0.279648
         6         5         4        42     9        0.000000        1.042616         3    ;  uncertainty k = 0.064568
         6         5         4        42     9      180.000000       -0.006925         4    ;  uncertainty k = 0.075233
         6         7         9        10     9        0.000000        9.280802         1    ;  uncertainty k = 0.849375
         6         7         9        10     9      180.000000       11.085271         2    ;  uncertainty k = 0.422890
         6         7         9        10     9        0.000000        1.944819         3    ;  uncertainty k = 0.275012
         6         7         9        10     9      180.000000       -0.458574         4    ;  uncertainty k = 0.293256
         6         7         9        45     9        0.000000        2.168486         1    ;  uncertainty k = 0.854311
         6         7         9        45     9      180.000000        8.023906         2    ;  uncertainty k = 0.594055
         6         7         9        45     9        0.000000        1.637831         3    ;  uncertainty k = 0.336902
         6         7         9        45     9      180.000000       -0.006573         4    ;  uncertainty k = 0.219110
         7         6         5        43     9        0.000000        4.738513         1    ;  uncertainty k = 0.317938
         7         6         5        43     9      180.000000        0.293737         2    ;  uncertainty k = 0.286609
         7         6         5        43     9        0.000000        0.092061         3    ;  uncertainty k = 0.046194
         7         6         5        43     9      180.000000        0.441796         4    ;  uncertainty k = 0.075671
         7         6         5        44     9        0.000000        4.738513         1    ;  uncertainty k = 0.317938
         7         6         5        44     9      180.000000        0.293737         2    ;  uncertainty k = 0.286609
         7         6         5        44     9        0.000000        0.092061         3    ;  uncertainty k = 0.046194
         7         6         5        44     9      180.000000        0.441796         4    ;  uncertainty k = 0.075671
         7         9        10        11     9        0.000000       -0.407271         1    ;  uncertainty k = 0.714803
         7         9        10        11     9      180.000000       -0.273578         2    ;  uncertainty k = 0.361385
         7         9        10        11     9        0.000000       -0.168734         3    ;  uncertainty k = 0.209078
         7         9        10        11     9      180.000000        0.562238         4    ;  uncertainty k = 0.125536
         7         9        10        46     9        0.000000        0.878959         1    ;  uncertainty k = 0.531517
         7         9        10        46     9      180.000000       -0.641356         2    ;  uncertainty k = 0.251331
         7         9        10        46     9        0.000000        0.139690         3    ;  uncertainty k = 0.076940
         7         9        10        46     9      180.000000        0.307313         4    ;  uncertainty k = 0.077560
         7         9        10        47     9        0.000000        0.878959         1    ;  uncertainty k = 0.531517
         7         9        10        47     9      180.000000       -0.641356         2    ;  uncertainty k = 0.251331
         7         9        10        47     9        0.000000        0.139690         3    ;  uncertainty k = 0.076940
         7         9        10        47     9      180.000000        0.307313         4    ;  uncertainty k = 0.077560
         8         7         9        10     9        0.000000        8.176157         1    ;  uncertainty k = 1.140586
         8         7         9        10     9      180.000000       12.190408         2    ;  uncertainty k = 0.302825
         8         7         9        10     9        0.000000        1.106498         3    ;  uncertainty k = 0.338788
         8         7         9        10     9      180.000000       -0.516045         4    ;  uncertainty k = 0.279101
         8         7         9        45     9        0.000000        3.728523         1    ;  uncertainty k = 0.749441
         8         7         9        45     9      180.000000       13.891121         2    ;  uncertainty k = 0.330403
         8         7         9        45     9        0.000000        1.181924         3    ;  uncertainty k = 0.290301
         8         7         9        45     9      180.000000       -0.631491         4    ;  uncertainty k = 0.242751
         9        10        11        12     9        0.000000       -1.545649         1    ;  uncertainty k = 0.918960
         9        10        11        12     9      180.000000        0.793554         2    ;  uncertainty k = 0.303569
         9        10        11        12     9        0.000000        1.192908         3    ;  uncertainty k = 0.262691
         9        10        11        12     9      180.000000       -0.267926         4    ;  uncertainty k = 0.264414
         9        10        11        34     9        0.000000       -0.610638         1    ;  uncertainty k = 0.639967
         9        10        11        34     9      180.000000       -2.379823         2    ;  uncertainty k = 0.515625
         9        10        11        34     9        0.000000        1.886832         3    ;  uncertainty k = 0.338393
         9        10        11        34     9      180.000000       -0.270088         4    ;  uncertainty k = 0.056319
         9        10        11        48     9        0.000000       -0.067969         1    ;  uncertainty k = 0.627947
         9        10        11        48     9      180.000000       -0.919683         2    ;  uncertainty k = 0.298285
         9        10        11        48     9        0.000000        0.912232         3    ;  uncertainty k = 0.191999
         9        10        11        48     9      180.000000       -0.115437         4    ;  uncertainty k = 0.056292
        10        11        12        13     9        0.000000       -2.885900         1    ;  uncertainty k = 0.416701
        10        11        12        13     9      180.000000        0.288230         2    ;  uncertainty k = 0.348141
        10        11        12        13     9        0.000000        0.437172         3    ;  uncertainty k = 0.057194
        10        11        12        13     9      180.000000       -0.339719         4    ;  uncertainty k = 0.107286
        10        11        12        49     9        0.000000       -0.740757         1    ;  uncertainty k = 0.321135
        10        11        12        49     9      180.000000       -0.300524         2    ;  uncertainty k = 0.289825
        10        11        12        49     9        0.000000        0.220623         3    ;  uncertainty k = 0.064402
        10        11        12        49     9      180.000000       -0.223835         4    ;  uncertainty k = 0.072157
        10        11        12        50     9        0.000000       -0.740757         1    ;  uncertainty k = 0.321135
        10        11        12        50     9      180.000000       -0.300524         2    ;  uncertainty k = 0.289825
        10        11        12        50     9        0.000000        0.220623         3    ;  uncertainty k = 0.064402
        10        11        12        50     9      180.000000       -0.223835         4    ;  uncertainty k = 0.072157
        10        11        34        33     9        0.000000       -5.005350         1    ;  uncertainty k = 0.933522
        10        11        34        33     9      180.000000        0.178737         2    ;  uncertainty k = 0.307918
        10        11        34        33     9        0.000000        0.561242         3    ;  uncertainty k = 0.371507
        10        11        34        33     9      180.000000       -0.077597         4    ;  uncertainty k = 0.216992
        11        10         9        45     9        0.000000        2.750528         1    ;  uncertainty k = 0.385656
        11        10         9        45     9      180.000000       -2.531665         2    ;  uncertainty k = 0.224403
        11        10         9        45     9        0.000000        0.675325         3    ;  uncertainty k = 0.153561
        11        10         9        45     9      180.000000       -0.017101         4    ;  uncertainty k = 0.135828
        11        12        13        14     9        0.000000       -4.860864         1    ;  uncertainty k = 1.076204
        11        12        13        14     9      180.000000       -0.590631         2    ;  uncertainty k = 0.608539
        11        12        13        14     9        0.000000        1.231148         3    ;  uncertainty k = 0.230475
        11        12        13        14     9      180.000000       -0.965657         4    ;  uncertainty k = 0.186669
        11        12        13        51     9        0.000000       -1.061938         1    ;  uncertainty k = 0.654330
        11        12        13        51     9      180.000000       -0.566321         2    ;  uncertainty k = 0.239439
        11        12        13        51     9        0.000000        0.416928         3    ;  uncertainty k = 0.157574
        11        12        13        51     9      180.000000        0.038492         4    ;  uncertainty k = 0.034871
        11        12        13        52     9        0.000000       -1.061938         1    ;  uncertainty k = 0.654330
        11        12        13        52     9      180.000000       -0.566321         2    ;  uncertainty k = 0.239439
        11        12        13        52     9        0.000000        0.416928         3    ;  uncertainty k = 0.157574
        11        12        13        52     9      180.000000        0.038492         4    ;  uncertainty k = 0.034871
        11        34        33        14     9        0.000000        4.316407         1    ;  uncertainty k = 1.466522
        11        34        33        14     9      180.000000       -1.898667         2    ;  uncertainty k = 1.125818
        11        34        33        14     9        0.000000        0.065586         3    ;  uncertainty k = 0.329058
        11        34        33        14     9      180.000000        0.036681         4    ;  uncertainty k = 0.199346
        11        34        33        32     9        0.000000       -3.224798         1    ;  uncertainty k = 1.626471
        11        34        33        32     9      180.000000       -1.067587         2    ;  uncertainty k = 0.859481
        11        34        33        32     9        0.000000        0.893165         3    ;  uncertainty k = 0.562654
        11        34        33        32     9      180.000000       -0.103508         4    ;  uncertainty k = 0.173329
        11        34        33        64     9        0.000000       -1.683654         1    ;  uncertainty k = 0.487576
        11        34        33        64     9      180.000000       -0.481868         2    ;  uncertainty k = 0.309840
        11        34        33        64     9        0.000000        0.421604         3    ;  uncertainty k = 0.087662
        11        34        33        64     9      180.000000       -0.104442         4    ;  uncertainty k = 0.210229
        12        11        10        46     9        0.000000       -1.034557         1    ;  uncertainty k = 0.363665
        12        11        10        46     9      180.000000       -0.203945         2    ;  uncertainty k = 0.343264
        12        11        10        46     9        0.000000        0.299745         3    ;  uncertainty k = 0.044226
        12        11        10        46     9      180.000000       -0.175906         4    ;  uncertainty k = 0.087597
        12        11        10        47     9        0.000000       -1.034557         1    ;  uncertainty k = 0.363665
        12        11        10        47     9      180.000000       -0.203945         2    ;  uncertainty k = 0.343264
        12        11        10        47     9        0.000000        0.299745         3    ;  uncertainty k = 0.044226
        12        11        10        47     9      180.000000       -0.175906         4    ;  uncertainty k = 0.087597
        12        11        34        33     9        0.000000        2.499392         1    ;  uncertainty k = 2.805285
        12        11        34        33     9      180.000000       -1.329152         2    ;  uncertainty k = 0.483482
        12        11        34        33     9        0.000000       -0.052662         3    ;  uncertainty k = 0.601185
        12        11        34        33     9      180.000000        0.023479         4    ;  uncertainty k = 0.162712
        12        13        14        15     9        0.000000       -3.443878         1    ;  uncertainty k = 0.605593
        12        13        14        15     9      180.000000        0.062543         2    ;  uncertainty k = 0.168824
        12        13        14        15     9        0.000000        1.152455         3    ;  uncertainty k = 0.142781
        12        13        14        15     9      180.000000       -0.543040         4    ;  uncertainty k = 0.159797
        12        13        14        33     9        0.000000       -3.551718         1    ;  uncertainty k = 0.291227
        12        13        14        33     9      180.000000        0.164559         2    ;  uncertainty k = 0.394674
        12        13        14        33     9        0.000000        1.025462         3    ;  uncertainty k = 0.171956
        12        13        14        33     9      180.000000       -0.793434         4    ;  uncertainty k = 0.066548
        12        13        14        53     9        0.000000       -2.393881         1    ;  uncertainty k = 0.521607
        12        13        14        53     9      180.000000        0.121955         2    ;  uncertainty k = 0.258371
        12        13        14        53     9        0.000000        0.024213         3    ;  uncertainty k = 0.078636
        12        13        14        53     9      180.000000       -0.101045         4    ;  uncertainty k = 0.083409
        13        12        11        34     9        0.000000       -2.270034         1    ;  uncertainty k = 0.777088
        13        12        11        34     9      180.000000       -1.051230         2    ;  uncertainty k = 0.570088
        13        12        11        34     9        0.000000        1.427058         3    ;  uncertainty k = 0.428781
        13        12        11        34     9      180.000000       -0.509130         4    ;  uncertainty k = 0.317389
        13        12        11        48     9        0.000000        0.648280         1    ;  uncertainty k = 0.800579
        13        12        11        48     9      180.000000       -1.862932         2    ;  uncertainty k = 0.722775
        13        12        11        48     9        0.000000       -0.281702         3    ;  uncertainty k = 0.147901
        13        12        11        48     9      180.000000        0.139382         4    ;  uncertainty k = 0.079287
        13        14        15        16     9        0.000000       -0.461049         1    ;  uncertainty k = 0.381283
        13        14        15        16     9      180.000000        0.080823         2    ;  uncertainty k = 0.232856
        13        14        15        16     9        0.000000        1.015758         3    ;  uncertainty k = 0.130571
        13        14        15        16     9      180.000000       -0.026766         4    ;  uncertainty k = 0.089496
        13        14        15        22     9        0.000000       -2.649435         1    ;  uncertainty k = 0.376990
        13        14        15        22     9      180.000000        0.575633         2    ;  uncertainty k = 0.355541
        13        14        15        22     9        0.000000        1.148062         3    ;  uncertainty k = 0.198879
        13        14        15        22     9      180.000000       -0.322936         4    ;  uncertainty k = 0.282820
        13        14        15        54     9        0.000000       -0.245811         1    ;  uncertainty k = 0.386688
        13        14        15        54     9      180.000000       -0.315547         2    ;  uncertainty k = 0.172059
        13        14        15        54     9        0.000000        0.086687         3    ;  uncertainty k = 0.150676
        13        14        15        54     9      180.000000       -0.119145         4    ;  uncertainty k = 0.084487
        13        14        33        32     9        0.000000       -1.766778         1    ;  uncertainty k = 0.973516
        13        14        33        32     9      180.000000       -0.718703         2    ;  uncertainty k = 0.145827
        13        14        33        32     9        0.000000        0.620918         3    ;  uncertainty k = 0.188101
        13        14        33        32     9      180.000000       -0.232127         4    ;  uncertainty k = 0.132638
        13        14        33        34     9        0.000000       -1.597475         1    ;  uncertainty k = 0.895505
        13        14        33        34     9      180.000000       -1.463039         2    ;  uncertainty k = 0.974310
        13        14        33        34     9        0.000000        0.895087         3    ;  uncertainty k = 0.269784
        13        14        33        34     9      180.000000       -0.031597         4    ;  uncertainty k = 0.250749
        13        14        33        64     9        0.000000        0.363062         1    ;  uncertainty k = 0.565973
        13        14        33        64     9      180.000000       -0.520923         2    ;  uncertainty k = 0.414609
        13        14        33        64     9        0.000000       -0.168774         3    ;  uncertainty k = 0.117464
        13        14        33        64     9      180.000000       -0.047662         4    ;  uncertainty k = 0.135136
        14        13        12        49     9        0.000000       -0.789551         1    ;  uncertainty k = 0.235032
        14        13        12        49     9      180.000000       -0.691686         2    ;  uncertainty k = 0.213781
        14        13        12        49     9        0.000000        0.412213         3    ;  uncertainty k = 0.128820
        14        13        12        49     9      180.000000       -0.048909         4    ;  uncertainty k = 0.116103
        14        13        12        50     9        0.000000       -0.789551         1    ;  uncertainty k = 0.235032
        14        13        12        50     9      180.000000       -0.691686         2    ;  uncertainty k = 0.213781
        14        13        12        50     9        0.000000        0.412213         3    ;  uncertainty k = 0.128820
        14        13        12        50     9      180.000000       -0.048909         4    ;  uncertainty k = 0.116103
        14        15        16        17     9        0.000000       -0.128230         1    ;  uncertainty k = 0.712210
        14        15        16        17     9      180.000000        1.832448         2    ;  uncertainty k = 0.216282
        14        15        16        17     9        0.000000        0.279323         3    ;  uncertainty k = 0.140015
        14        15        16        17     9      180.000000        0.244071         4    ;  uncertainty k = 0.076873
        14        15        16        21     9        0.000000       -0.128230         1    ;  uncertainty k = 0.712210
        14        15        16        21     9      180.000000        1.832448         2    ;  uncertainty k = 0.216282
        14        15        16        21     9        0.000000        0.279323         3    ;  uncertainty k = 0.140015
        14        15        16        21     9      180.000000        0.244071         4    ;  uncertainty k = 0.076873
        14        15        22        23     9        0.000000        0.719689         1    ;  uncertainty k = 1.244020
        14        15        22        23     9      180.000000        0.209000         2    ;  uncertainty k = 0.601735
        14        15        22        23     9        0.000000        0.378517         3    ;  uncertainty k = 0.264052
        14        15        22        23     9      180.000000        0.142878         4    ;  uncertainty k = 0.153977
        14        15        22        60     9        0.000000        3.620496         1    ;  uncertainty k = 0.960159
        14        15        22        60     9      180.000000       -1.866275         2    ;  uncertainty k = 1.297277
        14        15        22        60     9        0.000000        0.466328         3    ;  uncertainty k = 0.292683
        14        15        22        60     9      180.000000       -0.015211         4    ;  uncertainty k = 0.082184
        14        33        32        23     9        0.000000        0.242410         1    ;  uncertainty k = 2.397408
        14        33        32        23     9      180.000000       -0.318795         2    ;  uncertainty k = 1.365943
        14        33        32        23     9        0.000000        0.084199         3    ;  uncertainty k = 0.707004
        14        33        32        23     9      180.000000        0.713415         4    ;  uncertainty k = 0.239938
        14        33        32        31     9        0.000000       -1.545739         1    ;  uncertainty k = 0.808284
        14        33        32        31     9      180.000000       -0.098598         2    ;  uncertainty k = 0.594679
        14        33        32        31     9        0.000000       -0.228474         3    ;  uncertainty k = 0.118069
        14        33        32        31     9      180.000000        0.425604         4    ;  uncertainty k = 0.113282
        15        14        13        51     9        0.000000        0.094101         1    ;  uncertainty k = 0.301634
        15        14        13        51     9      180.000000       -0.638647         2    ;  uncertainty k = 0.223261
        15        14        13        51     9        0.000000        0.477645         3    ;  uncertainty k = 0.098813
        15        14        13        51     9      180.000000       -0.051282         4    ;  uncertainty k = 0.102093
        15        14        13        52     9        0.000000        0.094101         1    ;  uncertainty k = 0.301634
        15        14        13        52     9      180.000000       -0.638647         2    ;  uncertainty k = 0.223261
        15        14        13        52     9        0.000000        0.477645         3    ;  uncertainty k = 0.098813
        15        14        13        52     9      180.000000       -0.051282         4    ;  uncertainty k = 0.102093
        15        14        33        32     9        0.000000        1.020906         1    ;  uncertainty k = 1.287081
        15        14        33        32     9      180.000000       -2.127651         2    ;  uncertainty k = 0.312599
        15        14        33        32     9        0.000000        0.266223         3    ;  uncertainty k = 0.283237
        15        14        33        32     9      180.000000       -0.130171         4    ;  uncertainty k = 0.142539
        15        14        33        34     9        0.000000       -1.055808         1    ;  uncertainty k = 1.608217
        15        14        33        34     9      180.000000       -3.328519         2    ;  uncertainty k = 1.575304
        15        14        33        34     9        0.000000        0.629326         3    ;  uncertainty k = 0.265985
        15        14        33        34     9      180.000000        0.113381         4    ;  uncertainty k = 0.328890
        15        14        33        64     9        0.000000        0.827754         1    ;  uncertainty k = 0.782495
        15        14        33        64     9      180.000000       -1.073944         2    ;  uncertainty k = 0.477122
        15        14        33        64     9        0.000000       -0.239465         3    ;  uncertainty k = 0.093001
        15        14        33        64     9      180.000000        0.001972         4    ;  uncertainty k = 0.193082
        15        16        17        18     9        0.000000        0.312413         1    ;  uncertainty k = 0.242918
        15        16        17        18     9      180.000000        8.638334         2    ;  uncertainty k = 0.468596
        15        16        17        18     9        0.000000        1.448800         3    ;  uncertainty k = 0.340804
        15        16        17        18     9      180.000000        1.905016         4    ;  uncertainty k = 0.200484
        15        16        17        55     9        0.000000        0.035753         1    ;  uncertainty k = 0.305801
        15        16        17        55     9      180.000000        7.827039         2    ;  uncertainty k = 0.268348
        15        16        17        55     9        0.000000        0.557555         3    ;  uncertainty k = 0.370060
        15        16        17        55     9      180.000000        0.865304         4    ;  uncertainty k = 0.172707
        15        16        21        20     9        0.000000        0.312413         1    ;  uncertainty k = 0.242918
        15        16        21        20     9      180.000000        8.638334         2    ;  uncertainty k = 0.468596
        15        16        21        20     9        0.000000        1.448800         3    ;  uncertainty k = 0.340804
        15        16        21        20     9      180.000000        1.905016         4    ;  uncertainty k = 0.200484
        15        16        21        59     9        0.000000        0.035753         1    ;  uncertainty k = 0.305801
        15        16        21        59     9      180.000000        7.827039         2    ;  uncertainty k = 0.268348
        15        16        21        59     9        0.000000        0.557555         3    ;  uncertainty k = 0.370060
        15        16        21        59     9      180.000000        0.865304         4    ;  uncertainty k = 0.172707
        15        22        23        24     9        0.000000        0.472912         1    ;  uncertainty k = 0.815216
        15        22        23        24     9      180.000000        4.888522         2    ;  uncertainty k = 0.752070
        15        22        23        24     9        0.000000        0.397595         3    ;  uncertainty k = 0.545066
        15        22        23        24     9      180.000000        0.383807         4    ;  uncertainty k = 0.280593
        15        22        23        32     9        0.000000        4.144113         1    ;  uncertainty k = 2.103607
        15        22        23        32     9      180.000000        2.453511         2    ;  uncertainty k = 0.610740
        15        22        23        32     9        0.000000        0.023719         3    ;  uncertainty k = 0.473401
        15        22        23        32     9      180.000000        0.682039         4    ;  uncertainty k = 0.226903
        16        15        14        33     9        0.000000       -0.717353         1    ;  uncertainty k = 0.748357
        16        15        14        33     9      180.000000       -0.367659         2    ;  uncertainty k = 0.370216
        16        15        14        33     9        0.000000        0.397290         3    ;  uncertainty k = 0.216594
        16        15        14        33     9      180.000000       -0.018207         4    ;  uncertainty k = 0.136272
        16        15        14        53     9        0.000000        0.530297         1    ;  uncertainty k = 0.246710
        16        15        14        53     9      180.000000        0.121251         2    ;  uncertainty k = 0.617132
        16        15        14        53     9        0.000000        0.451811         3    ;  uncertainty k = 0.081496
        16        15        14        53     9      180.000000       -0.031873         4    ;  uncertainty k = 0.108858
        16        15        22        23     9        0.000000       -1.240810         1    ;  uncertainty k = 0.913860
        16        15        22        23     9      180.000000        0.100980         2    ;  uncertainty k = 0.285956
        16        15        22        23     9        0.000000        1.048824         3    ;  uncertainty k = 0.262246
        16        15        22        23     9      180.000000        0.199554         4    ;  uncertainty k = 0.098576
        16        15        22        60     9        0.000000        4.878358         1    ;  uncertainty k = 0.569249
        16        15        22        60     9      180.000000       -1.058872         2    ;  uncertainty k = 0.283859
        16        15        22        60     9        0.000000        0.413858         3    ;  uncertainty k = 0.297007
        16        15        22        60     9      180.000000       -0.032690         4    ;  uncertainty k = 0.182555
        16        17        18        19     9        0.000000       -0.073185         1    ;  uncertainty k = 0.135863
        16        17        18        19     9      180.000000       13.840581         2    ;  uncertainty k = 0.218470
        16        17        18        19     9        0.000000       -0.942124         3    ;  uncertainty k = 0.500159
        16        17        18        19     9      180.000000        0.720226         4    ;  uncertainty k = 0.249573
        16        17        18        56     9        0.000000        0.078937         1    ;  uncertainty k = 0.238410
        16        17        18        56     9      180.000000        7.523904         2    ;  uncertainty k = 0.411008
        16        17        18        56     9        0.000000        1.486224         3    ;  uncertainty k = 0.266910
        16        17        18        56     9      180.000000        1.791252         4    ;  uncertainty k = 0.130361
        16        21        20        19     9        0.000000       -0.073185         1    ;  uncertainty k = 0.135863
        16        21        20        19     9      180.000000       13.840581         2    ;  uncertainty k = 0.218470
        16        21        20        19     9        0.000000       -0.942124         3    ;  uncertainty k = 0.500159
        16        21        20        19     9      180.000000        0.720226         4    ;  uncertainty k = 0.249573
        16        21        20        58     9        0.000000        0.078937         1    ;  uncertainty k = 0.238410
        16        21        20        58     9      180.000000        7.523904         2    ;  uncertainty k = 0.411008
        16        21        20        58     9        0.000000        1.486224         3    ;  uncertainty k = 0.266910
        16        21        20        58     9      180.000000        1.791252         4    ;  uncertainty k = 0.130361
        17        16        15        22     9        0.000000       -0.590756         1    ;  uncertainty k = 0.525590
        17        16        15        22     9      180.000000        2.732820         2    ;  uncertainty k = 0.257489
        17        16        15        22     9        0.000000        0.629229         3    ;  uncertainty k = 0.228491
        17        16        15        22     9      180.000000        0.435378         4    ;  uncertainty k = 0.023802
        17        16        15        54     9        0.000000       -0.618195         1    ;  uncertainty k = 0.243535
        17        16        15        54     9      180.000000        2.285545         2    ;  uncertainty k = 0.337300
        17        16        15        54     9        0.000000        0.482603         3    ;  uncertainty k = 0.112819
        17        16        15        54     9      180.000000        0.236140         4    ;  uncertainty k = 0.049742
        17        16        21        20     9        0.000000       -0.244750         1    ;  uncertainty k = 0.085030
        17        16        21        20     9      180.000000       11.550238         2    ;  uncertainty k = 0.281782
        17        16        21        20     9        0.000000       -0.471965         3    ;  uncertainty k = 0.307308
        17        16        21        20     9      180.000000        0.819629         4    ;  uncertainty k = 0.339588
        17        16        21        59     9        0.000000        0.103785         1    ;  uncertainty k = 0.115164
        17        16        21        59     9      180.000000        7.232566         2    ;  uncertainty k = 0.479326
        17        16        21        59     9        0.000000        1.441609         3    ;  uncertainty k = 0.358039
        17        16        21        59     9      180.000000        1.626932         4    ;  uncertainty k = 0.180627
        17        18        19        20     9        0.000000        0.003338         1    ;  uncertainty k = 0.036528
        17        18        19        20     9      180.000000       15.061872         2    ;  uncertainty k = 0.266781
        17        18        19        20     9        0.000000       -1.241530         3    ;  uncertainty k = 0.510933
        17        18        19        20     9      180.000000        0.486539         4    ;  uncertainty k = 0.300059
        17        18        19        57     9        0.000000        0.055743         1    ;  uncertainty k = 0.094833
        17        18        19        57     9      180.000000        7.490470         2    ;  uncertainty k = 0.333391
        17        18        19        57     9        0.000000        1.467121         3    ;  uncertainty k = 0.292765
        17        18        19        57     9      180.000000        1.797081         4    ;  uncertainty k = 0.179698
        18        17        16        21     9        0.000000       -0.244750         1    ;  uncertainty k = 0.085030
        18        17        16        21     9      180.000000       11.550238         2    ;  uncertainty k = 0.281782
        18        17        16        21     9        0.000000       -0.471965         3    ;  uncertainty k = 0.307308
        18        17        16        21     9      180.000000        0.819629         4    ;  uncertainty k = 0.339588
        18        19        20        21     9        0.000000        0.003338         1    ;  uncertainty k = 0.036528
        18        19        20        21     9      180.000000       15.061872         2    ;  uncertainty k = 0.266781
        18        19        20        21     9        0.000000       -1.241530         3    ;  uncertainty k = 0.510933
        18        19        20        21     9      180.000000        0.486539         4    ;  uncertainty k = 0.300059
        18        19        20        58     9        0.000000        0.045944         1    ;  uncertainty k = 0.040455
        18        19        20        58     9      180.000000        7.527539         2    ;  uncertainty k = 0.325490
        18        19        20        58     9        0.000000        1.433627         3    ;  uncertainty k = 0.327115
        18        19        20        58     9      180.000000        1.790207         4    ;  uncertainty k = 0.158460
        19        18        17        55     9        0.000000        0.053110         1    ;  uncertainty k = 0.076538
        19        18        17        55     9      180.000000        7.946075         2    ;  uncertainty k = 0.338884
        19        18        17        55     9        0.000000        1.427770         3    ;  uncertainty k = 0.326160
        19        18        17        55     9      180.000000        1.836126         4    ;  uncertainty k = 0.159402
        19        20        21        59     9        0.000000        0.053110         1    ;  uncertainty k = 0.076538
        19        20        21        59     9      180.000000        7.946075         2    ;  uncertainty k = 0.338884
        19        20        21        59     9        0.000000        1.427770         3    ;  uncertainty k = 0.326160
        19        20        21        59     9      180.000000        1.836126         4    ;  uncertainty k = 0.159402
        20        19        18        56     9        0.000000        0.045944         1    ;  uncertainty k = 0.040455
        20        19        18        56     9      180.000000        7.527539         2    ;  uncertainty k = 0.325490
        20        19        18        56     9        0.000000        1.433627         3    ;  uncertainty k = 0.327115
        20        19        18        56     9      180.000000        1.790207         4    ;  uncertainty k = 0.158460
        21        16        15        22     9        0.000000       -0.590756         1    ;  uncertainty k = 0.525590
        21        16        15        22     9      180.000000        2.732820         2    ;  uncertainty k = 0.257489
        21        16        15        22     9        0.000000        0.629229         3    ;  uncertainty k = 0.228491
        21        16        15        22     9      180.000000        0.435378         4    ;  uncertainty k = 0.023802
        21        16        15        54     9        0.000000       -0.618195         1    ;  uncertainty k = 0.243535
        21        16        15        54     9      180.000000        2.285545         2    ;  uncertainty k = 0.337300
        21        16        15        54     9        0.000000        0.482603         3    ;  uncertainty k = 0.112819
        21        16        15        54     9      180.000000        0.236140         4    ;  uncertainty k = 0.049742
        21        16        17        55     9        0.000000        0.103785         1    ;  uncertainty k = 0.115164
        21        16        17        55     9      180.000000        7.232566         2    ;  uncertainty k = 0.479326
        21        16        17        55     9        0.000000        1.441609         3    ;  uncertainty k = 0.358039
        21        16        17        55     9      180.000000        1.626932         4    ;  uncertainty k = 0.180627
        21        20        19        57     9        0.000000        0.055743         1    ;  uncertainty k = 0.094833
        21        20        19        57     9      180.000000        7.490470         2    ;  uncertainty k = 0.333391
        21        20        19        57     9        0.000000        1.467121         3    ;  uncertainty k = 0.292765
        21        20        19        57     9      180.000000        1.797081         4    ;  uncertainty k = 0.179698
        22        15        14        33     9        0.000000       -0.007594         1    ;  uncertainty k = 2.197312
        22        15        14        33     9      180.000000       -1.143081         2    ;  uncertainty k = 0.276444
        22        15        14        33     9        0.000000        0.537169         3    ;  uncertainty k = 0.459073
        22        15        14        33     9      180.000000       -0.178265         4    ;  uncertainty k = 0.357380
        22        15        14        53     9        0.000000       -0.947833         1    ;  uncertainty k = 0.627969
        22        15        14        53     9      180.000000        0.170573         2    ;  uncertainty k = 0.410474
        22        15        14        53     9        0.000000        0.627907         3    ;  uncertainty k = 0.278858
        22        15        14        53     9      180.000000        0.059565         4    ;  uncertainty k = 0.093137
        22        23        24        25     9        0.000000        0.231428         1    ;  uncertainty k = 0.389796
        22        23        24        25     9      180.000000       10.238476         2    ;  uncertainty k = 0.466629
        22        23        24        25     9        0.000000        1.246350         3    ;  uncertainty k = 0.222856
        22        23        24        25     9      180.000000        1.655065         4    ;  uncertainty k = 0.267772
        22        23        24        61     9        0.000000       -0.252323         1    ;  uncertainty k = 0.534719
        22        23        24        61     9      180.000000        8.173630         2    ;  uncertainty k = 0.357489
        22        23        24        61     9        0.000000        1.005200         3    ;  uncertainty k = 0.139229
        22        23        24        61     9      180.000000        1.186391         4    ;  uncertainty k = 0.335076
        22        23        32        31     9        0.000000        0.514705         1    ;  uncertainty k = 0.664253
        22        23        32        31     9      180.000000        7.605362         2    ;  uncertainty k = 0.362138
        22        23        32        31     9        0.000000        0.991340         3    ;  uncertainty k = 0.193914
        22        23        32        31     9      180.000000        1.359285         4    ;  uncertainty k = 0.393670
        22        23        32        33     9        0.000000        0.052004         1    ;  uncertainty k = 0.599855
        22        23        32        33     9      180.000000        7.581845         2    ;  uncertainty k = 1.015598
        22        23        32        33     9        0.000000        0.683693         3    ;  uncertainty k = 0.579944
        22        23        32        33     9      180.000000        1.194810         4    ;  uncertainty k = 0.485141
        23        22        15        54     9        0.000000       -0.859913         1    ;  uncertainty k = 0.376970
        23        22        15        54     9      180.000000       -0.534872         2    ;  uncertainty k = 0.442168
        23        22        15        54     9        0.000000        0.715681         3    ;  uncertainty k = 0.162008
        23        22        15        54     9      180.000000        0.204030         4    ;  uncertainty k = 0.096027
        23        24        25        26     9        0.000000       -0.182690         1    ;  uncertainty k = 0.192395
        23        24        25        26     9      180.000000       13.581550         2    ;  uncertainty k = 0.317227
        23        24        25        26     9        0.000000       -0.529046         3    ;  uncertainty k = 0.592314
        23        24        25        26     9      180.000000        0.815071         4    ;  uncertainty k = 0.353191
        23        24        25        62     9        0.000000        0.317053         1    ;  uncertainty k = 0.513037
        23        24        25        62     9      180.000000        9.069728         2    ;  uncertainty k = 0.572384
        23        24        25        62     9        0.000000        1.256166         3    ;  uncertainty k = 0.254022
        23        24        25        62     9      180.000000        1.555765         4    ;  uncertainty k = 0.257997
        23        32        31        26     9        0.000000       -0.267304         1    ;  uncertainty k = 0.412363
        23        32        31        26     9      180.000000       11.752076         2    ;  uncertainty k = 0.425099
        23        32        31        26     9        0.000000       -0.315776         3    ;  uncertainty k = 0.520191
        23        32        31        26     9      180.000000        0.915764         4    ;  uncertainty k = 0.515936
        23        32        31        63     9        0.000000        0.324812         1    ;  uncertainty k = 0.368050
        23        32        31        63     9      180.000000        8.288328         2    ;  uncertainty k = 0.526602
        23        32        31        63     9        0.000000        1.376753         3    ;  uncertainty k = 0.326265
        23        32        31        63     9      180.000000        1.578090         4    ;  uncertainty k = 0.187003
        23        32        33        34     9        0.000000       -2.580743         1    ;  uncertainty k = 2.728083
        23        32        33        34     9      180.000000        0.502450         2    ;  uncertainty k = 1.155667
        23        32        33        34     9        0.000000        1.521882         3    ;  uncertainty k = 0.325627
        23        32        33        34     9      180.000000       -0.020565         4    ;  uncertainty k = 0.177459
        23        32        33        64     9        0.000000       -0.390475         1    ;  uncertainty k = 0.832621
        23        32        33        64     9      180.000000        2.111781         2    ;  uncertainty k = 0.240299
        23        32        33        64     9        0.000000        0.472394         3    ;  uncertainty k = 0.238680
        23        32        33        64     9      180.000000       -0.194062         4    ;  uncertainty k = 0.147186
        24        23        22        60     9        0.000000        1.644528         1    ;  uncertainty k = 0.671486
        24        23        22        60     9      180.000000        5.648100         2    ;  uncertainty k = 0.263411
        24        23        22        60     9        0.000000        0.887669         3    ;  uncertainty k = 0.335481
        24        23        22        60     9      180.000000       -0.022902         4    ;  uncertainty k = 0.180172
        24        23        32        31     9        0.000000        0.317716         1    ;  uncertainty k = 0.350190
        24        23        32        31     9      180.000000        5.948735         2    ;  uncertainty k = 0.533573
        24        23        32        31     9        0.000000        0.392054         3    ;  uncertainty k = 0.350697
        24        23        32        31     9      180.000000        1.333497         4    ;  uncertainty k = 0.239548
        24        23        32        33     9        0.000000        0.610302         1    ;  uncertainty k = 0.604382
        24        23        32        33     9      180.000000        5.675482         2    ;  uncertainty k = 0.460551
        24        23        32        33     9        0.000000        1.309673         3    ;  uncertainty k = 0.239002
        24        23        32        33     9      180.000000        1.601892         4    ;  uncertainty k = 0.271408
        24        25        26        27     9        0.000000        0.110284         1    ;  uncertainty k = 0.167159
        24        25        26        27     9      180.000000        9.822618         2    ;  uncertainty k = 0.704573
        24        25        26        27     9        0.000000        1.387105         3    ;  uncertainty k = 0.349698
        24        25        26        27     9      180.000000        1.947236         4    ;  uncertainty k = 0.332596
        24        25        26        31     9        0.000000       -0.034672         1    ;  uncertainty k = 0.203903
        24        25        26        31     9      180.000000       12.012212         2    ;  uncertainty k = 0.382685
        24        25        26        31     9        0.000000       -0.709598         3    ;  uncertainty k = 0.306769
        24        25        26        31     9      180.000000        0.893585         4    ;  uncertainty k = 0.295330
        25        24        23        32     9        0.000000        0.306570         1    ;  uncertainty k = 0.425942
        25        24        23        32     9      180.000000        7.300329         2    ;  uncertainty k = 0.363063
        25        24        23        32     9        0.000000        0.474892         3    ;  uncertainty k = 0.421538
        25        24        23        32     9      180.000000        1.413924         4    ;  uncertainty k = 0.213423
        25        26        27        28     9        0.000000       -0.682419         1    ;  uncertainty k = 0.249405
        25        26        27        28     9      180.000000        2.604905         2    ;  uncertainty k = 0.094363
        25        26        27        28     9        0.000000        0.754799         3    ;  uncertainty k = 0.077531
        25        26        27        28     9      180.000000        0.158520         4    ;  uncertainty k = 0.059056
        25        26        27        29     9        0.000000       -0.682419         1    ;  uncertainty k = 0.249405
        25        26        27        29     9      180.000000        2.604905         2    ;  uncertainty k = 0.094363
        25        26        27        29     9        0.000000        0.754799         3    ;  uncertainty k = 0.077531
        25        26        27        29     9      180.000000        0.158520         4    ;  uncertainty k = 0.059056
        25        26        27        30     9        0.000000       -0.682419         1    ;  uncertainty k = 0.249405
        25        26        27        30     9      180.000000        2.604905         2    ;  uncertainty k = 0.094363
        25        26        27        30     9        0.000000        0.754799         3    ;  uncertainty k = 0.077531
        25        26        27        30     9      180.000000        0.158520         4    ;  uncertainty k = 0.059056
        25        26        31        32     9        0.000000        0.036150         1    ;  uncertainty k = 0.285338
        25        26        31        32     9      180.000000       11.001547         2    ;  uncertainty k = 0.517109
        25        26        31        32     9        0.000000       -0.397288         3    ;  uncertainty k = 0.757389
        25        26        31        32     9      180.000000        1.041673         4    ;  uncertainty k = 0.528914
        25        26        31        63     9        0.000000        0.167488         1    ;  uncertainty k = 0.232761
        25        26        31        63     9      180.000000        7.759393         2    ;  uncertainty k = 0.302343
        25        26        31        63     9        0.000000        1.300806         3    ;  uncertainty k = 0.409955
        25        26        31        63     9      180.000000        1.640925         4    ;  uncertainty k = 0.190721
        26        25        24        61     9        0.000000        0.175558         1    ;  uncertainty k = 0.194208
        26        25        24        61     9      180.000000        8.463922         2    ;  uncertainty k = 0.413469
        26        25        24        61     9        0.000000        1.526973         3    ;  uncertainty k = 0.227749
        26        25        24        61     9      180.000000        1.855719         4    ;  uncertainty k = 0.242609
        26        31        32        33     9        0.000000       -0.052406         1    ;  uncertainty k = 0.525900
        26        31        32        33     9      180.000000       10.535436         2    ;  uncertainty k = 0.438629
        26        31        32        33     9        0.000000        1.345860         3    ;  uncertainty k = 0.153632
        26        31        32        33     9      180.000000        1.746174         4    ;  uncertainty k = 0.503262
        27        26        25        62     9        0.000000       -0.108565         1    ;  uncertainty k = 0.468395
        27        26        25        62     9      180.000000        8.611636         2    ;  uncertainty k = 0.510213
        27        26        25        62     9        0.000000        0.670475         3    ;  uncertainty k = 0.276177
        27        26        25        62     9      180.000000        1.004020         4    ;  uncertainty k = 0.160387
        27        26        31        32     9        0.000000        0.184112         1    ;  uncertainty k = 0.430340
        27        26        31        32     9      180.000000       10.236153         2    ;  uncertainty k = 0.564348
        27        26        31        32     9        0.000000        1.596329         3    ;  uncertainty k = 0.294702
        27        26        31        32     9      180.000000        1.951289         4    ;  uncertainty k = 0.285583
        27        26        31        63     9        0.000000        0.104725         1    ;  uncertainty k = 0.367020
        27        26        31        63     9      180.000000        8.817675         2    ;  uncertainty k = 0.477946
        27        26        31        63     9        0.000000        0.711158         3    ;  uncertainty k = 0.170461
        27        26        31        63     9      180.000000        1.070202         4    ;  uncertainty k = 0.164772
        28        27        26        31     9        0.000000       -0.574436         1    ;  uncertainty k = 0.288117
        28        27        26        31     9      180.000000        2.562507         2    ;  uncertainty k = 0.201571
        28        27        26        31     9        0.000000        0.701170         3    ;  uncertainty k = 0.104983
        28        27        26        31     9      180.000000        0.155921         4    ;  uncertainty k = 0.065716
        29        27        26        31     9        0.000000       -0.574436         1    ;  uncertainty k = 0.288117
        29        27        26        31     9      180.000000        2.562507         2    ;  uncertainty k = 0.201571
        29        27        26        31     9        0.000000        0.701170         3    ;  uncertainty k = 0.104983
        29        27        26        31     9      180.000000        0.155921         4    ;  uncertainty k = 0.065716
        30        27        26        31     9        0.000000       -0.574436         1    ;  uncertainty k = 0.288117
        30        27        26        31     9      180.000000        2.562507         2    ;  uncertainty k = 0.201571
        30        27        26        31     9        0.000000        0.701170         3    ;  uncertainty k = 0.104983
        30        27        26        31     9      180.000000        0.155921         4    ;  uncertainty k = 0.065716
        31        26        25        62     9        0.000000        0.213861         1    ;  uncertainty k = 0.199738
        31        26        25        62     9      180.000000        7.175611         2    ;  uncertainty k = 0.543777
        31        26        25        62     9        0.000000        1.246727         3    ;  uncertainty k = 0.361361
        31        26        25        62     9      180.000000        1.612476         4    ;  uncertainty k = 0.317209
        31        32        33        34     9        0.000000        0.054932         1    ;  uncertainty k = 0.538480
        31        32        33        34     9      180.000000        1.515123         2    ;  uncertainty k = 0.655022
        31        32        33        34     9        0.000000       -0.286982         3    ;  uncertainty k = 0.358624
        31        32        33        34     9      180.000000        0.140251         4    ;  uncertainty k = 0.131041
        31        32        33        64     9        0.000000        0.534069         1    ;  uncertainty k = 0.956167
        31        32        33        64     9      180.000000        1.860059         2    ;  uncertainty k = 0.352981
        31        32        33        64     9        0.000000        0.077794         3    ;  uncertainty k = 0.149454
        31        32        33        64     9      180.000000        0.005635         4    ;  uncertainty k = 0.143229
        32        23        22        60     9        0.000000       11.680208         1    ;  uncertainty k = 0.714263
        32        23        22        60     9      180.000000        5.639670         2    ;  uncertainty k = 0.496850
        32        23        22        60     9        0.000000        0.337104         3    ;  uncertainty k = 0.311469
        32        23        22        60     9      180.000000        0.199068         4    ;  uncertainty k = 0.154313
        32        23        24        61     9        0.000000        0.270044         1    ;  uncertainty k = 0.888280
        32        23        24        61     9      180.000000        6.341357         2    ;  uncertainty k = 0.647732
        32        23        24        61     9        0.000000        1.346204         3    ;  uncertainty k = 0.254113
        32        23        24        61     9      180.000000        1.274156         4    ;  uncertainty k = 0.236801
        32        33        14        53     9        0.000000       -0.495261         1    ;  uncertainty k = 0.912546
        32        33        14        53     9      180.000000        0.758395         2    ;  uncertainty k = 0.524827
        32        33        14        53     9        0.000000       -0.006710         3    ;  uncertainty k = 0.120103
        32        33        14        53     9      180.000000       -0.064125         4    ;  uncertainty k = 0.105449
        33        14        13        51     9        0.000000       -0.375195         1    ;  uncertainty k = 0.393019
        33        14        13        51     9      180.000000       -0.656804         2    ;  uncertainty k = 0.132762
        33        14        13        51     9        0.000000        0.281687         3    ;  uncertainty k = 0.117472
        33        14        13        51     9      180.000000       -0.009049         4    ;  uncertainty k = 0.054184
        33        14        13        52     9        0.000000       -0.375195         1    ;  uncertainty k = 0.393019
        33        14        13        52     9      180.000000       -0.656804         2    ;  uncertainty k = 0.132762
        33        14        13        52     9        0.000000        0.281687         3    ;  uncertainty k = 0.117472
        33        14        13        52     9      180.000000       -0.009049         4    ;  uncertainty k = 0.054184
        33        14        15        54     9        0.000000        0.737393         1    ;  uncertainty k = 0.719924
        33        14        15        54     9      180.000000       -1.388404         2    ;  uncertainty k = 0.748969
        33        14        15        54     9        0.000000       -0.423795         3    ;  uncertainty k = 0.141733
        33        14        15        54     9      180.000000        0.029717         4    ;  uncertainty k = 0.147484
        33        32        31        63     9        0.000000       -0.276768         1    ;  uncertainty k = 0.530615
        33        32        31        63     9      180.000000        8.412443         2    ;  uncertainty k = 0.745642
        33        32        31        63     9        0.000000        0.824115         3    ;  uncertainty k = 0.310579
        33        32        31        63     9      180.000000        1.104340         4    ;  uncertainty k = 0.412601
        33        34        11        48     9        0.000000       -2.044440         1    ;  uncertainty k = 1.234649
        33        34        11        48     9      180.000000       -0.697383         2    ;  uncertainty k = 0.342745
        33        34        11        48     9        0.000000        0.132124         3    ;  uncertainty k = 0.089698
        33        34        11        48     9      180.000000       -0.062594         4    ;  uncertainty k = 0.129556
        34        11        10        46     9        0.000000        0.302731         1    ;  uncertainty k = 0.342032
        34        11        10        46     9      180.000000       -1.258480         2    ;  uncertainty k = 0.205285
        34        11        10        46     9        0.000000        0.321915         3    ;  uncertainty k = 0.147770
        34        11        10        46     9      180.000000       -0.043042         4    ;  uncertainty k = 0.100997
        34        11        10        47     9        0.000000        0.302731         1    ;  uncertainty k = 0.342032
        34        11        10        47     9      180.000000       -1.258480         2    ;  uncertainty k = 0.205285
        34        11        10        47     9        0.000000        0.321915         3    ;  uncertainty k = 0.147770
        34        11        10        47     9      180.000000       -0.043042         4    ;  uncertainty k = 0.100997
        34        11        12        49     9        0.000000       -1.259015         1    ;  uncertainty k = 0.343404
        34        11        12        49     9      180.000000       -1.050103         2    ;  uncertainty k = 0.093056
        34        11        12        49     9        0.000000        0.864692         3    ;  uncertainty k = 0.160740
        34        11        12        49     9      180.000000       -0.136904         4    ;  uncertainty k = 0.094857
        34        11        12        50     9        0.000000       -1.259015         1    ;  uncertainty k = 0.343404
        34        11        12        50     9      180.000000       -1.050103         2    ;  uncertainty k = 0.093056
        34        11        12        50     9        0.000000        0.864692         3    ;  uncertainty k = 0.160740
        34        11        12        50     9      180.000000       -0.136904         4    ;  uncertainty k = 0.094857
        34        33        14        53     9        0.000000       -0.645217         1    ;  uncertainty k = 0.299703
        34        33        14        53     9      180.000000        0.602671         2    ;  uncertainty k = 0.506006
        34        33        14        53     9        0.000000        0.085886         3    ;  uncertainty k = 0.296121
        34        33        14        53     9      180.000000       -0.145951         4    ;  uncertainty k = 0.127878
        41         4         5        43     9        0.000000        0.197116         1    ;  uncertainty k = 0.271973
        41         4         5        43     9      180.000000       -0.526097         2    ;  uncertainty k = 0.287214
        41         4         5        43     9        0.000000        0.214677         3    ;  uncertainty k = 0.064620
        41         4         5        43     9      180.000000        0.046194         4    ;  uncertainty k = 0.076757
        41         4         5        44     9        0.000000        0.197116         1    ;  uncertainty k = 0.271973
        41         4         5        44     9      180.000000       -0.526097         2    ;  uncertainty k = 0.287214
        41         4         5        44     9        0.000000        0.214677         3    ;  uncertainty k = 0.064620
        41         4         5        44     9      180.000000        0.046194         4    ;  uncertainty k = 0.076757
        42         4         5        43     9        0.000000        0.197116         1    ;  uncertainty k = 0.271973
        42         4         5        43     9      180.000000       -0.526097         2    ;  uncertainty k = 0.287214
        42         4         5        43     9        0.000000        0.214677         3    ;  uncertainty k = 0.064620
        42         4         5        43     9      180.000000        0.046194         4    ;  uncertainty k = 0.076757
        42         4         5        44     9        0.000000        0.197116         1    ;  uncertainty k = 0.271973
        42         4         5        44     9      180.000000       -0.526097         2    ;  uncertainty k = 0.287214
        42         4         5        44     9        0.000000        0.214677         3    ;  uncertainty k = 0.064620
        42         4         5        44     9      180.000000        0.046194         4    ;  uncertainty k = 0.076757
        45         9        10        46     9        0.000000        0.727777         1    ;  uncertainty k = 0.370553
        45         9        10        46     9      180.000000       -1.003531         2    ;  uncertainty k = 0.192276
        45         9        10        46     9        0.000000        0.300184         3    ;  uncertainty k = 0.076960
        45         9        10        46     9      180.000000        0.169725         4    ;  uncertainty k = 0.045450
        45         9        10        47     9        0.000000        0.727777         1    ;  uncertainty k = 0.370553
        45         9        10        47     9      180.000000       -1.003531         2    ;  uncertainty k = 0.192276
        45         9        10        47     9        0.000000        0.300184         3    ;  uncertainty k = 0.076960
        45         9        10        47     9      180.000000        0.169725         4    ;  uncertainty k = 0.045450
        46        10        11        48     9        0.000000        0.058203         1    ;  uncertainty k = 0.214839
        46        10        11        48     9      180.000000       -0.158805         2    ;  uncertainty k = 0.218350
        46        10        11        48     9        0.000000        0.076958         3    ;  uncertainty k = 0.050799
        46        10        11        48     9      180.000000       -0.073923         4    ;  uncertainty k = 0.089097
        47        10        11        48     9        0.000000        0.058203         1    ;  uncertainty k = 0.214839
        47        10        11        48     9      180.000000       -0.158805         2    ;  uncertainty k = 0.218350
        47        10        11        48     9        0.000000        0.076958         3    ;  uncertainty k = 0.050799
        47        10        11        48     9      180.000000       -0.073923         4    ;  uncertainty k = 0.089097
        48        11        12        49     9        0.000000        0.254135         1    ;  uncertainty k = 0.260233
        48        11        12        49     9      180.000000        0.170798         2    ;  uncertainty k = 0.392553
        48        11        12        49     9        0.000000       -0.048010         3    ;  uncertainty k = 0.080561
        48        11        12        49     9      180.000000       -0.202000         4    ;  uncertainty k = 0.104531
        48        11        12        50     9        0.000000        0.254135         1    ;  uncertainty k = 0.260233
        48        11        12        50     9      180.000000        0.170798         2    ;  uncertainty k = 0.392553
        48        11        12        50     9        0.000000       -0.048010         3    ;  uncertainty k = 0.080561
        48        11        12        50     9      180.000000       -0.202000         4    ;  uncertainty k = 0.104531
        49        12        13        51     9        0.000000        1.668534         1    ;  uncertainty k = 0.432976
        49        12        13        51     9      180.000000        0.114741         2    ;  uncertainty k = 0.247989
        49        12        13        51     9        0.000000        0.345276         3    ;  uncertainty k = 0.102093
        49        12        13        51     9      180.000000        0.074717         4    ;  uncertainty k = 0.026488
        49        12        13        52     9        0.000000        1.668534         1    ;  uncertainty k = 0.432976
        49        12        13        52     9      180.000000        0.114741         2    ;  uncertainty k = 0.247989
        49        12        13        52     9        0.000000        0.345276         3    ;  uncertainty k = 0.102093
        49        12        13        52     9      180.000000        0.074717         4    ;  uncertainty k = 0.026488
        50        12        13        51     9        0.000000        1.668534         1    ;  uncertainty k = 0.432976
        50        12        13        51     9      180.000000        0.114741         2    ;  uncertainty k = 0.247989
        50        12        13        51     9        0.000000        0.345276         3    ;  uncertainty k = 0.102093
        50        12        13        51     9      180.000000        0.074717         4    ;  uncertainty k = 0.026488
        50        12        13        52     9        0.000000        1.668534         1    ;  uncertainty k = 0.432976
        50        12        13        52     9      180.000000        0.114741         2    ;  uncertainty k = 0.247989
        50        12        13        52     9        0.000000        0.345276         3    ;  uncertainty k = 0.102093
        50        12        13        52     9      180.000000        0.074717         4    ;  uncertainty k = 0.026488
        51        13        14        53     9        0.000000        1.545254         1    ;  uncertainty k = 0.344376
        51        13        14        53     9      180.000000       -0.020690         2    ;  uncertainty k = 0.342602
        51        13        14        53     9        0.000000       -0.070632         3    ;  uncertainty k = 0.119714
        51        13        14        53     9      180.000000        0.013810         4    ;  uncertainty k = 0.071778
        52        13        14        53     9        0.000000        1.545254         1    ;  uncertainty k = 0.344376
        52        13        14        53     9      180.000000       -0.020690         2    ;  uncertainty k = 0.342602
        52        13        14        53     9        0.000000       -0.070632         3    ;  uncertainty k = 0.119714
        52        13        14        53     9      180.000000        0.013810         4    ;  uncertainty k = 0.071778
        53        14        15        54     9        0.000000        1.077534         1    ;  uncertainty k = 0.458222
        53        14        15        54     9      180.000000       -0.042492         2    ;  uncertainty k = 0.250347
        53        14        15        54     9        0.000000       -0.346965         3    ;  uncertainty k = 0.176981
        53        14        15        54     9      180.000000       -0.270511         4    ;  uncertainty k = 0.102482
        53        14        33        64     9        0.000000        2.052517         1    ;  uncertainty k = 0.492057
        53        14        33        64     9      180.000000        0.874633         2    ;  uncertainty k = 0.464315
        53        14        33        64     9        0.000000       -0.485357         3    ;  uncertainty k = 0.218178
        53        14        33        64     9      180.000000       -0.175318         4    ;  uncertainty k = 0.074235
        54        15        22        60     9        0.000000        0.468543         1    ;  uncertainty k = 0.563666
        54        15        22        60     9      180.000000       -0.983994         2    ;  uncertainty k = 0.285945
        54        15        22        60     9        0.000000        0.482175         3    ;  uncertainty k = 0.277172
        54        15        22        60     9      180.000000        0.028441         4    ;  uncertainty k = 0.127509
        55        17        18        56     9        0.000000       -0.038401         1    ;  uncertainty k = 0.034127
        55        17        18        56     9      180.000000        7.644154         2    ;  uncertainty k = 0.255448
        55        17        18        56     9        0.000000       -0.470075         3    ;  uncertainty k = 0.270053
        55        17        18        56     9      180.000000        0.106023         4    ;  uncertainty k = 0.117776
        56        18        19        57     9        0.000000       -0.016279         1    ;  uncertainty k = 0.090335
        56        18        19        57     9      180.000000        7.510681         2    ;  uncertainty k = 0.369437
        56        18        19        57     9        0.000000       -0.422665         3    ;  uncertainty k = 0.276612
        56        18        19        57     9      180.000000        0.041075         4    ;  uncertainty k = 0.155578
        57        19        20        58     9        0.000000       -0.016279         1    ;  uncertainty k = 0.090335
        57        19        20        58     9      180.000000        7.510681         2    ;  uncertainty k = 0.369437
        57        19        20        58     9        0.000000       -0.422665         3    ;  uncertainty k = 0.276612
        57        19        20        58     9      180.000000        0.041075         4    ;  uncertainty k = 0.155578
        58        20        21        59     9        0.000000       -0.038401         1    ;  uncertainty k = 0.034127
        58        20        21        59     9      180.000000        7.644155         2    ;  uncertainty k = 0.255448
        58        20        21        59     9        0.000000       -0.470075         3    ;  uncertainty k = 0.270053
        58        20        21        59     9      180.000000        0.106023         4    ;  uncertainty k = 0.117776
        61        24        25        62     9        0.000000        0.247011         1    ;  uncertainty k = 0.623700
        61        24        25        62     9      180.000000        7.829038         2    ;  uncertainty k = 0.394733
        61        24        25        62     9        0.000000       -0.335446         3    ;  uncertainty k = 0.271687
        61        24        25        62     9      180.000000        0.202602         4    ;  uncertainty k = 0.180743

[ dihedrals ] ; impropers
;       ai        aj        ak        al funct           phase               k        pn
         7         6         8         9     4      180.000000       60.248159         2    ;  uncertainty k = 0.032604
         7         8         9         6     4      180.000000       60.248159         2    ;  uncertainty k = 0.032604
         7         9         6         8     4      180.000000       60.248159         2    ;  uncertainty k = 0.032604
        16        15        17        21     4      180.000000       12.903618         2    ;  uncertainty k = 0.121798
        16        17        21        15     4      180.000000       12.903618         2    ;  uncertainty k = 0.121798
        16        21        15        17     4      180.000000       12.903618         2    ;  uncertainty k = 0.121798
        17        16        18        55     4      180.000000        4.073200         2    ;  uncertainty k = 0.089532
        17        18        55        16     4      180.000000        4.073200         2    ;  uncertainty k = 0.089532
        17        55        16        18     4      180.000000        4.073200         2    ;  uncertainty k = 0.089532
        18        17        19        56     4      180.000000        4.075586         2    ;  uncertainty k = 0.076309
        18        19        56        17     4      180.000000        4.075586         2    ;  uncertainty k = 0.076309
        18        56        17        19     4      180.000000        4.075586         2    ;  uncertainty k = 0.076309
        19        18        20        57     4      180.000000        4.286751         2    ;  uncertainty k = 0.163795
        19        20        57        18     4      180.000000        4.286751         2    ;  uncertainty k = 0.163795
        19        57        18        20     4      180.000000        4.286751         2    ;  uncertainty k = 0.163795
        20        19        21        58     4      180.000000        4.075586         2    ;  uncertainty k = 0.076309
        20        21        58        19     4      180.000000        4.075586         2    ;  uncertainty k = 0.076309
        20        58        19        21     4      180.000000        4.075586         2    ;  uncertainty k = 0.076309
        21        16        20        59     4      180.000000        4.073200         2    ;  uncertainty k = 0.089533
        21        20        59        16     4      180.000000        4.073200         2    ;  uncertainty k = 0.089533
        21        59        16        20     4      180.000000        4.073200         2    ;  uncertainty k = 0.089533
        23        22        24        32     4      180.000000       21.979192         2    ;  uncertainty k = 0.135021
        23        24        32        22     4      180.000000       21.979192         2    ;  uncertainty k = 0.135021
        23        32        22        24     4      180.000000       21.979192         2    ;  uncertainty k = 0.135021
        24        23        25        61     4      180.000000        1.846540         2    ;  uncertainty k = 0.425684
        24        25        61        23     4      180.000000        1.846540         2    ;  uncertainty k = 0.425684
        24        61        23        25     4      180.000000        1.846540         2    ;  uncertainty k = 0.425684
        25        24        26        62     4      180.000000        4.856163         2    ;  uncertainty k = 0.148465
        25        26        62        24     4      180.000000        4.856163         2    ;  uncertainty k = 0.148465
        25        62        24        26     4      180.000000        4.856163         2    ;  uncertainty k = 0.148465
        26        25        27        31     4      180.000000        6.209822         2    ;  uncertainty k = 0.262053
        26        27        31        25     4      180.000000        6.209822         2    ;  uncertainty k = 0.262053
        26        31        25        27     4      180.000000        6.209822         2    ;  uncertainty k = 0.262053
        31        26        32        63     4      180.000000        4.574180         2    ;  uncertainty k = 0.267402
        31        32        63        26     4      180.000000        4.574180         2    ;  uncertainty k = 0.267402
        31        63        26        32     4      180.000000        4.574180         2    ;  uncertainty k = 0.267402
        32        23        31        33     4      180.000000       10.550445         2    ;  uncertainty k = 0.189412
        32        31        33        23     4      180.000000       10.550445         2    ;  uncertainty k = 0.189412
        32        33        23        31     4      180.000000       10.550445         2    ;  uncertainty k = 0.189412

[ pairs ]
;       ai        aj funct
         1         5     1
         1        38     1
         1        39     1
         1        40     1
         1        41     1
         1        42     1
         2         6     1
         2        43     1
         2        44     1
         3         5     1
         3        35     1
         3        36     1
         3        37     1
         3        41     1
         3        42     1
         4         7     1
         4        35     1
         4        36     1
         4        37     1
         4        38     1
         4        39     1
         4        40     1
         5         8     1
         5         9     1
         6        10     1
         6        41     1
         6        42     1
         6        45     1
         7        11     1
         7        43     1
         7        44     1
         7        46     1
         7        47     1
         8        10     1
         8        45     1
         9        12     1
         9        34     1
         9        48     1
        10        13     1
        10        33     1
        10        49     1
        10        50     1
        11        14     1
        11        32     1
        11        45     1
        11        51     1
        11        52     1
        11        64     1
        12        15     1
        12        33     1
        12        46     1
        12        47     1
        12        53     1
        13        16     1
        13        22     1
        13        32     1
        13        34     1
        13        48     1
        13        54     1
        13        64     1
        14        17     1
        14        21     1
        14        23     1
        14        31     1
        14        49     1
        14        50     1
        14        60     1
        15        18     1
        15        20     1
        15        24     1
        15        32     1
        15        34     1
        15        51     1
        15        52     1
        15        55     1
        15        59     1
        15        64     1
        16        19     1
        16        23     1
        16        33     1
        16        53     1
        16        56     1
        16        58     1
        16        60     1
        17        20     1
        17        22     1
        17        54     1
        17        57     1
        17        59     1
        18        21     1
        18        58     1
        19        55     1
        19        59     1
        20        56     1
        21        22     1
        21        54     1
        21        55     1
        21        57     1
        22        25     1
        22        31     1
        22        33     1
        22        53     1
        22        61     1
        23        26     1
        23        34     1
        23        54     1
        23        62     1
        23        63     1
        23        64     1
        24        27     1
        24        31     1
        24        33     1
        24        60     1
        25        28     1
        25        29     1
        25        30     1
        25        32     1
        25        63     1
        26        33     1
        26        61     1
        27        32     1
        27        62     1
        27        63     1
        28        31     1
        29        31     1
        30        31     1
        31        34     1
        31        62     1
        31        64     1
        32        53     1
        32        60     1
        32        61     1
        33        48     1
        33        51     1
        33        52     1
        33        54     1
        33        63     1
        34        46     1
        34        47     1
        34        49     1
        34        50     1
        34        53     1
        41        43     1
        41        44     1
        42        43     1
        42        44     1
        45        46     1
        45        47     1
        46        48     1
        47        48     1
        48        49     1
        48        50     1
        49        51     1
        49        52     1
        50        51     1
        50        52     1
        51        53     1
        52        53     1
        53        54     1
        53        64     1
        54        60     1
        55        56     1
        56        57     1
        57        58     1
        58        59     1
        61        62     1
