; ITP file created by ByteFF-joint-25, 2026-02-17 09:15:43.845458

[ atomtypes ]
;name           bonded.type        at.num        mass        charge   ptype           sigma         epsilon
 o0bf                                   8      0.0000       0.00000       A     3.24286e-01     3.88115e-01    ;  uncertainty sigma = 0.000033, epsilon = 0.001450
 c1bf                                   6      0.0000       0.00000       A     3.39775e-01     4.50844e-01    ;  uncertainty sigma = 0.000017, epsilon = 0.000316
 c2bf                                   6      0.0000       0.00000       A     3.39766e-01     4.50802e-01    ;  uncertainty sigma = 0.000009, epsilon = 0.001551
 n3bf                                   7      0.0000       0.00000       A     3.50760e-01     2.17787e-01    ;  uncertainty sigma = 0.000072, epsilon = 0.001199
 c4bf                                   6      0.0000       0.00000       A     3.39749e-01     4.50332e-01    ;  uncertainty sigma = 0.000005, epsilon = 0.001282
 c5bf                                   6      0.0000       0.00000       A     3.39765e-01     4.51082e-01    ;  uncertainty sigma = 0.000008, epsilon = 0.001148
 c6bf                                   6      0.0000       0.00000       A     3.39788e-01     4.50768e-01    ;  uncertainty sigma = 0.000008, epsilon = 0.000726
 c7bf                                   6      0.0000       0.00000       A     3.39750e-01     4.51142e-01    ;  uncertainty sigma = 0.000011, epsilon = 0.000651
 c8bf                                   6      0.0000       0.00000       A     3.39755e-01     4.50973e-01    ;  uncertainty sigma = 0.000035, epsilon = 0.000615
 c9bf                                   6      0.0000       0.00000       A     3.39771e-01     4.51627e-01    ;  uncertainty sigma = 0.000010, epsilon = 0.001353
 c10bf                                  6      0.0000       0.00000       A     3.31532e-01     4.13295e-01    ;  uncertainty sigma = 0.000012, epsilon = 0.000849
 c11bf                                  6      0.0000       0.00000       A     3.31519e-01     4.13329e-01    ;  uncertainty sigma = 0.000002, epsilon = 0.000632
 c12bf                                  6      0.0000       0.00000       A     3.31520e-01     4.13328e-01    ;  uncertainty sigma = 0.000003, epsilon = 0.000582
 c13bf                                  6      0.0000       0.00000       A     3.31518e-01     4.13340e-01    ;  uncertainty sigma = 0.000003, epsilon = 0.000580
 c14bf                                  6      0.0000       0.00000       A     3.31520e-01     4.13328e-01    ;  uncertainty sigma = 0.000003, epsilon = 0.000582
 c15bf                                  6      0.0000       0.00000       A     3.31519e-01     4.13329e-01    ;  uncertainty sigma = 0.000002, epsilon = 0.000632
 n16bf                                  7      0.0000       0.00000       A     3.27940e-01     6.43754e-01    ;  uncertainty sigma = 0.000013, epsilon = 0.005170
 c17bf                                  6      0.0000       0.00000       A     3.31564e-01     4.13427e-01    ;  uncertainty sigma = 0.000018, epsilon = 0.001467
 c18bf                                  6      0.0000       0.00000       A     3.31515e-01     4.13089e-01    ;  uncertainty sigma = 0.000013, epsilon = 0.000496
 f19bf                                  9      0.0000       0.00000       A     3.03374e-01     3.48547e-01    ;  uncertainty sigma = 0.000029, epsilon = 0.000925
 c20bf                                  6      0.0000       0.00000       A     3.31515e-01     4.13185e-01    ;  uncertainty sigma = 0.000010, epsilon = 0.000733
 c21bf                                  6      0.0000       0.00000       A     3.31522e-01     4.13139e-01    ;  uncertainty sigma = 0.000006, epsilon = 0.000720
 cl22bf                                17      0.0000       0.00000       A     3.46583e-01     1.10403e+00    ;  uncertainty sigma = 0.000016, epsilon = 0.000818
 c23bf                                  6      0.0000       0.00000       A     3.31511e-01     4.13387e-01    ;  uncertainty sigma = 0.000005, epsilon = 0.000809
 c24bf                                  6      0.0000       0.00000       A     3.31543e-01     4.13629e-01    ;  uncertainty sigma = 0.000015, epsilon = 0.000598
 c25bf                                  6      0.0000       0.00000       A     3.39757e-01     4.50771e-01    ;  uncertainty sigma = 0.000019, epsilon = 0.001629
 o26bf                                  8      0.0000       0.00000       A     3.15653e-01     3.03500e-01    ;  uncertainty sigma = 0.000034, epsilon = 0.001279
 h27bf                                  1      0.0000       0.00000       A     5.37995e-02     1.93817e-02    ;  uncertainty sigma = 0.000100, epsilon = 0.001338
 h28bf                                  1      0.0000       0.00000       A     2.42157e-01     8.62748e-02    ;  uncertainty sigma = 0.000029, epsilon = 0.000736
 h29bf                                  1      0.0000       0.00000       A     2.42157e-01     8.62748e-02    ;  uncertainty sigma = 0.000029, epsilon = 0.000736
 h30bf                                  1      0.0000       0.00000       A     2.42188e-01     8.63187e-02    ;  uncertainty sigma = 0.000037, epsilon = 0.000733
 h31bf                                  1      0.0000       0.00000       A     2.42188e-01     8.63187e-02    ;  uncertainty sigma = 0.000037, epsilon = 0.000733
 h32bf                                  1      0.0000       0.00000       A     2.42207e-01     8.65405e-02    ;  uncertainty sigma = 0.000009, epsilon = 0.000413
 h33bf                                  1      0.0000       0.00000       A     2.42207e-01     8.65405e-02    ;  uncertainty sigma = 0.000009, epsilon = 0.000413
 h34bf                                  1      0.0000       0.00000       A     2.42212e-01     8.72057e-02    ;  uncertainty sigma = 0.000050, epsilon = 0.001067
 h35bf                                  1      0.0000       0.00000       A     2.60026e-01     8.66992e-02    ;  uncertainty sigma = 0.000012, epsilon = 0.000651
 h36bf                                  1      0.0000       0.00000       A     2.60026e-01     8.66992e-02    ;  uncertainty sigma = 0.000012, epsilon = 0.000651
 h37bf                                  1      0.0000       0.00000       A     2.60028e-01     8.66832e-02    ;  uncertainty sigma = 0.000010, epsilon = 0.000720
 h38bf                                  1      0.0000       0.00000       A     2.60028e-01     8.66832e-02    ;  uncertainty sigma = 0.000010, epsilon = 0.000720
 h39bf                                  1      0.0000       0.00000       A     2.59938e-01     8.64077e-02    ;  uncertainty sigma = 0.000052, epsilon = 0.000980
 h40bf                                  1      0.0000       0.00000       A     2.42303e-01     8.69597e-02    ;  uncertainty sigma = 0.000074, epsilon = 0.001557
 h41bf                                  1      0.0000       0.00000       A     2.62560e-01     6.70315e-02    ;  uncertainty sigma = 0.000006, epsilon = 0.000529
 h42bf                                  1      0.0000       0.00000       A     2.62559e-01     6.70249e-02    ;  uncertainty sigma = 0.000010, epsilon = 0.000440
 h43bf                                  1      0.0000       0.00000       A     2.62552e-01     6.70647e-02    ;  uncertainty sigma = 0.000011, epsilon = 0.000453
 h44bf                                  1      0.0000       0.00000       A     2.62559e-01     6.70249e-02    ;  uncertainty sigma = 0.000010, epsilon = 0.000440
 h45bf                                  1      0.0000       0.00000       A     2.62560e-01     6.70315e-02    ;  uncertainty sigma = 0.000006, epsilon = 0.000529
 h46bf                                  1      0.0000       0.00000       A     1.10680e-01     4.07052e-02    ;  uncertainty sigma = 0.000120, epsilon = 0.001586
 h47bf                                  1      0.0000       0.00000       A     2.62565e-01     6.72303e-02    ;  uncertainty sigma = 0.000016, epsilon = 0.000519
 h48bf                                  1      0.0000       0.00000       A     2.62544e-01     6.69723e-02    ;  uncertainty sigma = 0.000010, epsilon = 0.000546
 h49bf                                  1      0.0000       0.00000       A     2.42239e-01     8.76588e-02    ;  uncertainty sigma = 0.000274, epsilon = 0.002166
 h50bf                                  1      0.0000       0.00000       A     1.10645e-01     4.17773e-02    ;  uncertainty sigma = 0.000076, epsilon = 0.000717

[ moleculetype ]
;name             nrexcl
 MOL                   3

[ atoms ]
;       nr            type      resi   res      atom      cgnr      charge          mass ; qtot
         1            o0bf         1   UNL        o0         1    -0.60416       15.9990 ; qtot   -0.604
         2            c1bf         1   UNL        c1         2     0.12042       12.0110 ; qtot   -0.484
         3            c2bf         1   UNL        c2         3     0.13360       12.0110 ; qtot   -0.350
         4            n3bf         1   UNL        n3         4    -0.81927       14.0070 ; qtot   -1.169
         5            c4bf         1   UNL        c4         5     0.15628       12.0110 ; qtot   -1.013
         6            c5bf         1   UNL        c5         6     0.13006       12.0110 ; qtot   -0.883
         7            c6bf         1   UNL        c6         7    -0.10344       12.0110 ; qtot   -0.987
         8            c7bf         1   UNL        c7         8    -0.06725       12.0110 ; qtot   -1.054
         9            c8bf         1   UNL        c8         9    -0.09438       12.0110 ; qtot   -1.148
        10            c9bf         1   UNL        c9        10     0.26381       12.0110 ; qtot   -0.884
        11           c10bf         1   UNL       c10        11    -0.10622       12.0110 ; qtot   -0.991
        12           c11bf         1   UNL       c11        12    -0.11888       12.0110 ; qtot   -1.109
        13           c12bf         1   UNL       c12        13    -0.13078       12.0110 ; qtot   -1.240
        14           c13bf         1   UNL       c13        14    -0.12452       12.0110 ; qtot   -1.365
        15           c14bf         1   UNL       c14        15    -0.13078       12.0110 ; qtot   -1.496
        16           c15bf         1   UNL       c15        16    -0.11888       12.0110 ; qtot   -1.614
        17           n16bf         1   UNL       n16        17    -0.73407       14.0070 ; qtot   -2.348
        18           c17bf         1   UNL       c17        18     0.14601       12.0110 ; qtot   -2.202
        19           c18bf         1   UNL       c18        19     0.06991       12.0110 ; qtot   -2.133
        20           f19bf         1   UNL       f19        20    -0.14884       18.9980 ; qtot   -2.281
        21           c20bf         1   UNL       c20        21    -0.10975       12.0110 ; qtot   -2.391
        22           c21bf         1   UNL       c21        22     0.01757       12.0110 ; qtot   -2.374
        23          cl22bf         1   UNL      cl22        23    -0.10370       35.4530 ; qtot   -2.477
        24           c23bf         1   UNL       c23        24    -0.07225       12.0110 ; qtot   -2.550
        25           c24bf         1   UNL       c24        25    -0.12863       12.0110 ; qtot   -2.678
        26           c25bf         1   UNL       c25        26     0.19977       12.0110 ; qtot   -2.478
        27           o26bf         1   UNL       o26        27    -0.41810       15.9990 ; qtot   -2.896
        28           h27bf         1   UNL       h27        28     0.40733        1.0080 ; qtot   -2.489
        29           h28bf         1   UNL       h28        29     0.03976        1.0080 ; qtot   -2.449
        30           h29bf         1   UNL       h29        30     0.03976        1.0080 ; qtot   -2.410
        31           h30bf         1   UNL       h30        31     0.04670        1.0080 ; qtot   -2.363
        32           h31bf         1   UNL       h31        32     0.04670        1.0080 ; qtot   -2.316
        33           h32bf         1   UNL       h32        33     0.04622        1.0080 ; qtot   -2.270
        34           h33bf         1   UNL       h33        34     0.04622        1.0080 ; qtot   -2.224
        35           h34bf         1   UNL       h34        35     0.05077        1.0080 ; qtot   -2.173
        36           h35bf         1   UNL       h35        36     0.05461        1.0080 ; qtot   -2.118
        37           h36bf         1   UNL       h36        37     0.05461        1.0080 ; qtot   -2.064
        38           h37bf         1   UNL       h37        38     0.04984        1.0080 ; qtot   -2.014
        39           h38bf         1   UNL       h38        39     0.04984        1.0080 ; qtot   -1.964
        40           h39bf         1   UNL       h39        40     0.06904        1.0080 ; qtot   -1.895
        41           h40bf         1   UNL       h40        41     0.05551        1.0080 ; qtot   -1.840
        42           h41bf         1   UNL       h41        42     0.13512        1.0080 ; qtot   -1.704
        43           h42bf         1   UNL       h42        43     0.13172        1.0080 ; qtot   -1.573
        44           h43bf         1   UNL       h43        44     0.13373        1.0080 ; qtot   -1.439
        45           h44bf         1   UNL       h44        45     0.13172        1.0080 ; qtot   -1.307
        46           h45bf         1   UNL       h45        46     0.13512        1.0080 ; qtot   -1.172
        47           h46bf         1   UNL       h46        47     0.42097        1.0080 ; qtot   -0.751
        48           h47bf         1   UNL       h47        48     0.17051        1.0080 ; qtot   -0.581
        49           h48bf         1   UNL       h48        49     0.15635        1.0080 ; qtot   -0.424
        50           h49bf         1   UNL       h49        50     0.06068        1.0080 ; qtot   -0.364
        51           h50bf         1   UNL       h50        51     0.36364        1.0080 ; qtot   -0.000

[ bonds ]
;       ai        aj funct               r               k
         1         2     1        0.142347   259623.201221    ;  uncertainty r = 0.000063, k = 3.177180
         1        28     1        0.096987   461227.417871    ;  uncertainty r = 0.000039, k = 3.206512
         2         3     1        0.152752   212554.580225    ;  uncertainty r = 0.000056, k = 3.287690
         2        29     1        0.109888   306860.341602    ;  uncertainty r = 0.000043, k = 1.359883
         2        30     1        0.109888   306860.341602    ;  uncertainty r = 0.000043, k = 1.359883
         3         4     1        0.145026   233947.885010    ;  uncertainty r = 0.000126, k = 7.710263
         3        31     1        0.109930   304178.562061    ;  uncertainty r = 0.000044, k = 1.791835
         3        32     1        0.109930   304178.562061    ;  uncertainty r = 0.000044, k = 1.791835
         4         5     1        0.145252   243279.527832    ;  uncertainty r = 0.000218, k = 3.758770
         4        51     1        0.101548   408589.000098    ;  uncertainty r = 0.000032, k = 2.346079
         5         6     1        0.152629   208092.059741    ;  uncertainty r = 0.000071, k = 9.390884
         5        33     1        0.109941   304730.087012    ;  uncertainty r = 0.000023, k = 2.384672
         5        34     1        0.109941   304730.087012    ;  uncertainty r = 0.000023, k = 2.384672
         6         7     1        0.152858   205584.800806    ;  uncertainty r = 0.000047, k = 7.932008
         6        27     1        0.142950   233346.945752    ;  uncertainty r = 0.000160, k = 10.823992
         6        35     1        0.110098   304880.321826    ;  uncertainty r = 0.000060, k = 3.011578
         7         8     1        0.153377   213759.293359    ;  uncertainty r = 0.000058, k = 3.220313
         7        36     1        0.109674   309921.040771    ;  uncertainty r = 0.000019, k = 0.774048
         7        37     1        0.109674   309921.040771    ;  uncertainty r = 0.000019, k = 0.774048
         8         9     1        0.153242   204627.159204    ;  uncertainty r = 0.000107, k = 8.446566
         8        38     1        0.109603   307691.268066    ;  uncertainty r = 0.000022, k = 1.054600
         8        39     1        0.109603   307691.268066    ;  uncertainty r = 0.000022, k = 1.054600
         9        10     1        0.153800   193320.744482    ;  uncertainty r = 0.000040, k = 8.694137
         9        26     1        0.153393   193890.937061    ;  uncertainty r = 0.000149, k = 10.420451
         9        40     1        0.109712   307584.676172    ;  uncertainty r = 0.000061, k = 3.997510
        10        11     1        0.151694   221715.430859    ;  uncertainty r = 0.000083, k = 6.119466
        10        17     1        0.146412   245465.095801    ;  uncertainty r = 0.000056, k = 13.015808
        10        41     1        0.110029   298346.729004    ;  uncertainty r = 0.000122, k = 4.232409
        11        12     1        0.139859   350947.632764    ;  uncertainty r = 0.000040, k = 0.862444
        11        16     1        0.139859   350947.632764    ;  uncertainty r = 0.000040, k = 0.862444
        12        13     1        0.139620   365997.698340    ;  uncertainty r = 0.000023, k = 1.204462
        12        42     1        0.108883   334327.852148    ;  uncertainty r = 0.000023, k = 0.510237
        13        14     1        0.139607   371240.977637    ;  uncertainty r = 0.000016, k = 0.703160
        13        43     1        0.108851   333986.906201    ;  uncertainty r = 0.000010, k = 1.017361
        14        15     1        0.139607   371240.977637    ;  uncertainty r = 0.000016, k = 0.703160
        14        44     1        0.108841   334518.920801    ;  uncertainty r = 0.000012, k = 0.635600
        15        16     1        0.139620   365997.698340    ;  uncertainty r = 0.000023, k = 1.204462
        15        45     1        0.108851   333986.906201    ;  uncertainty r = 0.000010, k = 1.017361
        16        46     1        0.108883   334327.852148    ;  uncertainty r = 0.000023, k = 0.510237
        17        18     1        0.138781   338551.945410    ;  uncertainty r = 0.000200, k = 8.492276
        17        47     1        0.101386   413993.878223    ;  uncertainty r = 0.000059, k = 1.811270
        18        19     1        0.139996   355317.670605    ;  uncertainty r = 0.000065, k = 5.693936
        18        25     1        0.140477   349727.035547    ;  uncertainty r = 0.000152, k = 21.310479
        19        20     1        0.136333   330246.664551    ;  uncertainty r = 0.000064, k = 7.513059
        19        21     1        0.138317   358097.078516    ;  uncertainty r = 0.000050, k = 8.754662
        21        22     1        0.139579   367600.356250    ;  uncertainty r = 0.000069, k = 3.198203
        21        48     1        0.108676   338170.523145    ;  uncertainty r = 0.000012, k = 1.348235
        22        23     1        0.175567   199356.772266    ;  uncertainty r = 0.000041, k = 5.055074
        22        24     1        0.139340   355714.772656    ;  uncertainty r = 0.000060, k = 4.410570
        24        25     1        0.139306   354486.003564    ;  uncertainty r = 0.000122, k = 2.565189
        24        49     1        0.108732   336159.118262    ;  uncertainty r = 0.000039, k = 1.908305
        25        26     1        0.151022   220709.064453    ;  uncertainty r = 0.000135, k = 7.819348
        26        27     1        0.142976   228102.032080    ;  uncertainty r = 0.000170, k = 9.501353
        26        50     1        0.110055   305127.521045    ;  uncertainty r = 0.000103, k = 4.044593

[ angles ]
;       ai        aj        ak funct           theta             cth
         1         2         3     1      110.911682      777.406302    ;  uncertainty theta = 0.001192, k = 0.133547
         1         2        29     1      108.366859      474.913878    ;  uncertainty theta = 0.000974, k = 0.030848
         1         2        30     1      108.366859      474.913878    ;  uncertainty theta = 0.000974, k = 0.030848
         2         1        28     1      107.380142      452.968883    ;  uncertainty theta = 0.001656, k = 0.068807
         2         3         4     1      109.212906      609.099769    ;  uncertainty theta = 0.001252, k = 0.095369
         2         3        31     1      108.095619      409.984437    ;  uncertainty theta = 0.001445, k = 0.035820
         2         3        32     1      108.095619      409.984437    ;  uncertainty theta = 0.001445, k = 0.035820
         3         2        29     1      109.032227      407.539355    ;  uncertainty theta = 0.001401, k = 0.019036
         3         2        30     1      109.032227      407.539355    ;  uncertainty theta = 0.001401, k = 0.019036
         3         4         5     1      110.142296      474.917454    ;  uncertainty theta = 0.001447, k = 0.110040
         3         4        51     1      107.145569      410.596625    ;  uncertainty theta = 0.000872, k = 0.080127
         4         3        31     1      108.558449      437.741360    ;  uncertainty theta = 0.000893, k = 0.049728
         4         3        32     1      108.558449      437.741360    ;  uncertainty theta = 0.000893, k = 0.049728
         4         5         6     1      110.327065      577.403428    ;  uncertainty theta = 0.000693, k = 0.124782
         4         5        33     1      108.718216      442.485261    ;  uncertainty theta = 0.000733, k = 0.023950
         4         5        34     1      108.718216      442.485261    ;  uncertainty theta = 0.000733, k = 0.023950
         5         4        51     1      107.524216      409.904602    ;  uncertainty theta = 0.001726, k = 0.093138
         5         6         7     1      111.763046      561.581146    ;  uncertainty theta = 0.001109, k = 0.088911
         5         6        27     1      106.902664      574.656656    ;  uncertainty theta = 0.001393, k = 0.038196
         5         6        35     1      108.141037      398.405848    ;  uncertainty theta = 0.002322, k = 0.103144
         6         5        33     1      107.300491      400.959910    ;  uncertainty theta = 0.002642, k = 0.052394
         6         5        34     1      107.300491      400.959910    ;  uncertainty theta = 0.002642, k = 0.052394
         6         7         8     1      109.300919      593.448585    ;  uncertainty theta = 0.002719, k = 0.065164
         6         7        36     1      107.809006      382.495782    ;  uncertainty theta = 0.001424, k = 0.077776
         6         7        37     1      107.809006      382.495782    ;  uncertainty theta = 0.001424, k = 0.077776
         6        27        26     1      110.761635      505.999116    ;  uncertainty theta = 0.005706, k = 0.173346
         7         6        27     1      110.193344      682.949578    ;  uncertainty theta = 0.003178, k = 0.136563
         7         6        35     1      109.134903      400.334219    ;  uncertainty theta = 0.001291, k = 0.079929
         7         8         9     1      109.531601      575.016155    ;  uncertainty theta = 0.001887, k = 0.111836
         7         8        38     1      108.687294      404.607695    ;  uncertainty theta = 0.001709, k = 0.090417
         7         8        39     1      108.687294      404.607695    ;  uncertainty theta = 0.001709, k = 0.090417
         8         7        36     1      109.048744      398.454943    ;  uncertainty theta = 0.000871, k = 0.054277
         8         7        37     1      109.048744      398.454943    ;  uncertainty theta = 0.000871, k = 0.054277
         8         9        10     1      110.627304      548.421809    ;  uncertainty theta = 0.001519, k = 0.165951
         8         9        26     1      109.701134      585.109314    ;  uncertainty theta = 0.001426, k = 0.107424
         8         9        40     1      108.033615      400.292593    ;  uncertainty theta = 0.002769, k = 0.102571
         9         8        38     1      108.106873      388.738041    ;  uncertainty theta = 0.001573, k = 0.068099
         9         8        39     1      108.106873      388.738041    ;  uncertainty theta = 0.001573, k = 0.068099
         9        10        11     1      111.710739      536.791444    ;  uncertainty theta = 0.002579, k = 0.172522
         9        10        17     1      108.273865      704.451505    ;  uncertainty theta = 0.003996, k = 0.104661
         9        10        41     1      107.093971      386.028905    ;  uncertainty theta = 0.002703, k = 0.126280
         9        26        25     1      111.659340      555.230258    ;  uncertainty theta = 0.005536, k = 0.245979
         9        26        27     1      111.098976      662.246452    ;  uncertainty theta = 0.005408, k = 0.101033
         9        26        50     1      107.903770      393.711712    ;  uncertainty theta = 0.003909, k = 0.118329
        10         9        26     1      109.575706      551.307375    ;  uncertainty theta = 0.004366, k = 0.133181
        10         9        40     1      105.919556      390.293698    ;  uncertainty theta = 0.001590, k = 0.089845
        10        11        12     1      119.869118      424.511222    ;  uncertainty theta = 0.003274, k = 0.143273
        10        11        16     1      119.869118      424.511222    ;  uncertainty theta = 0.003274, k = 0.143273
        10        17        18     1      113.554550      394.395819    ;  uncertainty theta = 0.004923, k = 0.144162
        10        17        47     1      110.517822      342.921051    ;  uncertainty theta = 0.003889, k = 0.119522
        11        10        17     1      110.952232      663.025206    ;  uncertainty theta = 0.001005, k = 0.195907
        11        10        41     1      106.363998      410.332508    ;  uncertainty theta = 0.001972, k = 0.092032
        11        12        13     1      121.166641      520.322945    ;  uncertainty theta = 0.001889, k = 0.047519
        11        12        42     1      118.895851      266.730000    ;  uncertainty theta = 0.002264, k = 0.064094
        11        16        15     1      121.166641      520.322945    ;  uncertainty theta = 0.001889, k = 0.047519
        11        16        46     1      118.895851      266.730000    ;  uncertainty theta = 0.002264, k = 0.064094
        12        11        16     1      120.206970      460.017476    ;  uncertainty theta = 0.003029, k = 0.098153
        12        13        14     1      119.685776      513.267201    ;  uncertainty theta = 0.000971, k = 0.012607
        12        13        43     1      120.211227      283.897609    ;  uncertainty theta = 0.001315, k = 0.018226
        13        12        42     1      120.235497      292.477280    ;  uncertainty theta = 0.001696, k = 0.031107
        13        14        15     1      118.246803      526.555213    ;  uncertainty theta = 0.000903, k = 0.024014
        13        14        44     1      120.647278      289.320829    ;  uncertainty theta = 0.001403, k = 0.006566
        14        13        43     1      120.620949      287.638700    ;  uncertainty theta = 0.001444, k = 0.012507
        14        15        16     1      119.685776      513.267201    ;  uncertainty theta = 0.000971, k = 0.012607
        14        15        45     1      120.620949      287.638700    ;  uncertainty theta = 0.001444, k = 0.012507
        15        14        44     1      120.647278      289.320829    ;  uncertainty theta = 0.001403, k = 0.006566
        15        16        46     1      120.235497      292.477280    ;  uncertainty theta = 0.001696, k = 0.031107
        16        15        45     1      120.211227      283.897609    ;  uncertainty theta = 0.001315, k = 0.018226
        17        10        41     1      107.718811      454.950307    ;  uncertainty theta = 0.004217, k = 0.106072
        17        18        19     1      121.010925      490.434631    ;  uncertainty theta = 0.004737, k = 0.299349
        17        18        25     1      123.090271      487.003593    ;  uncertainty theta = 0.010770, k = 0.290863
        18        17        47     1      111.789696      373.989977    ;  uncertainty theta = 0.004991, k = 0.141848
        18        19        20     1      115.970947      451.665660    ;  uncertainty theta = 0.002831, k = 0.265714
        18        19        21     1      124.330299      367.029742    ;  uncertainty theta = 0.001563, k = 0.160060
        18        25        24     1      121.913986      459.339210    ;  uncertainty theta = 0.004758, k = 0.159351
        18        25        26     1      119.444870      363.151262    ;  uncertainty theta = 0.007491, k = 0.441273
        19        18        25     1      117.604980      363.872047    ;  uncertainty theta = 0.009116, k = 0.296569
        19        21        22     1      118.018143      468.922362    ;  uncertainty theta = 0.002596, k = 0.127875
        19        21        48     1      120.544006      276.883235    ;  uncertainty theta = 0.000751, k = 0.076308
        20        19        21     1      119.441208      519.198131    ;  uncertainty theta = 0.002189, k = 0.151105
        21        22        23     1      120.090111      453.895465    ;  uncertainty theta = 0.001202, k = 0.074147
        21        22        24     1      121.606979      376.437613    ;  uncertainty theta = 0.002272, k = 0.176070
        22        21        48     1      122.424194      280.627199    ;  uncertainty theta = 0.001825, k = 0.067727
        22        24        25     1      120.608704      494.889420    ;  uncertainty theta = 0.003912, k = 0.076519
        22        24        49     1      120.671410      289.351570    ;  uncertainty theta = 0.001601, k = 0.094599
        23        22        24     1      120.624161      437.884623    ;  uncertainty theta = 0.001042, k = 0.080217
        24        25        26     1      119.414017      405.953213    ;  uncertainty theta = 0.003546, k = 0.156324
        25        24        49     1      119.143982      263.665244    ;  uncertainty theta = 0.003062, k = 0.105905
        25        26        27     1      108.829063      644.605033    ;  uncertainty theta = 0.007587, k = 0.328527
        25        26        50     1      108.353615      392.285433    ;  uncertainty theta = 0.003920, k = 0.082927
        26         9        40     1      106.383469      399.109714    ;  uncertainty theta = 0.002860, k = 0.086773
        27         6        35     1      106.641457      456.120768    ;  uncertainty theta = 0.005447, k = 0.173040
        27        26        50     1      106.436539      449.507008    ;  uncertainty theta = 0.002294, k = 0.169781
        29         2        30     1      107.384705      318.810924    ;  uncertainty theta = 0.001289, k = 0.045395
        31         3        32     1      105.754417      318.262706    ;  uncertainty theta = 0.001275, k = 0.024714
        33         5        34     1      105.681885      323.019854    ;  uncertainty theta = 0.000874, k = 0.044244
        36         7        37     1      105.185684      314.068650    ;  uncertainty theta = 0.000993, k = 0.026189
        38         8        39     1      104.585793      315.268990    ;  uncertainty theta = 0.002093, k = 0.030266

[ dihedrals ] ; propers for gromacs 4.5 or higher, use funct 9
;       ai        aj        ak        al funct           phase               k        pn
         1         2         3         4     9        0.000000       -1.710067         1    ;  uncertainty k = 0.870694
         1         2         3         4     9      180.000000       -1.794372         2    ;  uncertainty k = 0.244735
         1         2         3         4     9        0.000000        2.519996         3    ;  uncertainty k = 0.227128
         1         2         3         4     9      180.000000       -0.760578         4    ;  uncertainty k = 0.263223
         1         2         3        31     9        0.000000       -2.060488         1    ;  uncertainty k = 0.563332
         1         2         3        31     9      180.000000        0.128177         2    ;  uncertainty k = 0.304025
         1         2         3        31     9        0.000000        1.810627         3    ;  uncertainty k = 0.205770
         1         2         3        31     9      180.000000       -0.234688         4    ;  uncertainty k = 0.142138
         1         2         3        32     9        0.000000       -2.060488         1    ;  uncertainty k = 0.563332
         1         2         3        32     9      180.000000        0.128177         2    ;  uncertainty k = 0.304025
         1         2         3        32     9        0.000000        1.810627         3    ;  uncertainty k = 0.205770
         1         2         3        32     9      180.000000       -0.234688         4    ;  uncertainty k = 0.142138
         2         3         4         5     9        0.000000       -0.666084         1    ;  uncertainty k = 0.345149
         2         3         4         5     9      180.000000       -3.569033         2    ;  uncertainty k = 0.259082
         2         3         4         5     9        0.000000        1.708722         3    ;  uncertainty k = 0.104492
         2         3         4         5     9      180.000000        0.263432         4    ;  uncertainty k = 0.109169
         2         3         4        51     9        0.000000        5.282075         1    ;  uncertainty k = 0.302460
         2         3         4        51     9      180.000000       -4.902169         2    ;  uncertainty k = 0.224286
         2         3         4        51     9        0.000000       -0.006281         3    ;  uncertainty k = 0.158054
         2         3         4        51     9      180.000000       -0.260747         4    ;  uncertainty k = 0.091610
         3         2         1        28     9        0.000000       14.455813         1    ;  uncertainty k = 0.166936
         3         2         1        28     9      180.000000       -3.832458         2    ;  uncertainty k = 0.418365
         3         2         1        28     9        0.000000        1.267916         3    ;  uncertainty k = 0.159175
         3         2         1        28     9      180.000000        0.359444         4    ;  uncertainty k = 0.112843
         3         4         5         6     9        0.000000       -1.148775         1    ;  uncertainty k = 0.286396
         3         4         5         6     9      180.000000       -3.754981         2    ;  uncertainty k = 0.309294
         3         4         5         6     9        0.000000        1.552688         3    ;  uncertainty k = 0.260244
         3         4         5         6     9      180.000000        0.367108         4    ;  uncertainty k = 0.072451
         3         4         5        33     9        0.000000       -2.212905         1    ;  uncertainty k = 0.244924
         3         4         5        33     9      180.000000       -2.489188         2    ;  uncertainty k = 0.269815
         3         4         5        33     9        0.000000        1.269523         3    ;  uncertainty k = 0.200023
         3         4         5        33     9      180.000000        0.321932         4    ;  uncertainty k = 0.054058
         3         4         5        34     9        0.000000       -2.212905         1    ;  uncertainty k = 0.244924
         3         4         5        34     9      180.000000       -2.489188         2    ;  uncertainty k = 0.269815
         3         4         5        34     9        0.000000        1.269523         3    ;  uncertainty k = 0.200023
         3         4         5        34     9      180.000000        0.321932         4    ;  uncertainty k = 0.054058
         4         3         2        29     9        0.000000       -0.155479         1    ;  uncertainty k = 0.405262
         4         3         2        29     9      180.000000       -0.737098         2    ;  uncertainty k = 0.082806
         4         3         2        29     9        0.000000        1.109261         3    ;  uncertainty k = 0.078753
         4         3         2        29     9      180.000000        0.025426         4    ;  uncertainty k = 0.112934
         4         3         2        30     9        0.000000       -0.155479         1    ;  uncertainty k = 0.405262
         4         3         2        30     9      180.000000       -0.737098         2    ;  uncertainty k = 0.082806
         4         3         2        30     9        0.000000        1.109261         3    ;  uncertainty k = 0.078753
         4         3         2        30     9      180.000000        0.025426         4    ;  uncertainty k = 0.112934
         4         5         6         7     9        0.000000       -0.759676         1    ;  uncertainty k = 0.607333
         4         5         6         7     9      180.000000        0.337061         2    ;  uncertainty k = 0.593783
         4         5         6         7     9        0.000000        1.607359         3    ;  uncertainty k = 0.071513
         4         5         6         7     9      180.000000       -0.313801         4    ;  uncertainty k = 0.197747
         4         5         6        27     9        0.000000       -0.722074         1    ;  uncertainty k = 0.860140
         4         5         6        27     9      180.000000       -2.644220         2    ;  uncertainty k = 0.424841
         4         5         6        27     9        0.000000        2.429789         3    ;  uncertainty k = 0.375957
         4         5         6        27     9      180.000000       -0.164911         4    ;  uncertainty k = 0.177516
         4         5         6        35     9        0.000000       -0.411107         1    ;  uncertainty k = 0.363631
         4         5         6        35     9      180.000000       -0.058697         2    ;  uncertainty k = 0.184329
         4         5         6        35     9        0.000000        0.856657         3    ;  uncertainty k = 0.113832
         4         5         6        35     9      180.000000        0.007735         4    ;  uncertainty k = 0.037909
         5         4         3        31     9        0.000000       -2.089581         1    ;  uncertainty k = 0.249627
         5         4         3        31     9      180.000000       -2.674508         2    ;  uncertainty k = 0.184489
         5         4         3        31     9        0.000000        1.212152         3    ;  uncertainty k = 0.188763
         5         4         3        31     9      180.000000        0.358921         4    ;  uncertainty k = 0.097782
         5         4         3        32     9        0.000000       -2.089581         1    ;  uncertainty k = 0.249627
         5         4         3        32     9      180.000000       -2.674508         2    ;  uncertainty k = 0.184489
         5         4         3        32     9        0.000000        1.212152         3    ;  uncertainty k = 0.188763
         5         4         3        32     9      180.000000        0.358921         4    ;  uncertainty k = 0.097782
         5         6         7         8     9        0.000000       -2.991934         1    ;  uncertainty k = 0.559201
         5         6         7         8     9      180.000000        0.296530         2    ;  uncertainty k = 0.369546
         5         6         7         8     9        0.000000        0.467685         3    ;  uncertainty k = 0.091652
         5         6         7         8     9      180.000000       -0.327269         4    ;  uncertainty k = 0.096654
         5         6         7        36     9        0.000000       -0.591816         1    ;  uncertainty k = 0.342886
         5         6         7        36     9      180.000000       -0.186484         2    ;  uncertainty k = 0.324483
         5         6         7        36     9        0.000000        0.186781         3    ;  uncertainty k = 0.071363
         5         6         7        36     9      180.000000       -0.213140         4    ;  uncertainty k = 0.084065
         5         6         7        37     9        0.000000       -0.591816         1    ;  uncertainty k = 0.342886
         5         6         7        37     9      180.000000       -0.186484         2    ;  uncertainty k = 0.324483
         5         6         7        37     9        0.000000        0.186781         3    ;  uncertainty k = 0.071363
         5         6         7        37     9      180.000000       -0.213140         4    ;  uncertainty k = 0.084065
         5         6        27        26     9        0.000000       -4.152588         1    ;  uncertainty k = 0.839345
         5         6        27        26     9      180.000000        0.217594         2    ;  uncertainty k = 0.134004
         5         6        27        26     9        0.000000        0.567001         3    ;  uncertainty k = 0.286752
         5         6        27        26     9      180.000000       -0.039443         4    ;  uncertainty k = 0.221221
         6         5         4        51     9        0.000000        5.748047         1    ;  uncertainty k = 0.279921
         6         5         4        51     9      180.000000       -5.148981         2    ;  uncertainty k = 0.318031
         6         5         4        51     9        0.000000       -0.105917         3    ;  uncertainty k = 0.198905
         6         5         4        51     9      180.000000       -0.335398         4    ;  uncertainty k = 0.106186
         6         7         8         9     9        0.000000       -4.933604         1    ;  uncertainty k = 1.108962
         6         7         8         9     9      180.000000       -0.574715         2    ;  uncertainty k = 0.638681
         6         7         8         9     9        0.000000        1.234953         3    ;  uncertainty k = 0.227145
         6         7         8         9     9      180.000000       -0.981904         4    ;  uncertainty k = 0.186188
         6         7         8        38     9        0.000000       -1.038383         1    ;  uncertainty k = 0.623025
         6         7         8        38     9      180.000000       -0.549288         2    ;  uncertainty k = 0.239508
         6         7         8        38     9        0.000000        0.422650         3    ;  uncertainty k = 0.157816
         6         7         8        38     9      180.000000        0.041132         4    ;  uncertainty k = 0.036655
         6         7         8        39     9        0.000000       -1.038383         1    ;  uncertainty k = 0.623025
         6         7         8        39     9      180.000000       -0.549288         2    ;  uncertainty k = 0.239508
         6         7         8        39     9        0.000000        0.422650         3    ;  uncertainty k = 0.157816
         6         7         8        39     9      180.000000        0.041132         4    ;  uncertainty k = 0.036655
         6        27        26         9     9        0.000000        4.169526         1    ;  uncertainty k = 1.610939
         6        27        26         9     9      180.000000       -1.850937         2    ;  uncertainty k = 1.154892
         6        27        26         9     9        0.000000        0.075392         3    ;  uncertainty k = 0.316763
         6        27        26         9     9      180.000000        0.052652         4    ;  uncertainty k = 0.203669
         6        27        26        25     9        0.000000       -3.100622         1    ;  uncertainty k = 1.643404
         6        27        26        25     9      180.000000       -1.179513         2    ;  uncertainty k = 0.924915
         6        27        26        25     9        0.000000        0.870597         3    ;  uncertainty k = 0.553986
         6        27        26        25     9      180.000000       -0.083795         4    ;  uncertainty k = 0.216293
         6        27        26        50     9        0.000000       -1.576690         1    ;  uncertainty k = 0.569048
         6        27        26        50     9      180.000000       -0.392475         2    ;  uncertainty k = 0.316096
         6        27        26        50     9        0.000000        0.431918         3    ;  uncertainty k = 0.090724
         6        27        26        50     9      180.000000       -0.102781         4    ;  uncertainty k = 0.219299
         7         6         5        33     9        0.000000       -0.993435         1    ;  uncertainty k = 0.333099
         7         6         5        33     9      180.000000       -0.091517         2    ;  uncertainty k = 0.377235
         7         6         5        33     9        0.000000        0.383872         3    ;  uncertainty k = 0.051445
         7         6         5        33     9      180.000000       -0.148563         4    ;  uncertainty k = 0.093185
         7         6         5        34     9        0.000000       -0.993435         1    ;  uncertainty k = 0.333099
         7         6         5        34     9      180.000000       -0.091517         2    ;  uncertainty k = 0.377235
         7         6         5        34     9        0.000000        0.383872         3    ;  uncertainty k = 0.051445
         7         6         5        34     9      180.000000       -0.148563         4    ;  uncertainty k = 0.093185
         7         6        27        26     9        0.000000        2.738637         1    ;  uncertainty k = 3.079425
         7         6        27        26     9      180.000000       -1.311201         2    ;  uncertainty k = 0.394608
         7         6        27        26     9        0.000000       -0.121462         3    ;  uncertainty k = 0.683924
         7         6        27        26     9      180.000000        0.021389         4    ;  uncertainty k = 0.161054
         7         8         9        10     9        0.000000       -3.428807         1    ;  uncertainty k = 0.562989
         7         8         9        10     9      180.000000        0.046154         2    ;  uncertainty k = 0.168288
         7         8         9        10     9        0.000000        1.159236         3    ;  uncertainty k = 0.145611
         7         8         9        10     9      180.000000       -0.539651         4    ;  uncertainty k = 0.153105
         7         8         9        26     9        0.000000       -3.494570         1    ;  uncertainty k = 0.272855
         7         8         9        26     9      180.000000        0.132740         2    ;  uncertainty k = 0.389565
         7         8         9        26     9        0.000000        1.025601         3    ;  uncertainty k = 0.168963
         7         8         9        26     9      180.000000       -0.781799         4    ;  uncertainty k = 0.058336
         7         8         9        40     9        0.000000       -2.393881         1    ;  uncertainty k = 0.521607
         7         8         9        40     9      180.000000        0.121955         2    ;  uncertainty k = 0.258371
         7         8         9        40     9        0.000000        0.024213         3    ;  uncertainty k = 0.078636
         7         8         9        40     9      180.000000       -0.101045         4    ;  uncertainty k = 0.083409
         8         7         6        27     9        0.000000       -2.238494         1    ;  uncertainty k = 0.942557
         8         7         6        27     9      180.000000       -1.027086         2    ;  uncertainty k = 0.525364
         8         7         6        27     9        0.000000        1.429227         3    ;  uncertainty k = 0.401555
         8         7         6        27     9      180.000000       -0.500078         4    ;  uncertainty k = 0.316764
         8         7         6        35     9        0.000000        0.698957         1    ;  uncertainty k = 0.782354
         8         7         6        35     9      180.000000       -1.912563         2    ;  uncertainty k = 0.727181
         8         7         6        35     9        0.000000       -0.278004         3    ;  uncertainty k = 0.158253
         8         7         6        35     9      180.000000        0.142669         4    ;  uncertainty k = 0.084386
         8         9        10        11     9        0.000000       -0.460265         1    ;  uncertainty k = 0.378480
         8         9        10        11     9      180.000000        0.091417         2    ;  uncertainty k = 0.234286
         8         9        10        11     9        0.000000        1.027683         3    ;  uncertainty k = 0.137264
         8         9        10        11     9      180.000000       -0.027056         4    ;  uncertainty k = 0.091487
         8         9        10        17     9        0.000000       -2.690971         1    ;  uncertainty k = 0.457017
         8         9        10        17     9      180.000000        0.562053         2    ;  uncertainty k = 0.351266
         8         9        10        17     9        0.000000        1.098836         3    ;  uncertainty k = 0.218602
         8         9        10        17     9      180.000000       -0.294577         4    ;  uncertainty k = 0.291895
         8         9        10        41     9        0.000000       -0.243573         1    ;  uncertainty k = 0.392155
         8         9        10        41     9      180.000000       -0.308384         2    ;  uncertainty k = 0.183697
         8         9        10        41     9        0.000000        0.093415         3    ;  uncertainty k = 0.150044
         8         9        10        41     9      180.000000       -0.117627         4    ;  uncertainty k = 0.084836
         8         9        26        25     9        0.000000       -1.732697         1    ;  uncertainty k = 0.876203
         8         9        26        25     9      180.000000       -0.812110         2    ;  uncertainty k = 0.214859
         8         9        26        25     9        0.000000        0.631251         3    ;  uncertainty k = 0.203010
         8         9        26        25     9      180.000000       -0.213574         4    ;  uncertainty k = 0.115878
         8         9        26        27     9        0.000000       -1.633856         1    ;  uncertainty k = 0.807107
         8         9        26        27     9      180.000000       -1.474873         2    ;  uncertainty k = 0.952435
         8         9        26        27     9        0.000000        0.921254         3    ;  uncertainty k = 0.281774
         8         9        26        27     9      180.000000       -0.033282         4    ;  uncertainty k = 0.254495
         8         9        26        50     9        0.000000        0.372593         1    ;  uncertainty k = 0.557550
         8         9        26        50     9      180.000000       -0.492179         2    ;  uncertainty k = 0.386340
         8         9        26        50     9        0.000000       -0.168047         3    ;  uncertainty k = 0.120087
         8         9        26        50     9      180.000000       -0.045971         4    ;  uncertainty k = 0.139834
         9         8         7        36     9        0.000000       -0.789552         1    ;  uncertainty k = 0.235032
         9         8         7        36     9      180.000000       -0.691687         2    ;  uncertainty k = 0.213781
         9         8         7        36     9        0.000000        0.412213         3    ;  uncertainty k = 0.128820
         9         8         7        36     9      180.000000       -0.048909         4    ;  uncertainty k = 0.116103
         9         8         7        37     9        0.000000       -0.789552         1    ;  uncertainty k = 0.235032
         9         8         7        37     9      180.000000       -0.691687         2    ;  uncertainty k = 0.213781
         9         8         7        37     9        0.000000        0.412213         3    ;  uncertainty k = 0.128820
         9         8         7        37     9      180.000000       -0.048909         4    ;  uncertainty k = 0.116103
         9        10        11        12     9        0.000000       -0.111537         1    ;  uncertainty k = 0.709383
         9        10        11        12     9      180.000000        1.832259         2    ;  uncertainty k = 0.233886
         9        10        11        12     9        0.000000        0.274101         3    ;  uncertainty k = 0.144963
         9        10        11        12     9      180.000000        0.245319         4    ;  uncertainty k = 0.077451
         9        10        11        16     9        0.000000       -0.111537         1    ;  uncertainty k = 0.709383
         9        10        11        16     9      180.000000        1.832259         2    ;  uncertainty k = 0.233886
         9        10        11        16     9        0.000000        0.274101         3    ;  uncertainty k = 0.144963
         9        10        11        16     9      180.000000        0.245319         4    ;  uncertainty k = 0.077451
         9        10        17        18     9        0.000000        0.548068         1    ;  uncertainty k = 1.309096
         9        10        17        18     9      180.000000        0.291283         2    ;  uncertainty k = 0.543452
         9        10        17        18     9        0.000000        0.281390         3    ;  uncertainty k = 0.230791
         9        10        17        18     9      180.000000        0.171171         4    ;  uncertainty k = 0.179397
         9        10        17        47     9        0.000000        3.364422         1    ;  uncertainty k = 0.792659
         9        10        17        47     9      180.000000       -1.771652         2    ;  uncertainty k = 1.305731
         9        10        17        47     9        0.000000        0.478059         3    ;  uncertainty k = 0.318344
         9        10        17        47     9      180.000000       -0.021921         4    ;  uncertainty k = 0.075868
         9        26        25        18     9        0.000000        0.015728         1    ;  uncertainty k = 2.103622
         9        26        25        18     9      180.000000        0.090598         2    ;  uncertainty k = 1.144573
         9        26        25        18     9        0.000000        0.046490         3    ;  uncertainty k = 0.682021
         9        26        25        18     9      180.000000        0.764860         4    ;  uncertainty k = 0.172593
         9        26        25        24     9        0.000000       -1.511541         1    ;  uncertainty k = 0.713272
         9        26        25        24     9      180.000000        0.031538         2    ;  uncertainty k = 0.433587
         9        26        25        24     9        0.000000       -0.143618         3    ;  uncertainty k = 0.198407
         9        26        25        24     9      180.000000        0.411953         4    ;  uncertainty k = 0.136694
        10         9         8        38     9        0.000000        0.087291         1    ;  uncertainty k = 0.314079
        10         9         8        38     9      180.000000       -0.651821         2    ;  uncertainty k = 0.226606
        10         9         8        38     9        0.000000        0.474404         3    ;  uncertainty k = 0.093396
        10         9         8        38     9      180.000000       -0.051753         4    ;  uncertainty k = 0.104749
        10         9         8        39     9        0.000000        0.087291         1    ;  uncertainty k = 0.314079
        10         9         8        39     9      180.000000       -0.651821         2    ;  uncertainty k = 0.226606
        10         9         8        39     9        0.000000        0.474404         3    ;  uncertainty k = 0.093396
        10         9         8        39     9      180.000000       -0.051753         4    ;  uncertainty k = 0.104749
        10         9        26        25     9        0.000000        1.246175         1    ;  uncertainty k = 1.083684
        10         9        26        25     9      180.000000       -2.310668         2    ;  uncertainty k = 0.382704
        10         9        26        25     9        0.000000        0.276406         3    ;  uncertainty k = 0.185230
        10         9        26        25     9      180.000000       -0.158340         4    ;  uncertainty k = 0.138007
        10         9        26        27     9        0.000000       -0.973150         1    ;  uncertainty k = 1.565910
        10         9        26        27     9      180.000000       -3.355197         2    ;  uncertainty k = 1.514159
        10         9        26        27     9        0.000000        0.655266         3    ;  uncertainty k = 0.252274
        10         9        26        27     9      180.000000        0.115287         4    ;  uncertainty k = 0.317740
        10         9        26        50     9        0.000000        0.850552         1    ;  uncertainty k = 0.754507
        10         9        26        50     9      180.000000       -1.038194         2    ;  uncertainty k = 0.486162
        10         9        26        50     9        0.000000       -0.237166         3    ;  uncertainty k = 0.099607
        10         9        26        50     9      180.000000        0.002744         4    ;  uncertainty k = 0.201386
        10        11        12        13     9        0.000000        0.315475         1    ;  uncertainty k = 0.262602
        10        11        12        13     9      180.000000        8.621091         2    ;  uncertainty k = 0.465138
        10        11        12        13     9        0.000000        1.453888         3    ;  uncertainty k = 0.336787
        10        11        12        13     9      180.000000        1.906667         4    ;  uncertainty k = 0.204333
        10        11        12        42     9        0.000000        0.041226         1    ;  uncertainty k = 0.295434
        10        11        12        42     9      180.000000        7.823420         2    ;  uncertainty k = 0.255813
        10        11        12        42     9        0.000000        0.567730         3    ;  uncertainty k = 0.365385
        10        11        12        42     9      180.000000        0.878203         4    ;  uncertainty k = 0.166432
        10        11        16        15     9        0.000000        0.315475         1    ;  uncertainty k = 0.262602
        10        11        16        15     9      180.000000        8.621091         2    ;  uncertainty k = 0.465138
        10        11        16        15     9        0.000000        1.453888         3    ;  uncertainty k = 0.336787
        10        11        16        15     9      180.000000        1.906667         4    ;  uncertainty k = 0.204333
        10        11        16        46     9        0.000000        0.041226         1    ;  uncertainty k = 0.295434
        10        11        16        46     9      180.000000        7.823420         2    ;  uncertainty k = 0.255813
        10        11        16        46     9        0.000000        0.567730         3    ;  uncertainty k = 0.365385
        10        11        16        46     9      180.000000        0.878203         4    ;  uncertainty k = 0.166432
        10        17        18        19     9        0.000000        2.352779         1    ;  uncertainty k = 1.717334
        10        17        18        19     9      180.000000        2.381757         2    ;  uncertainty k = 0.915067
        10        17        18        19     9        0.000000        0.725986         3    ;  uncertainty k = 0.337987
        10        17        18        19     9      180.000000        0.373315         4    ;  uncertainty k = 0.145269
        10        17        18        25     9        0.000000        3.311740         1    ;  uncertainty k = 1.251880
        10        17        18        25     9      180.000000        1.841296         2    ;  uncertainty k = 0.699894
        10        17        18        25     9        0.000000       -0.324185         3    ;  uncertainty k = 0.371095
        10        17        18        25     9      180.000000        0.553658         4    ;  uncertainty k = 0.225031
        11        10         9        26     9        0.000000       -0.653295         1    ;  uncertainty k = 0.761335
        11        10         9        26     9      180.000000       -0.366478         2    ;  uncertainty k = 0.365848
        11        10         9        26     9        0.000000        0.405218         3    ;  uncertainty k = 0.209776
        11        10         9        26     9      180.000000       -0.028585         4    ;  uncertainty k = 0.142202
        11        10         9        40     9        0.000000        0.521826         1    ;  uncertainty k = 0.245890
        11        10         9        40     9      180.000000        0.128842         2    ;  uncertainty k = 0.617819
        11        10         9        40     9        0.000000        0.456514         3    ;  uncertainty k = 0.077842
        11        10         9        40     9      180.000000       -0.031889         4    ;  uncertainty k = 0.109122
        11        10        17        18     9        0.000000       -1.271087         1    ;  uncertainty k = 0.767769
        11        10        17        18     9      180.000000        0.111683         2    ;  uncertainty k = 0.136914
        11        10        17        18     9        0.000000        1.047349         3    ;  uncertainty k = 0.234418
        11        10        17        18     9      180.000000        0.230458         4    ;  uncertainty k = 0.093726
        11        10        17        47     9        0.000000        4.853101         1    ;  uncertainty k = 0.666151
        11        10        17        47     9      180.000000       -0.863729         2    ;  uncertainty k = 0.353945
        11        10        17        47     9        0.000000        0.434146         3    ;  uncertainty k = 0.251029
        11        10        17        47     9      180.000000       -0.043424         4    ;  uncertainty k = 0.187740
        11        12        13        14     9        0.000000       -0.073185         1    ;  uncertainty k = 0.135863
        11        12        13        14     9      180.000000       13.840581         2    ;  uncertainty k = 0.218470
        11        12        13        14     9        0.000000       -0.942124         3    ;  uncertainty k = 0.500159
        11        12        13        14     9      180.000000        0.720226         4    ;  uncertainty k = 0.249573
        11        12        13        43     9        0.000000        0.078937         1    ;  uncertainty k = 0.238410
        11        12        13        43     9      180.000000        7.523904         2    ;  uncertainty k = 0.411008
        11        12        13        43     9        0.000000        1.486224         3    ;  uncertainty k = 0.266910
        11        12        13        43     9      180.000000        1.791252         4    ;  uncertainty k = 0.130361
        11        16        15        14     9        0.000000       -0.073185         1    ;  uncertainty k = 0.135863
        11        16        15        14     9      180.000000       13.840581         2    ;  uncertainty k = 0.218470
        11        16        15        14     9        0.000000       -0.942124         3    ;  uncertainty k = 0.500159
        11        16        15        14     9      180.000000        0.720226         4    ;  uncertainty k = 0.249573
        11        16        15        45     9        0.000000        0.078937         1    ;  uncertainty k = 0.238410
        11        16        15        45     9      180.000000        7.523904         2    ;  uncertainty k = 0.411008
        11        16        15        45     9        0.000000        1.486224         3    ;  uncertainty k = 0.266910
        11        16        15        45     9      180.000000        1.791252         4    ;  uncertainty k = 0.130361
        12        11        10        17     9        0.000000       -0.587440         1    ;  uncertainty k = 0.650241
        12        11        10        17     9      180.000000        2.752986         2    ;  uncertainty k = 0.235149
        12        11        10        17     9        0.000000        0.633136         3    ;  uncertainty k = 0.233844
        12        11        10        17     9      180.000000        0.456102         4    ;  uncertainty k = 0.027417
        12        11        10        41     9        0.000000       -0.605120         1    ;  uncertainty k = 0.219677
        12        11        10        41     9      180.000000        2.297380         2    ;  uncertainty k = 0.337137
        12        11        10        41     9        0.000000        0.473321         3    ;  uncertainty k = 0.111321
        12        11        10        41     9      180.000000        0.234329         4    ;  uncertainty k = 0.048057
        12        11        16        15     9        0.000000       -0.244750         1    ;  uncertainty k = 0.085030
        12        11        16        15     9      180.000000       11.550238         2    ;  uncertainty k = 0.281782
        12        11        16        15     9        0.000000       -0.471965         3    ;  uncertainty k = 0.307308
        12        11        16        15     9      180.000000        0.819629         4    ;  uncertainty k = 0.339588
        12        11        16        46     9        0.000000        0.103785         1    ;  uncertainty k = 0.115164
        12        11        16        46     9      180.000000        7.232566         2    ;  uncertainty k = 0.479326
        12        11        16        46     9        0.000000        1.441609         3    ;  uncertainty k = 0.358039
        12        11        16        46     9      180.000000        1.626932         4    ;  uncertainty k = 0.180627
        12        13        14        15     9        0.000000        0.003338         1    ;  uncertainty k = 0.036528
        12        13        14        15     9      180.000000       15.061872         2    ;  uncertainty k = 0.266781
        12        13        14        15     9        0.000000       -1.241530         3    ;  uncertainty k = 0.510933
        12        13        14        15     9      180.000000        0.486539         4    ;  uncertainty k = 0.300059
        12        13        14        44     9        0.000000        0.055743         1    ;  uncertainty k = 0.094833
        12        13        14        44     9      180.000000        7.490470         2    ;  uncertainty k = 0.333391
        12        13        14        44     9        0.000000        1.467121         3    ;  uncertainty k = 0.292765
        12        13        14        44     9      180.000000        1.797081         4    ;  uncertainty k = 0.179698
        13        12        11        16     9        0.000000       -0.244750         1    ;  uncertainty k = 0.085030
        13        12        11        16     9      180.000000       11.550238         2    ;  uncertainty k = 0.281782
        13        12        11        16     9        0.000000       -0.471965         3    ;  uncertainty k = 0.307308
        13        12        11        16     9      180.000000        0.819629         4    ;  uncertainty k = 0.339588
        13        14        15        16     9        0.000000        0.003338         1    ;  uncertainty k = 0.036528
        13        14        15        16     9      180.000000       15.061872         2    ;  uncertainty k = 0.266781
        13        14        15        16     9        0.000000       -1.241530         3    ;  uncertainty k = 0.510933
        13        14        15        16     9      180.000000        0.486539         4    ;  uncertainty k = 0.300059
        13        14        15        45     9        0.000000        0.045944         1    ;  uncertainty k = 0.040455
        13        14        15        45     9      180.000000        7.527539         2    ;  uncertainty k = 0.325490
        13        14        15        45     9        0.000000        1.433627         3    ;  uncertainty k = 0.327115
        13        14        15        45     9      180.000000        1.790207         4    ;  uncertainty k = 0.158460
        14        13        12        42     9        0.000000        0.053110         1    ;  uncertainty k = 0.076538
        14        13        12        42     9      180.000000        7.946075         2    ;  uncertainty k = 0.338884
        14        13        12        42     9        0.000000        1.427770         3    ;  uncertainty k = 0.326160
        14        13        12        42     9      180.000000        1.836126         4    ;  uncertainty k = 0.159402
        14        15        16        46     9        0.000000        0.053110         1    ;  uncertainty k = 0.076538
        14        15        16        46     9      180.000000        7.946075         2    ;  uncertainty k = 0.338884
        14        15        16        46     9        0.000000        1.427770         3    ;  uncertainty k = 0.326160
        14        15        16        46     9      180.000000        1.836126         4    ;  uncertainty k = 0.159402
        15        14        13        43     9        0.000000        0.045944         1    ;  uncertainty k = 0.040455
        15        14        13        43     9      180.000000        7.527539         2    ;  uncertainty k = 0.325490
        15        14        13        43     9        0.000000        1.433627         3    ;  uncertainty k = 0.327115
        15        14        13        43     9      180.000000        1.790207         4    ;  uncertainty k = 0.158460
        16        11        10        17     9        0.000000       -0.587440         1    ;  uncertainty k = 0.650241
        16        11        10        17     9      180.000000        2.752986         2    ;  uncertainty k = 0.235149
        16        11        10        17     9        0.000000        0.633136         3    ;  uncertainty k = 0.233844
        16        11        10        17     9      180.000000        0.456102         4    ;  uncertainty k = 0.027417
        16        11        10        41     9        0.000000       -0.605120         1    ;  uncertainty k = 0.219677
        16        11        10        41     9      180.000000        2.297380         2    ;  uncertainty k = 0.337137
        16        11        10        41     9        0.000000        0.473321         3    ;  uncertainty k = 0.111321
        16        11        10        41     9      180.000000        0.234329         4    ;  uncertainty k = 0.048057
        16        11        12        42     9        0.000000        0.103785         1    ;  uncertainty k = 0.115164
        16        11        12        42     9      180.000000        7.232566         2    ;  uncertainty k = 0.479326
        16        11        12        42     9        0.000000        1.441609         3    ;  uncertainty k = 0.358039
        16        11        12        42     9      180.000000        1.626932         4    ;  uncertainty k = 0.180627
        16        15        14        44     9        0.000000        0.055743         1    ;  uncertainty k = 0.094833
        16        15        14        44     9      180.000000        7.490470         2    ;  uncertainty k = 0.333391
        16        15        14        44     9        0.000000        1.467121         3    ;  uncertainty k = 0.292765
        16        15        14        44     9      180.000000        1.797081         4    ;  uncertainty k = 0.179698
        17        10         9        26     9        0.000000       -0.106016         1    ;  uncertainty k = 2.141023
        17        10         9        26     9      180.000000       -1.222533         2    ;  uncertainty k = 0.412973
        17        10         9        26     9        0.000000        0.530218         3    ;  uncertainty k = 0.457420
        17        10         9        26     9      180.000000       -0.153222         4    ;  uncertainty k = 0.383381
        17        10         9        40     9        0.000000       -0.987504         1    ;  uncertainty k = 0.658849
        17        10         9        40     9      180.000000        0.141272         2    ;  uncertainty k = 0.387448
        17        10         9        40     9        0.000000        0.636103         3    ;  uncertainty k = 0.252693
        17        10         9        40     9      180.000000        0.058629         4    ;  uncertainty k = 0.106340
        17        18        19        20     9        0.000000       -0.061352         1    ;  uncertainty k = 0.584373
        17        18        19        20     9      180.000000       11.109707         2    ;  uncertainty k = 0.360450
        17        18        19        20     9        0.000000        0.834232         3    ;  uncertainty k = 0.132934
        17        18        19        20     9      180.000000        1.175836         4    ;  uncertainty k = 0.314090
        17        18        19        21     9        0.000000        0.085940         1    ;  uncertainty k = 0.525052
        17        18        19        21     9      180.000000        6.975069         2    ;  uncertainty k = 0.309603
        17        18        19        21     9        0.000000        1.148104         3    ;  uncertainty k = 0.292968
        17        18        19        21     9      180.000000        1.671938         4    ;  uncertainty k = 0.198887
        17        18        25        24     9        0.000000        0.466159         1    ;  uncertainty k = 0.358589
        17        18        25        24     9      180.000000        7.504093         2    ;  uncertainty k = 0.316774
        17        18        25        24     9        0.000000        0.993075         3    ;  uncertainty k = 0.133552
        17        18        25        24     9      180.000000        1.468521         4    ;  uncertainty k = 0.354322
        17        18        25        26     9        0.000000        0.061195         1    ;  uncertainty k = 0.713236
        17        18        25        26     9      180.000000        7.811100         2    ;  uncertainty k = 0.981864
        17        18        25        26     9        0.000000        0.637687         3    ;  uncertainty k = 0.611599
        17        18        25        26     9      180.000000        1.193518         4    ;  uncertainty k = 0.501732
        18        17        10        41     9        0.000000       -0.908069         1    ;  uncertainty k = 0.551345
        18        17        10        41     9      180.000000       -0.513393         2    ;  uncertainty k = 0.378077
        18        17        10        41     9        0.000000        0.699103         3    ;  uncertainty k = 0.184244
        18        17        10        41     9      180.000000        0.231201         4    ;  uncertainty k = 0.071403
        18        19        21        22     9        0.000000        0.023366         1    ;  uncertainty k = 0.094378
        18        19        21        22     9      180.000000        9.383073         2    ;  uncertainty k = 0.528874
        18        19        21        22     9        0.000000        0.388020         3    ;  uncertainty k = 0.413253
        18        19        21        22     9      180.000000        1.302754         4    ;  uncertainty k = 0.295943
        18        19        21        48     9        0.000000        0.401275         1    ;  uncertainty k = 0.278020
        18        19        21        48     9      180.000000        6.171698         2    ;  uncertainty k = 0.739578
        18        19        21        48     9        0.000000        1.350209         3    ;  uncertainty k = 0.436543
        18        19        21        48     9      180.000000        1.502582         4    ;  uncertainty k = 0.244469
        18        25        24        22     9        0.000000       -0.152208         1    ;  uncertainty k = 0.232118
        18        25        24        22     9      180.000000       12.708094         2    ;  uncertainty k = 0.385594
        18        25        24        22     9        0.000000       -0.388732         3    ;  uncertainty k = 0.445379
        18        25        24        22     9      180.000000        1.061469         4    ;  uncertainty k = 0.371241
        18        25        24        49     9        0.000000        0.395598         1    ;  uncertainty k = 0.424358
        18        25        24        49     9      180.000000        8.060806         2    ;  uncertainty k = 0.713820
        18        25        24        49     9        0.000000        1.426329         3    ;  uncertainty k = 0.289720
        18        25        24        49     9      180.000000        1.649939         4    ;  uncertainty k = 0.124062
        18        25        26        27     9        0.000000       -2.389861         1    ;  uncertainty k = 2.715252
        18        25        26        27     9      180.000000        0.599863         2    ;  uncertainty k = 1.127545
        18        25        26        27     9        0.000000        1.459639         3    ;  uncertainty k = 0.437720
        18        25        26        27     9      180.000000       -0.038683         4    ;  uncertainty k = 0.174304
        18        25        26        50     9        0.000000       -0.394077         1    ;  uncertainty k = 0.867616
        18        25        26        50     9      180.000000        2.173418         2    ;  uncertainty k = 0.218814
        18        25        26        50     9        0.000000        0.441462         3    ;  uncertainty k = 0.297770
        18        25        26        50     9      180.000000       -0.201049         4    ;  uncertainty k = 0.163318
        19        18        17        47     9        0.000000        4.791940         1    ;  uncertainty k = 1.014873
        19        18        17        47     9      180.000000        3.694192         2    ;  uncertainty k = 0.753853
        19        18        17        47     9        0.000000        0.742536         3    ;  uncertainty k = 0.313526
        19        18        17        47     9      180.000000        0.077129         4    ;  uncertainty k = 0.219819
        19        18        25        24     9        0.000000        0.244485         1    ;  uncertainty k = 0.342368
        19        18        25        24     9      180.000000        5.667483         2    ;  uncertainty k = 0.527622
        19        18        25        24     9        0.000000        0.463212         3    ;  uncertainty k = 0.362039
        19        18        25        24     9      180.000000        1.417452         4    ;  uncertainty k = 0.298361
        19        18        25        26     9        0.000000        0.615658         1    ;  uncertainty k = 0.585377
        19        18        25        26     9      180.000000        5.627604         2    ;  uncertainty k = 0.496718
        19        18        25        26     9        0.000000        1.235689         3    ;  uncertainty k = 0.375671
        19        18        25        26     9      180.000000        1.487370         4    ;  uncertainty k = 0.243496
        19        21        22        23     9        0.000000        0.137856         1    ;  uncertainty k = 0.423272
        19        21        22        23     9      180.000000        9.128243         2    ;  uncertainty k = 0.673439
        19        21        22        23     9        0.000000        1.383103         3    ;  uncertainty k = 0.564418
        19        21        22        23     9      180.000000        1.659609         4    ;  uncertainty k = 0.158040
        19        21        22        24     9        0.000000        0.017833         1    ;  uncertainty k = 0.213875
        19        21        22        24     9      180.000000        9.648489         2    ;  uncertainty k = 0.446771
        19        21        22        24     9        0.000000       -0.277576         3    ;  uncertainty k = 0.465672
        19        21        22        24     9      180.000000        1.219203         4    ;  uncertainty k = 0.283674
        20        19        18        25     9        0.000000        0.340946         1    ;  uncertainty k = 0.469009
        20        19        18        25     9      180.000000        8.353718         2    ;  uncertainty k = 0.594382
        20        19        18        25     9        0.000000        1.572239         3    ;  uncertainty k = 0.230748
        20        19        18        25     9      180.000000        1.562158         4    ;  uncertainty k = 0.257513
        20        19        21        22     9        0.000000        0.087316         1    ;  uncertainty k = 0.256464
        20        19        21        22     9      180.000000       14.337684         2    ;  uncertainty k = 0.536914
        20        19        21        22     9        0.000000        1.514917         3    ;  uncertainty k = 0.238833
        20        19        21        22     9      180.000000        1.452952         4    ;  uncertainty k = 0.347800
        20        19        21        48     9        0.000000       -0.190080         1    ;  uncertainty k = 0.246767
        20        19        21        48     9      180.000000        9.768210         2    ;  uncertainty k = 0.427611
        20        19        21        48     9        0.000000        0.881513         3    ;  uncertainty k = 0.258525
        20        19        21        48     9      180.000000        1.102225         4    ;  uncertainty k = 0.293820
        21        19        18        25     9        0.000000       -0.110016         1    ;  uncertainty k = 0.658300
        21        19        18        25     9      180.000000        4.284268         2    ;  uncertainty k = 1.612994
        21        19        18        25     9        0.000000        0.437372         3    ;  uncertainty k = 0.523967
        21        19        18        25     9      180.000000        1.324831         4    ;  uncertainty k = 0.338740
        21        22        24        25     9        0.000000        0.072539         1    ;  uncertainty k = 0.189742
        21        22        24        25     9      180.000000        9.456909         2    ;  uncertainty k = 0.354029
        21        22        24        25     9        0.000000       -0.094760         3    ;  uncertainty k = 0.720728
        21        22        24        25     9      180.000000        1.322484         4    ;  uncertainty k = 0.382358
        21        22        24        49     9        0.000000       -0.019276         1    ;  uncertainty k = 0.173040
        21        22        24        49     9      180.000000        6.459723         2    ;  uncertainty k = 0.515800
        21        22        24        49     9        0.000000        1.422385         3    ;  uncertainty k = 0.396410
        21        22        24        49     9      180.000000        1.617620         4    ;  uncertainty k = 0.156864
        22        24        25        26     9        0.000000        0.200006         1    ;  uncertainty k = 0.392623
        22        24        25        26     9      180.000000       10.254828         2    ;  uncertainty k = 0.477378
        22        24        25        26     9        0.000000        1.373706         3    ;  uncertainty k = 0.244072
        22        24        25        26     9      180.000000        1.829620         4    ;  uncertainty k = 0.435094
        23        22        21        48     9        0.000000       -0.068654         1    ;  uncertainty k = 0.162595
        23        22        21        48     9      180.000000        7.037011         2    ;  uncertainty k = 0.311304
        23        22        21        48     9        0.000000        0.618258         3    ;  uncertainty k = 0.395666
        23        22        21        48     9      180.000000        0.954045         4    ;  uncertainty k = 0.204747
        23        22        24        25     9        0.000000        0.018692         1    ;  uncertainty k = 0.158795
        23        22        24        25     9      180.000000        9.639501         2    ;  uncertainty k = 0.571989
        23        22        24        25     9        0.000000        1.396189         3    ;  uncertainty k = 0.493883
        23        22        24        25     9      180.000000        1.613842         4    ;  uncertainty k = 0.087421
        23        22        24        49     9        0.000000       -0.136104         1    ;  uncertainty k = 0.463855
        23        22        24        49     9      180.000000        7.497467         2    ;  uncertainty k = 0.437737
        23        22        24        49     9        0.000000        0.714129         3    ;  uncertainty k = 0.334584
        23        22        24        49     9      180.000000        1.011133         4    ;  uncertainty k = 0.286169
        24        22        21        48     9        0.000000        0.107311         1    ;  uncertainty k = 0.153561
        24        22        21        48     9      180.000000        5.845067         2    ;  uncertainty k = 0.555581
        24        22        21        48     9        0.000000        1.369666         3    ;  uncertainty k = 0.297654
        24        22        21        48     9      180.000000        1.498166         4    ;  uncertainty k = 0.132372
        24        25        26        27     9        0.000000        0.236476         1    ;  uncertainty k = 0.445694
        24        25        26        27     9      180.000000        1.644165         2    ;  uncertainty k = 0.582930
        24        25        26        27     9        0.000000       -0.273445         3    ;  uncertainty k = 0.402885
        24        25        26        27     9      180.000000        0.145235         4    ;  uncertainty k = 0.115608
        24        25        26        50     9        0.000000        0.410393         1    ;  uncertainty k = 0.780334
        24        25        26        50     9      180.000000        1.927697         2    ;  uncertainty k = 0.357123
        24        25        26        50     9        0.000000        0.083518         3    ;  uncertainty k = 0.124088
        24        25        26        50     9      180.000000       -0.000244         4    ;  uncertainty k = 0.195371
        25        18        17        47     9        0.000000       10.002621         1    ;  uncertainty k = 0.551914
        25        18        17        47     9      180.000000        4.889364         2    ;  uncertainty k = 0.522882
        25        18        17        47     9        0.000000        0.343785         3    ;  uncertainty k = 0.276796
        25        18        17        47     9      180.000000        0.197320         4    ;  uncertainty k = 0.187632
        25        26         9        40     9        0.000000       -0.393503         1    ;  uncertainty k = 1.056067
        25        26         9        40     9      180.000000        0.641491         2    ;  uncertainty k = 0.472678
        25        26         9        40     9        0.000000        0.010888         3    ;  uncertainty k = 0.112883
        25        26         9        40     9      180.000000       -0.044876         4    ;  uncertainty k = 0.097829
        26         9         8        38     9        0.000000       -0.383141         1    ;  uncertainty k = 0.402274
        26         9         8        38     9      180.000000       -0.688266         2    ;  uncertainty k = 0.119584
        26         9         8        38     9        0.000000        0.280096         3    ;  uncertainty k = 0.115142
        26         9         8        38     9      180.000000       -0.011231         4    ;  uncertainty k = 0.054763
        26         9         8        39     9        0.000000       -0.383141         1    ;  uncertainty k = 0.402274
        26         9         8        39     9      180.000000       -0.688266         2    ;  uncertainty k = 0.119584
        26         9         8        39     9        0.000000        0.280096         3    ;  uncertainty k = 0.115142
        26         9         8        39     9      180.000000       -0.011231         4    ;  uncertainty k = 0.054763
        26         9        10        41     9        0.000000        0.640020         1    ;  uncertainty k = 0.715190
        26         9        10        41     9      180.000000       -1.362726         2    ;  uncertainty k = 0.737477
        26         9        10        41     9        0.000000       -0.399857         3    ;  uncertainty k = 0.139014
        26         9        10        41     9      180.000000        0.019632         4    ;  uncertainty k = 0.141047
        26        25        24        49     9        0.000000       -0.256680         1    ;  uncertainty k = 0.589461
        26        25        24        49     9      180.000000        8.168660         2    ;  uncertainty k = 0.813891
        26        25        24        49     9        0.000000        0.769300         3    ;  uncertainty k = 0.291618
        26        25        24        49     9      180.000000        1.111044         4    ;  uncertainty k = 0.418505
        26        27         6        35     9        0.000000       -2.017468         1    ;  uncertainty k = 1.276445
        26        27         6        35     9      180.000000       -0.813735         2    ;  uncertainty k = 0.372751
        26        27         6        35     9        0.000000        0.147970         3    ;  uncertainty k = 0.089983
        26        27         6        35     9      180.000000       -0.058747         4    ;  uncertainty k = 0.118230
        27         6         5        33     9        0.000000        0.371592         1    ;  uncertainty k = 0.296882
        27         6         5        33     9      180.000000       -1.301973         2    ;  uncertainty k = 0.136759
        27         6         5        33     9        0.000000        0.351156         3    ;  uncertainty k = 0.216908
        27         6         5        33     9      180.000000       -0.024126         4    ;  uncertainty k = 0.076267
        27         6         5        34     9        0.000000        0.371592         1    ;  uncertainty k = 0.296882
        27         6         5        34     9      180.000000       -1.301973         2    ;  uncertainty k = 0.136759
        27         6         5        34     9        0.000000        0.351156         3    ;  uncertainty k = 0.216908
        27         6         5        34     9      180.000000       -0.024126         4    ;  uncertainty k = 0.076267
        27         6         7        36     9        0.000000       -1.290327         1    ;  uncertainty k = 0.383061
        27         6         7        36     9      180.000000       -0.982074         2    ;  uncertainty k = 0.087637
        27         6         7        36     9        0.000000        0.853293         3    ;  uncertainty k = 0.152121
        27         6         7        36     9      180.000000       -0.126432         4    ;  uncertainty k = 0.098935
        27         6         7        37     9        0.000000       -1.290327         1    ;  uncertainty k = 0.383061
        27         6         7        37     9      180.000000       -0.982074         2    ;  uncertainty k = 0.087637
        27         6         7        37     9        0.000000        0.853293         3    ;  uncertainty k = 0.152121
        27         6         7        37     9      180.000000       -0.126432         4    ;  uncertainty k = 0.098935
        27        26         9        40     9        0.000000       -0.650746         1    ;  uncertainty k = 0.295510
        27        26         9        40     9      180.000000        0.606612         2    ;  uncertainty k = 0.496824
        27        26         9        40     9        0.000000        0.102191         3    ;  uncertainty k = 0.298898
        27        26         9        40     9      180.000000       -0.143864         4    ;  uncertainty k = 0.130201
        28         1         2        29     9        0.000000       11.173041         1    ;  uncertainty k = 0.170923
        28         1         2        29     9      180.000000       -1.970447         2    ;  uncertainty k = 0.190572
        28         1         2        29     9        0.000000        0.732276         3    ;  uncertainty k = 0.045006
        28         1         2        29     9      180.000000        0.103871         4    ;  uncertainty k = 0.065154
        28         1         2        30     9        0.000000       11.173041         1    ;  uncertainty k = 0.170923
        28         1         2        30     9      180.000000       -1.970447         2    ;  uncertainty k = 0.190572
        28         1         2        30     9        0.000000        0.732276         3    ;  uncertainty k = 0.045006
        28         1         2        30     9      180.000000        0.103871         4    ;  uncertainty k = 0.065154
        29         2         3        31     9        0.000000       -0.079555         1    ;  uncertainty k = 0.215152
        29         2         3        31     9      180.000000       -0.014912         2    ;  uncertainty k = 0.100995
        29         2         3        31     9        0.000000        0.210029         3    ;  uncertainty k = 0.069919
        29         2         3        31     9      180.000000       -0.024461         4    ;  uncertainty k = 0.120741
        29         2         3        32     9        0.000000       -0.079555         1    ;  uncertainty k = 0.215152
        29         2         3        32     9      180.000000       -0.014912         2    ;  uncertainty k = 0.100995
        29         2         3        32     9        0.000000        0.210029         3    ;  uncertainty k = 0.069919
        29         2         3        32     9      180.000000       -0.024461         4    ;  uncertainty k = 0.120741
        30         2         3        31     9        0.000000       -0.079555         1    ;  uncertainty k = 0.215152
        30         2         3        31     9      180.000000       -0.014912         2    ;  uncertainty k = 0.100995
        30         2         3        31     9        0.000000        0.210029         3    ;  uncertainty k = 0.069919
        30         2         3        31     9      180.000000       -0.024461         4    ;  uncertainty k = 0.120741
        30         2         3        32     9        0.000000       -0.079555         1    ;  uncertainty k = 0.215152
        30         2         3        32     9      180.000000       -0.014912         2    ;  uncertainty k = 0.100995
        30         2         3        32     9        0.000000        0.210029         3    ;  uncertainty k = 0.069919
        30         2         3        32     9      180.000000       -0.024461         4    ;  uncertainty k = 0.120741
        31         3         4        51     9        0.000000        3.786484         1    ;  uncertainty k = 0.188008
        31         3         4        51     9      180.000000       -2.927637         2    ;  uncertainty k = 0.364441
        31         3         4        51     9        0.000000        0.018072         3    ;  uncertainty k = 0.112652
        31         3         4        51     9      180.000000        0.158965         4    ;  uncertainty k = 0.095257
        32         3         4        51     9        0.000000        3.786484         1    ;  uncertainty k = 0.188008
        32         3         4        51     9      180.000000       -2.927637         2    ;  uncertainty k = 0.364441
        32         3         4        51     9        0.000000        0.018072         3    ;  uncertainty k = 0.112652
        32         3         4        51     9      180.000000        0.158965         4    ;  uncertainty k = 0.095257
        33         5         4        51     9        0.000000        3.608402         1    ;  uncertainty k = 0.156217
        33         5         4        51     9      180.000000       -2.775697         2    ;  uncertainty k = 0.314929
        33         5         4        51     9        0.000000       -0.003009         3    ;  uncertainty k = 0.120127
        33         5         4        51     9      180.000000        0.158613         4    ;  uncertainty k = 0.072218
        33         5         6        35     9        0.000000       -0.031563         1    ;  uncertainty k = 0.145918
        33         5         6        35     9      180.000000       -0.155702         2    ;  uncertainty k = 0.195880
        33         5         6        35     9        0.000000        0.084709         3    ;  uncertainty k = 0.068710
        33         5         6        35     9      180.000000       -0.104526         4    ;  uncertainty k = 0.097698
        34         5         4        51     9        0.000000        3.608402         1    ;  uncertainty k = 0.156217
        34         5         4        51     9      180.000000       -2.775697         2    ;  uncertainty k = 0.314929
        34         5         4        51     9        0.000000       -0.003009         3    ;  uncertainty k = 0.120127
        34         5         4        51     9      180.000000        0.158613         4    ;  uncertainty k = 0.072218
        34         5         6        35     9        0.000000       -0.031563         1    ;  uncertainty k = 0.145918
        34         5         6        35     9      180.000000       -0.155702         2    ;  uncertainty k = 0.195880
        34         5         6        35     9        0.000000        0.084709         3    ;  uncertainty k = 0.068710
        34         5         6        35     9      180.000000       -0.104526         4    ;  uncertainty k = 0.097698
        35         6         7        36     9        0.000000        0.232084         1    ;  uncertainty k = 0.304861
        35         6         7        36     9      180.000000        0.146249         2    ;  uncertainty k = 0.382879
        35         6         7        36     9        0.000000       -0.036926         3    ;  uncertainty k = 0.084692
        35         6         7        36     9      180.000000       -0.202300         4    ;  uncertainty k = 0.104893
        35         6         7        37     9        0.000000        0.232084         1    ;  uncertainty k = 0.304861
        35         6         7        37     9      180.000000        0.146249         2    ;  uncertainty k = 0.382879
        35         6         7        37     9        0.000000       -0.036926         3    ;  uncertainty k = 0.084692
        35         6         7        37     9      180.000000       -0.202300         4    ;  uncertainty k = 0.104893
        36         7         8        38     9        0.000000        1.668533         1    ;  uncertainty k = 0.432977
        36         7         8        38     9      180.000000        0.114741         2    ;  uncertainty k = 0.247989
        36         7         8        38     9        0.000000        0.345276         3    ;  uncertainty k = 0.102093
        36         7         8        38     9      180.000000        0.074716         4    ;  uncertainty k = 0.026488
        36         7         8        39     9        0.000000        1.668533         1    ;  uncertainty k = 0.432977
        36         7         8        39     9      180.000000        0.114741         2    ;  uncertainty k = 0.247989
        36         7         8        39     9        0.000000        0.345276         3    ;  uncertainty k = 0.102093
        36         7         8        39     9      180.000000        0.074716         4    ;  uncertainty k = 0.026488
        37         7         8        38     9        0.000000        1.668533         1    ;  uncertainty k = 0.432977
        37         7         8        38     9      180.000000        0.114741         2    ;  uncertainty k = 0.247989
        37         7         8        38     9        0.000000        0.345276         3    ;  uncertainty k = 0.102093
        37         7         8        38     9      180.000000        0.074716         4    ;  uncertainty k = 0.026488
        37         7         8        39     9        0.000000        1.668533         1    ;  uncertainty k = 0.432977
        37         7         8        39     9      180.000000        0.114741         2    ;  uncertainty k = 0.247989
        37         7         8        39     9        0.000000        0.345276         3    ;  uncertainty k = 0.102093
        37         7         8        39     9      180.000000        0.074716         4    ;  uncertainty k = 0.026488
        38         8         9        40     9        0.000000        1.545255         1    ;  uncertainty k = 0.344376
        38         8         9        40     9      180.000000       -0.020689         2    ;  uncertainty k = 0.342600
        38         8         9        40     9        0.000000       -0.070632         3    ;  uncertainty k = 0.119714
        38         8         9        40     9      180.000000        0.013810         4    ;  uncertainty k = 0.071778
        39         8         9        40     9        0.000000        1.545255         1    ;  uncertainty k = 0.344376
        39         8         9        40     9      180.000000       -0.020689         2    ;  uncertainty k = 0.342600
        39         8         9        40     9        0.000000       -0.070632         3    ;  uncertainty k = 0.119714
        39         8         9        40     9      180.000000        0.013810         4    ;  uncertainty k = 0.071778
        40         9        10        41     9        0.000000        1.060795         1    ;  uncertainty k = 0.473342
        40         9        10        41     9      180.000000       -0.041496         2    ;  uncertainty k = 0.253895
        40         9        10        41     9        0.000000       -0.344094         3    ;  uncertainty k = 0.165557
        40         9        10        41     9      180.000000       -0.269487         4    ;  uncertainty k = 0.106351
        40         9        26        50     9        0.000000        2.054593         1    ;  uncertainty k = 0.475699
        40         9        26        50     9      180.000000        0.848892         2    ;  uncertainty k = 0.461645
        40         9        26        50     9        0.000000       -0.480017         3    ;  uncertainty k = 0.226856
        40         9        26        50     9      180.000000       -0.167237         4    ;  uncertainty k = 0.068693
        41        10        17        47     9        0.000000        0.363982         1    ;  uncertainty k = 0.625038
        41        10        17        47     9      180.000000       -0.862575         2    ;  uncertainty k = 0.318184
        41        10        17        47     9        0.000000        0.523809         3    ;  uncertainty k = 0.251385
        41        10        17        47     9      180.000000        0.051527         4    ;  uncertainty k = 0.122685
        42        12        13        43     9        0.000000       -0.038401         1    ;  uncertainty k = 0.034127
        42        12        13        43     9      180.000000        7.644154         2    ;  uncertainty k = 0.255448
        42        12        13        43     9        0.000000       -0.470075         3    ;  uncertainty k = 0.270053
        42        12        13        43     9      180.000000        0.106023         4    ;  uncertainty k = 0.117776
        43        13        14        44     9        0.000000       -0.016279         1    ;  uncertainty k = 0.090335
        43        13        14        44     9      180.000000        7.510681         2    ;  uncertainty k = 0.369437
        43        13        14        44     9        0.000000       -0.422665         3    ;  uncertainty k = 0.276612
        43        13        14        44     9      180.000000        0.041075         4    ;  uncertainty k = 0.155578
        44        14        15        45     9        0.000000       -0.016279         1    ;  uncertainty k = 0.090335
        44        14        15        45     9      180.000000        7.510681         2    ;  uncertainty k = 0.369437
        44        14        15        45     9        0.000000       -0.422665         3    ;  uncertainty k = 0.276612
        44        14        15        45     9      180.000000        0.041075         4    ;  uncertainty k = 0.155578
        45        15        16        46     9        0.000000       -0.038401         1    ;  uncertainty k = 0.034127
        45        15        16        46     9      180.000000        7.644155         2    ;  uncertainty k = 0.255448
        45        15        16        46     9        0.000000       -0.470075         3    ;  uncertainty k = 0.270053
        45        15        16        46     9      180.000000        0.106023         4    ;  uncertainty k = 0.117776

[ dihedrals ] ; impropers
;       ai        aj        ak        al funct           phase               k        pn
        11        10        12        16     4      180.000000       12.872177         2    ;  uncertainty k = 0.122291
        11        12        16        10     4      180.000000       12.872177         2    ;  uncertainty k = 0.122291
        11        16        10        12     4      180.000000       12.872177         2    ;  uncertainty k = 0.122291
        12        11        13        42     4      180.000000        4.073199         2    ;  uncertainty k = 0.089533
        12        13        42        11     4      180.000000        4.073199         2    ;  uncertainty k = 0.089533
        12        42        11        13     4      180.000000        4.073199         2    ;  uncertainty k = 0.089533
        13        12        14        43     4      180.000000        4.075594         2    ;  uncertainty k = 0.076311
        13        14        43        12     4      180.000000        4.075594         2    ;  uncertainty k = 0.076311
        13        43        12        14     4      180.000000        4.075594         2    ;  uncertainty k = 0.076311
        14        13        15        44     4      180.000000        4.286747         2    ;  uncertainty k = 0.163794
        14        15        44        13     4      180.000000        4.286747         2    ;  uncertainty k = 0.163794
        14        44        13        15     4      180.000000        4.286747         2    ;  uncertainty k = 0.163794
        15        14        16        45     4      180.000000        4.075594         2    ;  uncertainty k = 0.076311
        15        16        45        14     4      180.000000        4.075594         2    ;  uncertainty k = 0.076311
        15        45        14        16     4      180.000000        4.075594         2    ;  uncertainty k = 0.076311
        16        11        15        46     4      180.000000        4.073199         2    ;  uncertainty k = 0.089533
        16        15        46        11     4      180.000000        4.073199         2    ;  uncertainty k = 0.089533
        16        46        11        15     4      180.000000        4.073199         2    ;  uncertainty k = 0.089533
        18        17        19        25     4      180.000000       17.952400         2    ;  uncertainty k = 0.124101
        18        19        25        17     4      180.000000       17.952400         2    ;  uncertainty k = 0.124101
        18        25        17        19     4      180.000000       17.952400         2    ;  uncertainty k = 0.124101
        19        18        20        21     4      180.000000       10.328731         2    ;  uncertainty k = 0.196745
        19        20        21        18     4      180.000000       10.328731         2    ;  uncertainty k = 0.196745
        19        21        18        20     4      180.000000       10.328731         2    ;  uncertainty k = 0.196745
        21        19        22        48     4      180.000000        1.958612         2    ;  uncertainty k = 0.141592
        21        22        48        19     4      180.000000        1.958612         2    ;  uncertainty k = 0.141592
        21        48        19        22     4      180.000000        1.958612         2    ;  uncertainty k = 0.141592
        22        21        23        24     4      180.000000       12.122902         2    ;  uncertainty k = 0.097134
        22        23        24        21     4      180.000000       12.122902         2    ;  uncertainty k = 0.097134
        22        24        21        23     4      180.000000       12.122902         2    ;  uncertainty k = 0.097134
        24        22        25        49     4      180.000000        3.249554         2    ;  uncertainty k = 0.202882
        24        25        49        22     4      180.000000        3.249554         2    ;  uncertainty k = 0.202882
        24        49        22        25     4      180.000000        3.249554         2    ;  uncertainty k = 0.202882
        25        18        24        26     4      180.000000       10.996485         2    ;  uncertainty k = 0.232187
        25        24        26        18     4      180.000000       10.996485         2    ;  uncertainty k = 0.232187
        25        26        18        24     4      180.000000       10.996485         2    ;  uncertainty k = 0.232187

[ pairs ]
;       ai        aj funct
         1         4     1
         1        31     1
         1        32     1
         2         5     1
         2        51     1
         3         6     1
         3        28     1
         3        33     1
         3        34     1
         4         7     1
         4        27     1
         4        29     1
         4        30     1
         4        35     1
         5         8     1
         5        26     1
         5        31     1
         5        32     1
         5        36     1
         5        37     1
         6         9     1
         6        25     1
         6        38     1
         6        39     1
         6        50     1
         6        51     1
         7        10     1
         7        26     1
         7        33     1
         7        34     1
         7        40     1
         8        11     1
         8        17     1
         8        25     1
         8        27     1
         8        35     1
         8        41     1
         8        50     1
         9        12     1
         9        16     1
         9        18     1
         9        24     1
         9        36     1
         9        37     1
         9        47     1
        10        13     1
        10        15     1
        10        19     1
        10        25     1
        10        27     1
        10        38     1
        10        39     1
        10        42     1
        10        46     1
        10        50     1
        11        14     1
        11        18     1
        11        26     1
        11        40     1
        11        43     1
        11        45     1
        11        47     1
        12        15     1
        12        17     1
        12        41     1
        12        44     1
        12        46     1
        13        16     1
        13        45     1
        14        42     1
        14        46     1
        15        43     1
        16        17     1
        16        41     1
        16        42     1
        16        44     1
        17        20     1
        17        21     1
        17        24     1
        17        26     1
        17        40     1
        18        22     1
        18        27     1
        18        41     1
        18        48     1
        18        49     1
        18        50     1
        19        23     1
        19        24     1
        19        26     1
        19        47     1
        20        22     1
        20        25     1
        20        48     1
        21        25     1
        21        49     1
        22        26     1
        23        25     1
        23        48     1
        23        49     1
        24        27     1
        24        48     1
        24        50     1
        25        40     1
        25        47     1
        26        35     1
        26        38     1
        26        39     1
        26        41     1
        26        49     1
        27        33     1
        27        34     1
        27        36     1
        27        37     1
        27        40     1
        28        29     1
        28        30     1
        29        31     1
        29        32     1
        30        31     1
        30        32     1
        31        51     1
        32        51     1
        33        35     1
        33        51     1
        34        35     1
        34        51     1
        35        36     1
        35        37     1
        36        38     1
        36        39     1
        37        38     1
        37        39     1
        38        40     1
        39        40     1
        40        41     1
        40        50     1
        41        47     1
        42        43     1
        43        44     1
        44        45     1
        45        46     1
