; ITP file created by ByteFF-joint-25, 2026-02-17 09:17:01.952195

[ atomtypes ]
;name           bonded.type        at.num        mass        charge   ptype           sigma         epsilon
 c0bf                                   6      0.0000       0.00000       A     3.39768e-01     4.51334e-01    ;  uncertainty sigma = 0.000008, epsilon = 0.001067
 n1bf                                   7      0.0000       0.00000       A     2.67797e-01     7.09621e+00    ;  uncertainty sigma = 0.000075, epsilon = 0.008221
 c2bf                                   6      0.0000       0.00000       A     3.39787e-01     4.52439e-01    ;  uncertainty sigma = 0.000034, epsilon = 0.001397
 c3bf                                   6      0.0000       0.00000       A     3.39780e-01     4.51679e-01    ;  uncertainty sigma = 0.000029, epsilon = 0.001962
 c4bf                                   6      0.0000       0.00000       A     3.39767e-01     4.50486e-01    ;  uncertainty sigma = 0.000012, epsilon = 0.000632
 c5bf                                   6      0.0000       0.00000       A     3.39742e-01     4.51320e-01    ;  uncertainty sigma = 0.000014, epsilon = 0.001137
 c6bf                                   6      0.0000       0.00000       A     3.39755e-01     4.50973e-01    ;  uncertainty sigma = 0.000035, epsilon = 0.000615
 c7bf                                   6      0.0000       0.00000       A     3.39774e-01     4.51693e-01    ;  uncertainty sigma = 0.000009, epsilon = 0.001676
 c8bf                                   6      0.0000       0.00000       A     3.31536e-01     4.13188e-01    ;  uncertainty sigma = 0.000008, epsilon = 0.001008
 c9bf                                   6      0.0000       0.00000       A     3.31532e-01     4.13560e-01    ;  uncertainty sigma = 0.000004, epsilon = 0.000507
 c10bf                                  6      0.0000       0.00000       A     3.31528e-01     4.13615e-01    ;  uncertainty sigma = 0.000006, epsilon = 0.000352
 c11bf                                  6      0.0000       0.00000       A     3.31532e-01     4.12925e-01    ;  uncertainty sigma = 0.000019, epsilon = 0.000414
 o12bf                                  8      0.0000       0.00000       A     3.24339e-01     3.89161e-01    ;  uncertainty sigma = 0.000023, epsilon = 0.001003
 c13bf                                  6      0.0000       0.00000       A     3.31528e-01     4.13615e-01    ;  uncertainty sigma = 0.000006, epsilon = 0.000352
 c14bf                                  6      0.0000       0.00000       A     3.31532e-01     4.13560e-01    ;  uncertainty sigma = 0.000004, epsilon = 0.000507
 n15bf                                  7      0.0000       0.00000       A     3.27909e-01     6.44316e-01    ;  uncertainty sigma = 0.000015, epsilon = 0.004120
 c16bf                                  6      0.0000       0.00000       A     3.31548e-01     4.13221e-01    ;  uncertainty sigma = 0.000016, epsilon = 0.001142
 c17bf                                  6      0.0000       0.00000       A     3.31520e-01     4.13421e-01    ;  uncertainty sigma = 0.000010, epsilon = 0.000475
 c18bf                                  6      0.0000       0.00000       A     3.31512e-01     4.13402e-01    ;  uncertainty sigma = 0.000007, epsilon = 0.000559
 c19bf                                  6      0.0000       0.00000       A     3.31517e-01     4.13262e-01    ;  uncertainty sigma = 0.000010, epsilon = 0.000628
 c20bf                                  6      0.0000       0.00000       A     3.39792e-01     4.50242e-01    ;  uncertainty sigma = 0.000013, epsilon = 0.000578
 f21bf                                  9      0.0000       0.00000       A     3.03451e-01     3.47806e-01    ;  uncertainty sigma = 0.000008, epsilon = 0.001323
 f22bf                                  9      0.0000       0.00000       A     3.03451e-01     3.47806e-01    ;  uncertainty sigma = 0.000008, epsilon = 0.001323
 f23bf                                  9      0.0000       0.00000       A     3.03451e-01     3.47806e-01    ;  uncertainty sigma = 0.000008, epsilon = 0.001323
 c24bf                                  6      0.0000       0.00000       A     3.31532e-01     4.13181e-01    ;  uncertainty sigma = 0.000009, epsilon = 0.000749
 c25bf                                  6      0.0000       0.00000       A     3.31540e-01     4.13241e-01    ;  uncertainty sigma = 0.000019, epsilon = 0.000618
 c26bf                                  6      0.0000       0.00000       A     3.39767e-01     4.51050e-01    ;  uncertainty sigma = 0.000019, epsilon = 0.001452
 o27bf                                  8      0.0000       0.00000       A     3.15622e-01     3.04459e-01    ;  uncertainty sigma = 0.000041, epsilon = 0.000889
 h28bf                                  1      0.0000       0.00000       A     1.88778e-01     8.64165e-02    ;  uncertainty sigma = 0.000038, epsilon = 0.000604
 h29bf                                  1      0.0000       0.00000       A     1.88778e-01     8.64165e-02    ;  uncertainty sigma = 0.000038, epsilon = 0.000604
 h30bf                                  1      0.0000       0.00000       A     1.88778e-01     8.64165e-02    ;  uncertainty sigma = 0.000038, epsilon = 0.000604
 h31bf                                  1      0.0000       0.00000       A     1.10712e-01     4.13743e-02    ;  uncertainty sigma = 0.000101, epsilon = 0.000413
 h32bf                                  1      0.0000       0.00000       A     1.88689e-01     8.72656e-02    ;  uncertainty sigma = 0.000114, epsilon = 0.000631
 h33bf                                  1      0.0000       0.00000       A     1.88689e-01     8.72656e-02    ;  uncertainty sigma = 0.000114, epsilon = 0.000631
 h34bf                                  1      0.0000       0.00000       A     2.42333e-01     8.61424e-02    ;  uncertainty sigma = 0.000111, epsilon = 0.001611
 h35bf                                  1      0.0000       0.00000       A     2.60030e-01     8.64970e-02    ;  uncertainty sigma = 0.000010, epsilon = 0.000714
 h36bf                                  1      0.0000       0.00000       A     2.60030e-01     8.64970e-02    ;  uncertainty sigma = 0.000010, epsilon = 0.000714
 h37bf                                  1      0.0000       0.00000       A     2.60028e-01     8.66832e-02    ;  uncertainty sigma = 0.000010, epsilon = 0.000720
 h38bf                                  1      0.0000       0.00000       A     2.60028e-01     8.66832e-02    ;  uncertainty sigma = 0.000010, epsilon = 0.000720
 h39bf                                  1      0.0000       0.00000       A     2.59938e-01     8.64077e-02    ;  uncertainty sigma = 0.000052, epsilon = 0.000980
 h40bf                                  1      0.0000       0.00000       A     2.42303e-01     8.69597e-02    ;  uncertainty sigma = 0.000074, epsilon = 0.001557
 h41bf                                  1      0.0000       0.00000       A     2.62564e-01     6.70544e-02    ;  uncertainty sigma = 0.000011, epsilon = 0.000511
 h42bf                                  1      0.0000       0.00000       A     2.62564e-01     6.70132e-02    ;  uncertainty sigma = 0.000016, epsilon = 0.000193
 h43bf                                  1      0.0000       0.00000       A     5.38147e-02     1.95309e-02    ;  uncertainty sigma = 0.000093, epsilon = 0.001119
 h44bf                                  1      0.0000       0.00000       A     2.62564e-01     6.70132e-02    ;  uncertainty sigma = 0.000016, epsilon = 0.000193
 h45bf                                  1      0.0000       0.00000       A     2.62564e-01     6.70544e-02    ;  uncertainty sigma = 0.000011, epsilon = 0.000511
 h46bf                                  1      0.0000       0.00000       A     1.10675e-01     4.07500e-02    ;  uncertainty sigma = 0.000109, epsilon = 0.000764
 h47bf                                  1      0.0000       0.00000       A     2.62577e-01     6.70680e-02    ;  uncertainty sigma = 0.000013, epsilon = 0.000535
 h48bf                                  1      0.0000       0.00000       A     2.62556e-01     6.71146e-02    ;  uncertainty sigma = 0.000013, epsilon = 0.000508
 h49bf                                  1      0.0000       0.00000       A     2.62531e-01     6.70779e-02    ;  uncertainty sigma = 0.000022, epsilon = 0.000511
 h50bf                                  1      0.0000       0.00000       A     2.42239e-01     8.76589e-02    ;  uncertainty sigma = 0.000274, epsilon = 0.002166
 h51bf                                  1      0.0000       0.00000       A     1.10712e-01     4.13743e-02    ;  uncertainty sigma = 0.000101, epsilon = 0.000413

[ moleculetype ]
;name             nrexcl
 MOL                   3

[ atoms ]
;       nr            type      resi   res      atom      cgnr      charge          mass ; qtot
         1            c0bf         1   UNL        c0         1     0.11949       12.0110 ; qtot    0.119
         2            n1bf         1   UNL        n1         2    -0.78217       14.0070 ; qtot   -0.663
         3            c2bf         1   UNL        c2         3     0.12987       12.0110 ; qtot   -0.533
         4            c3bf         1   UNL        c3         4     0.12361       12.0110 ; qtot   -0.409
         5            c4bf         1   UNL        c4         5    -0.10286       12.0110 ; qtot   -0.512
         6            c5bf         1   UNL        c5         6    -0.06959       12.0110 ; qtot   -0.582
         7            c6bf         1   UNL        c6         7    -0.09508       12.0110 ; qtot   -0.677
         8            c7bf         1   UNL        c7         8     0.26133       12.0110 ; qtot   -0.415
         9            c8bf         1   UNL        c8         9    -0.13321       12.0110 ; qtot   -0.549
        10            c9bf         1   UNL        c9        10    -0.08506       12.0110 ; qtot   -0.634
        11           c10bf         1   UNL       c10        11    -0.18966       12.0110 ; qtot   -0.823
        12           c11bf         1   UNL       c11        12     0.13390       12.0110 ; qtot   -0.689
        13           o12bf         1   UNL       o12        13    -0.49803       15.9990 ; qtot   -1.187
        14           c13bf         1   UNL       c13        14    -0.18966       12.0110 ; qtot   -1.377
        15           c14bf         1   UNL       c14        15    -0.08506       12.0110 ; qtot   -1.462
        16           n15bf         1   UNL       n15        16    -0.73726       14.0070 ; qtot   -2.199
        17           c16bf         1   UNL       c16        17     0.18349       12.0110 ; qtot   -2.016
        18           c17bf         1   UNL       c17        18    -0.20421       12.0110 ; qtot   -2.220
        19           c18bf         1   UNL       c18        19    -0.02807       12.0110 ; qtot   -2.248
        20           c19bf         1   UNL       c19        20    -0.22948       12.0110 ; qtot   -2.478
        21           c20bf         1   UNL       c20        21     0.71240       12.0110 ; qtot   -1.765
        22           f21bf         1   UNL       f21        22    -0.22895       18.9980 ; qtot   -1.994
        23           f22bf         1   UNL       f22        23    -0.22895       18.9980 ; qtot   -2.223
        24           f23bf         1   UNL       f23        24    -0.22895       18.9980 ; qtot   -2.452
        25           c24bf         1   UNL       c24        25    -0.01242       12.0110 ; qtot   -2.465
        26           c25bf         1   UNL       c25        26    -0.15637       12.0110 ; qtot   -2.621
        27           c26bf         1   UNL       c26        27     0.20395       12.0110 ; qtot   -2.417
        28           o27bf         1   UNL       o27        28    -0.42642       15.9990 ; qtot   -2.843
        29           h28bf         1   UNL       h28        29     0.10873        1.0080 ; qtot   -2.735
        30           h29bf         1   UNL       h29        30     0.10873        1.0080 ; qtot   -2.626
        31           h30bf         1   UNL       h30        31     0.10873        1.0080 ; qtot   -2.517
        32           h31bf         1   UNL       h31        32     0.46300        1.0080 ; qtot   -2.054
        33           h32bf         1   UNL       h32        33     0.11437        1.0080 ; qtot   -1.940
        34           h33bf         1   UNL       h33        34     0.11437        1.0080 ; qtot   -1.825
        35           h34bf         1   UNL       h34        35     0.08383        1.0080 ; qtot   -1.742
        36           h35bf         1   UNL       h35        36     0.07203        1.0080 ; qtot   -1.670
        37           h36bf         1   UNL       h36        37     0.07203        1.0080 ; qtot   -1.598
        38           h37bf         1   UNL       h37        38     0.05761        1.0080 ; qtot   -1.540
        39           h38bf         1   UNL       h38        39     0.05761        1.0080 ; qtot   -1.482
        40           h39bf         1   UNL       h39        40     0.06904        1.0080 ; qtot   -1.413
        41           h40bf         1   UNL       h40        41     0.05360        1.0080 ; qtot   -1.360
        42           h41bf         1   UNL       h41        42     0.13837        1.0080 ; qtot   -1.221
        43           h42bf         1   UNL       h42        43     0.14062        1.0080 ; qtot   -1.081
        44           h43bf         1   UNL       h43        44     0.42411        1.0080 ; qtot   -0.657
        45           h44bf         1   UNL       h44        45     0.14062        1.0080 ; qtot   -0.516
        46           h45bf         1   UNL       h45        46     0.13837        1.0080 ; qtot   -0.378
        47           h46bf         1   UNL       h46        47     0.40889        1.0080 ; qtot    0.031
        48           h47bf         1   UNL       h47        48     0.13718        1.0080 ; qtot    0.168
        49           h48bf         1   UNL       h48        49     0.15124        1.0080 ; qtot    0.320
        50           h49bf         1   UNL       h49        50     0.15267        1.0080 ; qtot    0.472
        51           h50bf         1   UNL       h50        51     0.06470        1.0080 ; qtot    0.537
        52           h51bf         1   UNL       h51        52     0.46297        1.0080 ; qtot    1.000

[ bonds ]
;       ai        aj funct               r               k
         1         2     1        0.150483   206081.638037    ;  uncertainty r = 0.000127, k = 26.323707
         1        29     1        0.108971   315101.039111    ;  uncertainty r = 0.000019, k = 3.510024
         1        30     1        0.108971   315101.039111    ;  uncertainty r = 0.000019, k = 3.510024
         1        31     1        0.108971   315101.039111    ;  uncertainty r = 0.000019, k = 3.510024
         2         3     1        0.151116   193505.569312    ;  uncertainty r = 0.000091, k = 20.286602
         2        32     1        0.102983   385701.467969    ;  uncertainty r = 0.000064, k = 3.804169
         2        52     1        0.102983   385701.416895    ;  uncertainty r = 0.000064, k = 3.804183
         3         4     1        0.153088   198525.935181    ;  uncertainty r = 0.000227, k = 18.576038
         3        33     1        0.109071   316699.023730    ;  uncertainty r = 0.000066, k = 2.655839
         3        34     1        0.109071   316699.023730    ;  uncertainty r = 0.000066, k = 2.655839
         4         5     1        0.152867   204697.437329    ;  uncertainty r = 0.000152, k = 9.509181
         4        28     1        0.142399   237284.895703    ;  uncertainty r = 0.000162, k = 14.123978
         4        35     1        0.110046   305044.499902    ;  uncertainty r = 0.000072, k = 6.484756
         5         6     1        0.153416   212553.456592    ;  uncertainty r = 0.000104, k = 6.460390
         5        36     1        0.109581   309786.868799    ;  uncertainty r = 0.000017, k = 2.349016
         5        37     1        0.109581   309786.868799    ;  uncertainty r = 0.000017, k = 2.349016
         6         7     1        0.153228   204659.846704    ;  uncertainty r = 0.000107, k = 7.769012
         6        38     1        0.109545   307326.649219    ;  uncertainty r = 0.000013, k = 1.975637
         6        39     1        0.109545   307326.649219    ;  uncertainty r = 0.000013, k = 1.975637
         7         8     1        0.153739   194039.869482    ;  uncertainty r = 0.000049, k = 9.258939
         7        27     1        0.153198   193782.161743    ;  uncertainty r = 0.000151, k = 8.880194
         7        40     1        0.109712   307584.676172    ;  uncertainty r = 0.000061, k = 3.997510
         8         9     1        0.151661   221659.325830    ;  uncertainty r = 0.000081, k = 5.943915
         8        16     1        0.146438   246437.395703    ;  uncertainty r = 0.000120, k = 17.715154
         8        41     1        0.110060   298327.090967    ;  uncertainty r = 0.000134, k = 4.183524
         9        10     1        0.139887   350295.798047    ;  uncertainty r = 0.000036, k = 1.632771
         9        15     1        0.139887   350295.798047    ;  uncertainty r = 0.000036, k = 1.632771
        10        11     1        0.139263   367093.955371    ;  uncertainty r = 0.000049, k = 2.721322
        10        42     1        0.108801   333935.142480    ;  uncertainty r = 0.000030, k = 1.118862
        11        12     1        0.139607   368935.793848    ;  uncertainty r = 0.000038, k = 3.283916
        11        43     1        0.108949   337613.916309    ;  uncertainty r = 0.000022, k = 1.036535
        12        13     1        0.137913   354329.920752    ;  uncertainty r = 0.000038, k = 2.560850
        12        14     1        0.139607   368935.793848    ;  uncertainty r = 0.000038, k = 3.283916
        13        44     1        0.097380   487005.648633    ;  uncertainty r = 0.000018, k = 3.365336
        14        15     1        0.139263   367093.904297    ;  uncertainty r = 0.000049, k = 2.721340
        14        45     1        0.108949   337613.916309    ;  uncertainty r = 0.000022, k = 1.036535
        15        46     1        0.108801   333935.168018    ;  uncertainty r = 0.000030, k = 1.118862
        16        17     1        0.139955   343991.477393    ;  uncertainty r = 0.000126, k = 9.082280
        16        47     1        0.101439   412844.299707    ;  uncertainty r = 0.000047, k = 2.472846
        17        18     1        0.140865   368811.428125    ;  uncertainty r = 0.000044, k = 7.230090
        17        26     1        0.140838   346500.498389    ;  uncertainty r = 0.000177, k = 22.908260
        18        19     1        0.138816   370640.140527    ;  uncertainty r = 0.000068, k = 3.048045
        18        48     1        0.108921   336733.064795    ;  uncertainty r = 0.000029, k = 1.483001
        19        20     1        0.139378   352395.893311    ;  uncertainty r = 0.000125, k = 2.402639
        19        49     1        0.108598   332329.164746    ;  uncertainty r = 0.000022, k = 1.147973
        20        21     1        0.149257   213835.534399    ;  uncertainty r = 0.000082, k = 4.037128
        20        25     1        0.139076   345540.047705    ;  uncertainty r = 0.000116, k = 2.172409
        21        22     1        0.135370   287114.180371    ;  uncertainty r = 0.000024, k = 3.515911
        21        23     1        0.135370   287114.180371    ;  uncertainty r = 0.000024, k = 3.515911
        21        24     1        0.135370   287114.180371    ;  uncertainty r = 0.000024, k = 3.515911
        25        26     1        0.139099   350903.249268    ;  uncertainty r = 0.000165, k = 2.364266
        25        50     1        0.108699   332543.880762    ;  uncertainty r = 0.000028, k = 1.734934
        26        27     1        0.150773   220986.780518    ;  uncertainty r = 0.000092, k = 12.081243
        27        28     1        0.144706   219071.548389    ;  uncertainty r = 0.000485, k = 6.744784
        27        51     1        0.110015   305474.493750    ;  uncertainty r = 0.000069, k = 4.468958

[ angles ]
;       ai        aj        ak funct           theta             cth
         1         2         3     1      114.120590      627.009199    ;  uncertainty theta = 0.004769, k = 0.177844
         1         2        32     1      108.045982      455.367615    ;  uncertainty theta = 0.003064, k = 0.184078
         1         2        52     1      108.045982      455.367615    ;  uncertainty theta = 0.003064, k = 0.184078
         2         1        29     1      107.931419      474.361096    ;  uncertainty theta = 0.002343, k = 0.076148
         2         1        30     1      107.931419      474.361096    ;  uncertainty theta = 0.002343, k = 0.076148
         2         1        31     1      107.931419      474.361096    ;  uncertainty theta = 0.002343, k = 0.076148
         2         3         4     1      109.598450      697.693364    ;  uncertainty theta = 0.004814, k = 0.255220
         2         3        33     1      106.173927      463.691021    ;  uncertainty theta = 0.004234, k = 0.056842
         2         3        34     1      106.173927      463.691021    ;  uncertainty theta = 0.004234, k = 0.056842
         3         2        32     1      108.767532      433.355904    ;  uncertainty theta = 0.002716, k = 0.090610
         3         2        52     1      108.767532      433.355968    ;  uncertainty theta = 0.002716, k = 0.090610
         3         4         5     1      111.614769      560.640997    ;  uncertainty theta = 0.007674, k = 0.188529
         3         4        28     1      105.573448      576.645614    ;  uncertainty theta = 0.004356, k = 0.105581
         3         4        35     1      108.340309      391.475523    ;  uncertainty theta = 0.003241, k = 0.118548
         4         3        33     1      110.351929      396.491490    ;  uncertainty theta = 0.002550, k = 0.130995
         4         3        34     1      110.351929      396.491490    ;  uncertainty theta = 0.002550, k = 0.130995
         4         5         6     1      108.895370      585.539551    ;  uncertainty theta = 0.003340, k = 0.194982
         4         5        36     1      107.555092      391.789726    ;  uncertainty theta = 0.001626, k = 0.061237
         4         5        37     1      107.555092      391.789726    ;  uncertainty theta = 0.001626, k = 0.061237
         4        28        27     1      110.493088      514.162213    ;  uncertainty theta = 0.009433, k = 0.134862
         5         4        28     1      111.184608      678.864534    ;  uncertainty theta = 0.004632, k = 0.105968
         5         4        35     1      109.805496      407.525437    ;  uncertainty theta = 0.003064, k = 0.039288
         5         6         7     1      109.833923      574.050916    ;  uncertainty theta = 0.003440, k = 0.116783
         5         6        38     1      108.479469      406.340866    ;  uncertainty theta = 0.002257, k = 0.104005
         5         6        39     1      108.479469      406.340866    ;  uncertainty theta = 0.002257, k = 0.104005
         6         5        36     1      109.112206      400.373163    ;  uncertainty theta = 0.000987, k = 0.042731
         6         5        37     1      109.112206      400.373163    ;  uncertainty theta = 0.000987, k = 0.042731
         6         7         8     1      110.557518      550.414534    ;  uncertainty theta = 0.001258, k = 0.165602
         6         7        27     1      109.601540      585.075414    ;  uncertainty theta = 0.002027, k = 0.137957
         6         7        40     1      107.962402      399.558210    ;  uncertainty theta = 0.002830, k = 0.103744
         7         6        38     1      108.184448      389.052562    ;  uncertainty theta = 0.001625, k = 0.073415
         7         6        39     1      108.184448      389.052562    ;  uncertainty theta = 0.001625, k = 0.073415
         7         8         9     1      111.682938      538.434948    ;  uncertainty theta = 0.001983, k = 0.164799
         7         8        16     1      108.357506      705.618040    ;  uncertainty theta = 0.004557, k = 0.110169
         7         8        41     1      107.075500      386.196237    ;  uncertainty theta = 0.002778, k = 0.128014
         7        27        26     1      111.838341      557.189912    ;  uncertainty theta = 0.003775, k = 0.225156
         7        27        28     1      110.734375      664.423746    ;  uncertainty theta = 0.005412, k = 0.063943
         7        27        51     1      108.154518      394.132468    ;  uncertainty theta = 0.003973, k = 0.122859
         8         7        27     1      109.341347      553.779495    ;  uncertainty theta = 0.004719, k = 0.138692
         8         7        40     1      105.964149      389.824868    ;  uncertainty theta = 0.001608, k = 0.093762
         8         9        10     1      120.087585      425.624480    ;  uncertainty theta = 0.003018, k = 0.122837
         8         9        15     1      120.087585      425.624480    ;  uncertainty theta = 0.003018, k = 0.122837
         8        16        17     1      114.218887      391.657507    ;  uncertainty theta = 0.007311, k = 0.149022
         8        16        47     1      110.064499      352.462577    ;  uncertainty theta = 0.003551, k = 0.095281
         9         8        16     1      111.072670      668.407918    ;  uncertainty theta = 0.001040, k = 0.164241
         9         8        41     1      106.316879      411.165656    ;  uncertainty theta = 0.002354, k = 0.101809
         9        10        11     1      121.940514      515.405200    ;  uncertainty theta = 0.002282, k = 0.025045
         9        10        42     1      118.869888      266.720583    ;  uncertainty theta = 0.002006, k = 0.064213
         9        15        14     1      121.940514      515.405200    ;  uncertainty theta = 0.002282, k = 0.025045
         9        15        46     1      118.869888      266.720583    ;  uncertainty theta = 0.002006, k = 0.064213
        10         9        15     1      119.928040      474.220737    ;  uncertainty theta = 0.003492, k = 0.142060
        10        11        12     1      117.830666      521.778305    ;  uncertainty theta = 0.002147, k = 0.052010
        10        11        43     1      121.370041      282.338090    ;  uncertainty theta = 0.000828, k = 0.054708
        11        10        42     1      119.424484      288.353611    ;  uncertainty theta = 0.001309, k = 0.053534
        11        12        13     1      123.244995      468.920766    ;  uncertainty theta = 0.000701, k = 0.060280
        11        12        14     1      117.966835      386.528155    ;  uncertainty theta = 0.007359, k = 0.098022
        12        11        43     1      120.096512      306.363530    ;  uncertainty theta = 0.001018, k = 0.115743
        12        13        44     1      107.952003      437.628230    ;  uncertainty theta = 0.001125, k = 0.044149
        12        14        15     1      117.830666      521.778305    ;  uncertainty theta = 0.002147, k = 0.052010
        12        14        45     1      120.096512      306.363530    ;  uncertainty theta = 0.001018, k = 0.115743
        13        12        14     1      123.244995      468.920766    ;  uncertainty theta = 0.000701, k = 0.060280
        14        15        46     1      119.424484      288.353611    ;  uncertainty theta = 0.001309, k = 0.053534
        15        14        45     1      121.370041      282.338090    ;  uncertainty theta = 0.000828, k = 0.054708
        16         8        41     1      107.894577      455.839254    ;  uncertainty theta = 0.003753, k = 0.115430
        16        17        18     1      123.141701      575.910018    ;  uncertainty theta = 0.003511, k = 0.120934
        16        17        26     1      122.317627      499.033263    ;  uncertainty theta = 0.010194, k = 0.209541
        17        16        47     1      111.105759      386.782760    ;  uncertainty theta = 0.005516, k = 0.186771
        17        18        19     1      120.478416      516.109066    ;  uncertainty theta = 0.002075, k = 0.087339
        17        18        48     1      119.051010      277.924383    ;  uncertainty theta = 0.004177, k = 0.151846
        17        26        25     1      120.424454      453.080161    ;  uncertainty theta = 0.006616, k = 0.179671
        17        26        27     1      120.028122      357.077675    ;  uncertainty theta = 0.010467, k = 0.372766
        18        17        26     1      118.942970      382.845385    ;  uncertainty theta = 0.005312, k = 0.129487
        18        19        20     1      120.981323      513.612814    ;  uncertainty theta = 0.003622, k = 0.061051
        18        19        49     1      120.001465      286.894165    ;  uncertainty theta = 0.002804, k = 0.033752
        19        18        48     1      120.437355      286.262218    ;  uncertainty theta = 0.002252, k = 0.069391
        19        20        21     1      116.839577      343.993737    ;  uncertainty theta = 0.004979, k = 0.130748
        19        20        25     1      121.948021      476.310950    ;  uncertainty theta = 0.002704, k = 0.206186
        20        19        49     1      118.183693      271.648352    ;  uncertainty theta = 0.003054, k = 0.062508
        20        21        22     1      113.129189      665.135146    ;  uncertainty theta = 0.002597, k = 0.018377
        20        21        23     1      113.129189      665.135146    ;  uncertainty theta = 0.002597, k = 0.018377
        20        21        24     1      113.129189      665.135146    ;  uncertainty theta = 0.002597, k = 0.018377
        20        25        26     1      123.128990      512.049368    ;  uncertainty theta = 0.004008, k = 0.124705
        20        25        50     1      117.799782      273.317712    ;  uncertainty theta = 0.004465, k = 0.082060
        21        20        25     1      116.421097      363.451642    ;  uncertainty theta = 0.005624, k = 0.222079
        22        21        23     1      107.629150      789.646366    ;  uncertainty theta = 0.002059, k = 0.013010
        22        21        24     1      107.629150      789.646366    ;  uncertainty theta = 0.002059, k = 0.013010
        23        21        24     1      107.629150      789.646366    ;  uncertainty theta = 0.002059, k = 0.013010
        25        26        27     1      118.740562      399.428992    ;  uncertainty theta = 0.004815, k = 0.187364
        26        25        50     1      118.101120      267.172973    ;  uncertainty theta = 0.003492, k = 0.082588
        26        27        28     1      108.780701      632.974157    ;  uncertainty theta = 0.006733, k = 0.310232
        26        27        51     1      108.628784      389.862631    ;  uncertainty theta = 0.004555, k = 0.083018
        27         7        40     1      106.277687      398.846586    ;  uncertainty theta = 0.003820, k = 0.096584
        28         4        35     1      107.426926      460.516727    ;  uncertainty theta = 0.001967, k = 0.139024
        28        27        51     1      105.729111      446.063425    ;  uncertainty theta = 0.004446, k = 0.100957
        29         1        30     1      108.721092      320.814629    ;  uncertainty theta = 0.003586, k = 0.093752
        29         1        31     1      108.721092      320.814629    ;  uncertainty theta = 0.003586, k = 0.093752
        30         1        31     1      108.721092      320.814597    ;  uncertainty theta = 0.003586, k = 0.093752
        32         2        52     1      107.282349      386.616226    ;  uncertainty theta = 0.003315, k = 0.113073
        33         3        34     1      108.328140      321.052220    ;  uncertainty theta = 0.003491, k = 0.028257
        36         5        37     1      105.294052      315.680074    ;  uncertainty theta = 0.003522, k = 0.050334
        38         6        39     1      104.613731      315.378193    ;  uncertainty theta = 0.002142, k = 0.035841

[ dihedrals ] ; propers for gromacs 4.5 or higher, use funct 9
;       ai        aj        ak        al funct           phase               k        pn
         1         2         3         4     9        0.000000        0.006307         1    ;  uncertainty k = 0.613229
         1         2         3         4     9      180.000000       -0.114237         2    ;  uncertainty k = 0.415972
         1         2         3         4     9        0.000000        1.040043         3    ;  uncertainty k = 0.119339
         1         2         3         4     9      180.000000       -0.032395         4    ;  uncertainty k = 0.060764
         1         2         3        33     9        0.000000       -0.681364         1    ;  uncertainty k = 0.600000
         1         2         3        33     9      180.000000       -0.166488         2    ;  uncertainty k = 0.352829
         1         2         3        33     9        0.000000        1.116541         3    ;  uncertainty k = 0.125614
         1         2         3        33     9      180.000000       -0.031562         4    ;  uncertainty k = 0.158992
         1         2         3        34     9        0.000000       -0.681364         1    ;  uncertainty k = 0.600000
         1         2         3        34     9      180.000000       -0.166488         2    ;  uncertainty k = 0.352829
         1         2         3        34     9        0.000000        1.116541         3    ;  uncertainty k = 0.125614
         1         2         3        34     9      180.000000       -0.031562         4    ;  uncertainty k = 0.158992
         2         3         4         5     9        0.000000       -0.192842         1    ;  uncertainty k = 1.826378
         2         3         4         5     9      180.000000       -0.466817         2    ;  uncertainty k = 0.525044
         2         3         4         5     9        0.000000        1.279870         3    ;  uncertainty k = 0.178848
         2         3         4         5     9      180.000000       -0.249067         4    ;  uncertainty k = 0.245717
         2         3         4        28     9        0.000000        2.349269         1    ;  uncertainty k = 1.437200
         2         3         4        28     9      180.000000       -3.528204         2    ;  uncertainty k = 0.748986
         2         3         4        28     9        0.000000        1.531946         3    ;  uncertainty k = 0.566496
         2         3         4        28     9      180.000000       -0.376382         4    ;  uncertainty k = 0.239672
         2         3         4        35     9        0.000000       -1.869553         1    ;  uncertainty k = 1.010165
         2         3         4        35     9      180.000000       -3.171111         2    ;  uncertainty k = 0.668409
         2         3         4        35     9        0.000000        0.860126         3    ;  uncertainty k = 0.296104
         2         3         4        35     9      180.000000       -0.078855         4    ;  uncertainty k = 0.120480
         3         2         1        29     9        0.000000       -0.505377         1    ;  uncertainty k = 0.211290
         3         2         1        29     9      180.000000       -0.945608         2    ;  uncertainty k = 0.623550
         3         2         1        29     9        0.000000        1.326998         3    ;  uncertainty k = 0.071761
         3         2         1        29     9      180.000000        0.033431         4    ;  uncertainty k = 0.103499
         3         2         1        30     9        0.000000       -0.505377         1    ;  uncertainty k = 0.211290
         3         2         1        30     9      180.000000       -0.945608         2    ;  uncertainty k = 0.623550
         3         2         1        30     9        0.000000        1.326998         3    ;  uncertainty k = 0.071761
         3         2         1        30     9      180.000000        0.033431         4    ;  uncertainty k = 0.103499
         3         2         1        31     9        0.000000       -0.505377         1    ;  uncertainty k = 0.211290
         3         2         1        31     9      180.000000       -0.945608         2    ;  uncertainty k = 0.623550
         3         2         1        31     9        0.000000        1.326998         3    ;  uncertainty k = 0.071761
         3         2         1        31     9      180.000000        0.033431         4    ;  uncertainty k = 0.103499
         3         4         5         6     9        0.000000       -2.847939         1    ;  uncertainty k = 0.794688
         3         4         5         6     9      180.000000        0.088279         2    ;  uncertainty k = 0.395161
         3         4         5         6     9        0.000000        0.738844         3    ;  uncertainty k = 0.150315
         3         4         5         6     9      180.000000       -0.462124         4    ;  uncertainty k = 0.103024
         3         4         5        36     9        0.000000       -1.119444         1    ;  uncertainty k = 0.957409
         3         4         5        36     9      180.000000       -0.715773         2    ;  uncertainty k = 0.299910
         3         4         5        36     9        0.000000        0.391575         3    ;  uncertainty k = 0.152965
         3         4         5        36     9      180.000000       -0.297820         4    ;  uncertainty k = 0.139712
         3         4         5        37     9        0.000000       -1.119444         1    ;  uncertainty k = 0.957409
         3         4         5        37     9      180.000000       -0.715773         2    ;  uncertainty k = 0.299910
         3         4         5        37     9        0.000000        0.391575         3    ;  uncertainty k = 0.152965
         3         4         5        37     9      180.000000       -0.297820         4    ;  uncertainty k = 0.139712
         3         4        28        27     9        0.000000       -5.461405         1    ;  uncertainty k = 1.424577
         3         4        28        27     9      180.000000       -0.847999         2    ;  uncertainty k = 0.790756
         3         4        28        27     9        0.000000        0.659831         3    ;  uncertainty k = 0.340318
         3         4        28        27     9      180.000000       -0.107724         4    ;  uncertainty k = 0.170328
         4         3         2        32     9        0.000000        1.040456         1    ;  uncertainty k = 0.462708
         4         3         2        32     9      180.000000       -0.379617         2    ;  uncertainty k = 0.417857
         4         3         2        32     9        0.000000        0.621486         3    ;  uncertainty k = 0.115494
         4         3         2        32     9      180.000000       -0.147759         4    ;  uncertainty k = 0.112672
         4         3         2        52     9        0.000000        1.040455         1    ;  uncertainty k = 0.462707
         4         3         2        52     9      180.000000       -0.379615         2    ;  uncertainty k = 0.417857
         4         3         2        52     9        0.000000        0.621486         3    ;  uncertainty k = 0.115494
         4         3         2        52     9      180.000000       -0.147759         4    ;  uncertainty k = 0.112672
         4         5         6         7     9        0.000000       -4.316529         1    ;  uncertainty k = 0.772558
         4         5         6         7     9      180.000000       -0.591049         2    ;  uncertainty k = 0.852513
         4         5         6         7     9        0.000000        1.208239         3    ;  uncertainty k = 0.260495
         4         5         6         7     9      180.000000       -0.789506         4    ;  uncertainty k = 0.127773
         4         5         6        38     9        0.000000       -0.919158         1    ;  uncertainty k = 0.463309
         4         5         6        38     9      180.000000       -0.761609         2    ;  uncertainty k = 0.256263
         4         5         6        38     9        0.000000        0.441824         3    ;  uncertainty k = 0.160725
         4         5         6        38     9      180.000000        0.025063         4    ;  uncertainty k = 0.050537
         4         5         6        39     9        0.000000       -0.919158         1    ;  uncertainty k = 0.463309
         4         5         6        39     9      180.000000       -0.761609         2    ;  uncertainty k = 0.256263
         4         5         6        39     9        0.000000        0.441824         3    ;  uncertainty k = 0.160725
         4         5         6        39     9      180.000000        0.025063         4    ;  uncertainty k = 0.050537
         4        28        27         7     9        0.000000        4.031567         1    ;  uncertainty k = 1.684751
         4        28        27         7     9      180.000000       -1.615058         2    ;  uncertainty k = 1.248260
         4        28        27         7     9        0.000000        0.136705         3    ;  uncertainty k = 0.199526
         4        28        27         7     9      180.000000        0.092441         4    ;  uncertainty k = 0.204999
         4        28        27        26     9        0.000000       -1.965534         1    ;  uncertainty k = 1.470469
         4        28        27        26     9      180.000000       -1.150957         2    ;  uncertainty k = 0.823125
         4        28        27        26     9        0.000000        0.940201         3    ;  uncertainty k = 0.423226
         4        28        27        26     9      180.000000       -0.017704         4    ;  uncertainty k = 0.125477
         4        28        27        51     9        0.000000       -2.302757         1    ;  uncertainty k = 0.719234
         4        28        27        51     9      180.000000       -0.840808         2    ;  uncertainty k = 0.621258
         4        28        27        51     9        0.000000        0.464324         3    ;  uncertainty k = 0.132690
         4        28        27        51     9      180.000000       -0.107483         4    ;  uncertainty k = 0.127358
         5         4         3        33     9        0.000000       -1.215280         1    ;  uncertainty k = 0.723438
         5         4         3        33     9      180.000000        0.107645         2    ;  uncertainty k = 0.263703
         5         4         3        33     9        0.000000        0.508795         3    ;  uncertainty k = 0.156143
         5         4         3        33     9      180.000000       -0.151933         4    ;  uncertainty k = 0.073562
         5         4         3        34     9        0.000000       -1.215280         1    ;  uncertainty k = 0.723438
         5         4         3        34     9      180.000000        0.107645         2    ;  uncertainty k = 0.263703
         5         4         3        34     9        0.000000        0.508795         3    ;  uncertainty k = 0.156143
         5         4         3        34     9      180.000000       -0.151933         4    ;  uncertainty k = 0.073562
         5         4        28        27     9        0.000000        1.415328         1    ;  uncertainty k = 3.066465
         5         4        28        27     9      180.000000       -1.573195         2    ;  uncertainty k = 0.291932
         5         4        28        27     9        0.000000        0.099335         3    ;  uncertainty k = 0.464951
         5         4        28        27     9      180.000000        0.004163         4    ;  uncertainty k = 0.240722
         5         6         7         8     9        0.000000       -3.376143         1    ;  uncertainty k = 0.762400
         5         6         7         8     9      180.000000        0.084024         2    ;  uncertainty k = 0.310984
         5         6         7         8     9        0.000000        1.116779         3    ;  uncertainty k = 0.196203
         5         6         7         8     9      180.000000       -0.477285         4    ;  uncertainty k = 0.207402
         5         6         7        27     9        0.000000       -3.153992         1    ;  uncertainty k = 0.482814
         5         6         7        27     9      180.000000        0.200131         2    ;  uncertainty k = 0.518246
         5         6         7        27     9        0.000000        1.022614         3    ;  uncertainty k = 0.225815
         5         6         7        27     9      180.000000       -0.724183         4    ;  uncertainty k = 0.097189
         5         6         7        40     9        0.000000       -2.352554         1    ;  uncertainty k = 0.594151
         5         6         7        40     9      180.000000        0.210550         2    ;  uncertainty k = 0.333282
         5         6         7        40     9        0.000000        0.038572         3    ;  uncertainty k = 0.071262
         5         6         7        40     9      180.000000       -0.090296         4    ;  uncertainty k = 0.093046
         6         5         4        28     9        0.000000       -2.543186         1    ;  uncertainty k = 0.753226
         6         5         4        28     9      180.000000       -0.388859         2    ;  uncertainty k = 0.844210
         6         5         4        28     9        0.000000        1.403658         3    ;  uncertainty k = 0.414972
         6         5         4        28     9      180.000000       -0.411455         4    ;  uncertainty k = 0.367577
         6         5         4        35     9        0.000000       -0.220960         1    ;  uncertainty k = 0.645956
         6         5         4        35     9      180.000000       -1.249832         2    ;  uncertainty k = 0.419999
         6         5         4        35     9        0.000000       -0.139485         3    ;  uncertainty k = 0.171593
         6         5         4        35     9      180.000000        0.104141         4    ;  uncertainty k = 0.142921
         6         7         8         9     9        0.000000       -0.491572         1    ;  uncertainty k = 0.325354
         6         7         8         9     9      180.000000        0.149708         2    ;  uncertainty k = 0.186581
         6         7         8         9     9        0.000000        1.022275         3    ;  uncertainty k = 0.132161
         6         7         8         9     9      180.000000       -0.036852         4    ;  uncertainty k = 0.092558
         6         7         8        16     9        0.000000       -2.521251         1    ;  uncertainty k = 0.310382
         6         7         8        16     9      180.000000        0.581435         2    ;  uncertainty k = 0.370009
         6         7         8        16     9        0.000000        1.132014         3    ;  uncertainty k = 0.203508
         6         7         8        16     9      180.000000       -0.327810         4    ;  uncertainty k = 0.275563
         6         7         8        41     9        0.000000       -0.348509         1    ;  uncertainty k = 0.361729
         6         7         8        41     9      180.000000       -0.372312         2    ;  uncertainty k = 0.197672
         6         7         8        41     9        0.000000        0.079786         3    ;  uncertainty k = 0.166433
         6         7         8        41     9      180.000000       -0.109269         4    ;  uncertainty k = 0.079245
         6         7        27        26     9        0.000000       -1.708702         1    ;  uncertainty k = 1.076445
         6         7        27        26     9      180.000000       -0.577427         2    ;  uncertainty k = 0.193113
         6         7        27        26     9        0.000000        0.624989         3    ;  uncertainty k = 0.156798
         6         7        27        26     9      180.000000       -0.209245         4    ;  uncertainty k = 0.136799
         6         7        27        28     9        0.000000       -1.348879         1    ;  uncertainty k = 0.812147
         6         7        27        28     9      180.000000       -1.601777         2    ;  uncertainty k = 0.856750
         6         7        27        28     9        0.000000        0.986871         3    ;  uncertainty k = 0.341151
         6         7        27        28     9      180.000000       -0.087740         4    ;  uncertainty k = 0.275157
         6         7        27        51     9        0.000000        0.251177         1    ;  uncertainty k = 0.545463
         6         7        27        51     9      180.000000       -0.467027         2    ;  uncertainty k = 0.415052
         6         7        27        51     9        0.000000       -0.184771         3    ;  uncertainty k = 0.149121
         6         7        27        51     9      180.000000       -0.045835         4    ;  uncertainty k = 0.130769
         7         6         5        36     9        0.000000       -0.843110         1    ;  uncertainty k = 0.414564
         7         6         5        36     9      180.000000       -0.523802         2    ;  uncertainty k = 0.298175
         7         6         5        36     9        0.000000        0.489652         3    ;  uncertainty k = 0.086635
         7         6         5        36     9      180.000000       -0.059656         4    ;  uncertainty k = 0.079811
         7         6         5        37     9        0.000000       -0.843110         1    ;  uncertainty k = 0.414564
         7         6         5        37     9      180.000000       -0.523802         2    ;  uncertainty k = 0.298175
         7         6         5        37     9        0.000000        0.489652         3    ;  uncertainty k = 0.086635
         7         6         5        37     9      180.000000       -0.059656         4    ;  uncertainty k = 0.079811
         7         8         9        10     9        0.000000       -0.126442         1    ;  uncertainty k = 0.708797
         7         8         9        10     9      180.000000        1.612285         2    ;  uncertainty k = 0.283492
         7         8         9        10     9        0.000000        0.301119         3    ;  uncertainty k = 0.102918
         7         8         9        10     9      180.000000        0.228785         4    ;  uncertainty k = 0.053896
         7         8         9        15     9        0.000000       -0.126442         1    ;  uncertainty k = 0.708797
         7         8         9        15     9      180.000000        1.612285         2    ;  uncertainty k = 0.283492
         7         8         9        15     9        0.000000        0.301119         3    ;  uncertainty k = 0.102918
         7         8         9        15     9      180.000000        0.228785         4    ;  uncertainty k = 0.053896
         7         8        16        17     9        0.000000        0.719689         1    ;  uncertainty k = 1.244020
         7         8        16        17     9      180.000000        0.209000         2    ;  uncertainty k = 0.601735
         7         8        16        17     9        0.000000        0.378517         3    ;  uncertainty k = 0.264052
         7         8        16        17     9      180.000000        0.142878         4    ;  uncertainty k = 0.153977
         7         8        16        47     9        0.000000        3.620496         1    ;  uncertainty k = 0.960159
         7         8        16        47     9      180.000000       -1.866275         2    ;  uncertainty k = 1.297277
         7         8        16        47     9        0.000000        0.466328         3    ;  uncertainty k = 0.292683
         7         8        16        47     9      180.000000       -0.015211         4    ;  uncertainty k = 0.082184
         7        27        26        17     9        0.000000        0.409292         1    ;  uncertainty k = 2.862365
         7        27        26        17     9      180.000000       -0.202986         2    ;  uncertainty k = 1.476724
         7        27        26        17     9        0.000000        0.000679         3    ;  uncertainty k = 0.841817
         7        27        26        17     9      180.000000        0.704339         4    ;  uncertainty k = 0.235086
         7        27        26        25     9        0.000000       -1.578131         1    ;  uncertainty k = 0.716113
         7        27        26        25     9      180.000000       -0.083147         2    ;  uncertainty k = 0.635423
         7        27        26        25     9        0.000000       -0.200539         3    ;  uncertainty k = 0.114915
         7        27        26        25     9      180.000000        0.419036         4    ;  uncertainty k = 0.126264
         8         7         6        38     9        0.000000        0.110494         1    ;  uncertainty k = 0.320429
         8         7         6        38     9      180.000000       -0.593762         2    ;  uncertainty k = 0.234653
         8         7         6        38     9        0.000000        0.479646         3    ;  uncertainty k = 0.096254
         8         7         6        38     9      180.000000       -0.047564         4    ;  uncertainty k = 0.093309
         8         7         6        39     9        0.000000        0.110494         1    ;  uncertainty k = 0.320429
         8         7         6        39     9      180.000000       -0.593762         2    ;  uncertainty k = 0.234653
         8         7         6        39     9        0.000000        0.479646         3    ;  uncertainty k = 0.096254
         8         7         6        39     9      180.000000       -0.047564         4    ;  uncertainty k = 0.093309
         8         7        27        26     9        0.000000        0.931690         1    ;  uncertainty k = 1.251930
         8         7        27        26     9      180.000000       -1.934272         2    ;  uncertainty k = 0.437874
         8         7        27        26     9        0.000000        0.265558         3    ;  uncertainty k = 0.293584
         8         7        27        26     9      180.000000       -0.122704         4    ;  uncertainty k = 0.157695
         8         7        27        28     9        0.000000       -0.933930         1    ;  uncertainty k = 1.153864
         8         7        27        28     9      180.000000       -3.566305         2    ;  uncertainty k = 1.516312
         8         7        27        28     9        0.000000        0.673282         3    ;  uncertainty k = 0.255407
         8         7        27        28     9      180.000000        0.065147         4    ;  uncertainty k = 0.378244
         8         7        27        51     9        0.000000        0.796084         1    ;  uncertainty k = 0.720211
         8         7        27        51     9      180.000000       -1.004917         2    ;  uncertainty k = 0.520945
         8         7        27        51     9        0.000000       -0.245006         3    ;  uncertainty k = 0.097716
         8         7        27        51     9      180.000000       -0.004861         4    ;  uncertainty k = 0.195203
         8         9        10        11     9        0.000000        0.264249         1    ;  uncertainty k = 0.176174
         8         9        10        11     9      180.000000        8.314570         2    ;  uncertainty k = 0.420234
         8         9        10        11     9        0.000000        1.440327         3    ;  uncertainty k = 0.328238
         8         9        10        11     9      180.000000        1.939408         4    ;  uncertainty k = 0.183876
         8         9        10        42     9        0.000000        0.028280         1    ;  uncertainty k = 0.399515
         8         9        10        42     9      180.000000        7.536770         2    ;  uncertainty k = 0.295477
         8         9        10        42     9        0.000000        0.584068         3    ;  uncertainty k = 0.353699
         8         9        10        42     9      180.000000        0.850827         4    ;  uncertainty k = 0.184799
         8         9        15        14     9        0.000000        0.264249         1    ;  uncertainty k = 0.176174
         8         9        15        14     9      180.000000        8.314570         2    ;  uncertainty k = 0.420234
         8         9        15        14     9        0.000000        1.440327         3    ;  uncertainty k = 0.328238
         8         9        15        14     9      180.000000        1.939408         4    ;  uncertainty k = 0.183876
         8         9        15        46     9        0.000000        0.028280         1    ;  uncertainty k = 0.399515
         8         9        15        46     9      180.000000        7.536770         2    ;  uncertainty k = 0.295477
         8         9        15        46     9        0.000000        0.584068         3    ;  uncertainty k = 0.353699
         8         9        15        46     9      180.000000        0.850827         4    ;  uncertainty k = 0.184799
         8        16        17        18     9        0.000000        0.472912         1    ;  uncertainty k = 0.815216
         8        16        17        18     9      180.000000        4.888522         2    ;  uncertainty k = 0.752070
         8        16        17        18     9        0.000000        0.397595         3    ;  uncertainty k = 0.545066
         8        16        17        18     9      180.000000        0.383807         4    ;  uncertainty k = 0.280593
         8        16        17        26     9        0.000000        4.144113         1    ;  uncertainty k = 2.103607
         8        16        17        26     9      180.000000        2.453511         2    ;  uncertainty k = 0.610740
         8        16        17        26     9        0.000000        0.023719         3    ;  uncertainty k = 0.473401
         8        16        17        26     9      180.000000        0.682039         4    ;  uncertainty k = 0.226903
         9         8         7        27     9        0.000000       -0.660463         1    ;  uncertainty k = 0.809425
         9         8         7        27     9      180.000000       -0.324237         2    ;  uncertainty k = 0.424407
         9         8         7        27     9        0.000000        0.407221         3    ;  uncertainty k = 0.224342
         9         8         7        27     9      180.000000       -0.032113         4    ;  uncertainty k = 0.149907
         9         8         7        40     9        0.000000        0.517336         1    ;  uncertainty k = 0.220053
         9         8         7        40     9      180.000000        0.141001         2    ;  uncertainty k = 0.627949
         9         8         7        40     9        0.000000        0.446365         3    ;  uncertainty k = 0.090868
         9         8         7        40     9      180.000000       -0.034893         4    ;  uncertainty k = 0.103221
         9         8        16        17     9        0.000000       -1.280660         1    ;  uncertainty k = 0.932101
         9         8        16        17     9      180.000000        0.149279         2    ;  uncertainty k = 0.281673
         9         8        16        17     9        0.000000        1.035814         3    ;  uncertainty k = 0.268733
         9         8        16        17     9      180.000000        0.204040         4    ;  uncertainty k = 0.098056
         9         8        16        47     9        0.000000        4.750805         1    ;  uncertainty k = 0.426839
         9         8        16        47     9      180.000000       -0.890575         2    ;  uncertainty k = 0.259072
         9         8        16        47     9        0.000000        0.426476         3    ;  uncertainty k = 0.312680
         9         8        16        47     9      180.000000       -0.041849         4    ;  uncertainty k = 0.178502
         9        10        11        12     9        0.000000       -0.171080         1    ;  uncertainty k = 0.118222
         9        10        11        12     9      180.000000       14.181757         2    ;  uncertainty k = 0.290023
         9        10        11        12     9        0.000000       -0.927114         3    ;  uncertainty k = 0.573669
         9        10        11        12     9      180.000000        0.856234         4    ;  uncertainty k = 0.354318
         9        10        11        43     9        0.000000        0.185132         1    ;  uncertainty k = 0.189506
         9        10        11        43     9      180.000000        8.110651         2    ;  uncertainty k = 0.526903
         9        10        11        43     9        0.000000        1.534064         3    ;  uncertainty k = 0.315234
         9        10        11        43     9      180.000000        1.867808         4    ;  uncertainty k = 0.133299
         9        15        14        12     9        0.000000       -0.171080         1    ;  uncertainty k = 0.118222
         9        15        14        12     9      180.000000       14.181757         2    ;  uncertainty k = 0.290023
         9        15        14        12     9        0.000000       -0.927114         3    ;  uncertainty k = 0.573669
         9        15        14        12     9      180.000000        0.856234         4    ;  uncertainty k = 0.354318
         9        15        14        45     9        0.000000        0.185132         1    ;  uncertainty k = 0.189506
         9        15        14        45     9      180.000000        8.110651         2    ;  uncertainty k = 0.526903
         9        15        14        45     9        0.000000        1.534064         3    ;  uncertainty k = 0.315234
         9        15        14        45     9      180.000000        1.867808         4    ;  uncertainty k = 0.133299
        10         9         8        16     9        0.000000       -0.636843         1    ;  uncertainty k = 0.422964
        10         9         8        16     9      180.000000        2.440579         2    ;  uncertainty k = 0.290478
        10         9         8        16     9        0.000000        0.668208         3    ;  uncertainty k = 0.250574
        10         9         8        16     9      180.000000        0.403997         4    ;  uncertainty k = 0.030976
        10         9         8        41     9        0.000000       -0.569949         1    ;  uncertainty k = 0.257740
        10         9         8        41     9      180.000000        2.179566         2    ;  uncertainty k = 0.323798
        10         9         8        41     9        0.000000        0.471038         3    ;  uncertainty k = 0.085615
        10         9         8        41     9      180.000000        0.230722         4    ;  uncertainty k = 0.060417
        10         9        15        14     9        0.000000       -0.235857         1    ;  uncertainty k = 0.092130
        10         9        15        14     9      180.000000       11.487441         2    ;  uncertainty k = 0.281693
        10         9        15        14     9        0.000000       -0.555406         3    ;  uncertainty k = 0.203396
        10         9        15        14     9      180.000000        0.850829         4    ;  uncertainty k = 0.350972
        10         9        15        46     9        0.000000        0.100203         1    ;  uncertainty k = 0.152413
        10         9        15        46     9      180.000000        7.100350         2    ;  uncertainty k = 0.501394
        10         9        15        46     9        0.000000        1.417852         3    ;  uncertainty k = 0.378804
        10         9        15        46     9      180.000000        1.581884         4    ;  uncertainty k = 0.165040
        10        11        12        13     9        0.000000       -0.012915         1    ;  uncertainty k = 0.209558
        10        11        12        13     9      180.000000       10.483986         2    ;  uncertainty k = 0.364351
        10        11        12        13     9        0.000000        1.098905         3    ;  uncertainty k = 0.269850
        10        11        12        13     9      180.000000        1.480025         4    ;  uncertainty k = 0.116794
        10        11        12        14     9        0.000000       -0.117201         1    ;  uncertainty k = 0.208200
        10        11        12        14     9      180.000000        8.643265         2    ;  uncertainty k = 0.701902
        10        11        12        14     9        0.000000       -0.110603         3    ;  uncertainty k = 0.327187
        10        11        12        14     9      180.000000        1.206478         4    ;  uncertainty k = 0.335336
        11        10         9        15     9        0.000000       -0.235857         1    ;  uncertainty k = 0.092130
        11        10         9        15     9      180.000000       11.487441         2    ;  uncertainty k = 0.281693
        11        10         9        15     9        0.000000       -0.555406         3    ;  uncertainty k = 0.203396
        11        10         9        15     9      180.000000        0.850829         4    ;  uncertainty k = 0.350972
        11        12        13        44     9        0.000000        6.997244         1    ;  uncertainty k = 0.169109
        11        12        13        44     9      180.000000        5.194176         2    ;  uncertainty k = 0.174545
        11        12        13        44     9        0.000000        0.628237         3    ;  uncertainty k = 0.113359
        11        12        13        44     9      180.000000        0.215122         4    ;  uncertainty k = 0.028651
        11        12        14        15     9        0.000000       -0.117201         1    ;  uncertainty k = 0.208200
        11        12        14        15     9      180.000000        8.643265         2    ;  uncertainty k = 0.701902
        11        12        14        15     9        0.000000       -0.110603         3    ;  uncertainty k = 0.327187
        11        12        14        15     9      180.000000        1.206478         4    ;  uncertainty k = 0.335336
        11        12        14        45     9        0.000000       -0.127811         1    ;  uncertainty k = 0.392099
        11        12        14        45     9      180.000000        5.542043         2    ;  uncertainty k = 0.458118
        11        12        14        45     9        0.000000        1.229292         3    ;  uncertainty k = 0.245580
        11        12        14        45     9      180.000000        1.366685         4    ;  uncertainty k = 0.181602
        12        11        10        42     9        0.000000        0.046562         1    ;  uncertainty k = 0.313751
        12        11        10        42     9      180.000000        8.316017         2    ;  uncertainty k = 0.346488
        12        11        10        42     9        0.000000        1.249562         3    ;  uncertainty k = 0.267052
        12        11        10        42     9      180.000000        1.734232         4    ;  uncertainty k = 0.166335
        12        14        15        46     9        0.000000        0.046562         1    ;  uncertainty k = 0.313751
        12        14        15        46     9      180.000000        8.316017         2    ;  uncertainty k = 0.346488
        12        14        15        46     9        0.000000        1.249562         3    ;  uncertainty k = 0.267052
        12        14        15        46     9      180.000000        1.734232         4    ;  uncertainty k = 0.166335
        13        12        11        43     9        0.000000       -0.169487         1    ;  uncertainty k = 0.264918
        13        12        11        43     9      180.000000        7.796901         2    ;  uncertainty k = 0.581035
        13        12        11        43     9        0.000000        0.902067         3    ;  uncertainty k = 0.224066
        13        12        11        43     9      180.000000        1.107674         4    ;  uncertainty k = 0.359805
        13        12        14        15     9        0.000000       -0.012915         1    ;  uncertainty k = 0.209558
        13        12        14        15     9      180.000000       10.483986         2    ;  uncertainty k = 0.364351
        13        12        14        15     9        0.000000        1.098905         3    ;  uncertainty k = 0.269850
        13        12        14        15     9      180.000000        1.480025         4    ;  uncertainty k = 0.116794
        13        12        14        45     9        0.000000       -0.169487         1    ;  uncertainty k = 0.264918
        13        12        14        45     9      180.000000        7.796901         2    ;  uncertainty k = 0.581035
        13        12        14        45     9        0.000000        0.902067         3    ;  uncertainty k = 0.224066
        13        12        14        45     9      180.000000        1.107674         4    ;  uncertainty k = 0.359805
        14        12        11        43     9        0.000000       -0.127811         1    ;  uncertainty k = 0.392099
        14        12        11        43     9      180.000000        5.542043         2    ;  uncertainty k = 0.458118
        14        12        11        43     9        0.000000        1.229292         3    ;  uncertainty k = 0.245580
        14        12        11        43     9      180.000000        1.366685         4    ;  uncertainty k = 0.181602
        14        12        13        44     9        0.000000        6.997244         1    ;  uncertainty k = 0.169109
        14        12        13        44     9      180.000000        5.194176         2    ;  uncertainty k = 0.174545
        14        12        13        44     9        0.000000        0.628237         3    ;  uncertainty k = 0.113359
        14        12        13        44     9      180.000000        0.215122         4    ;  uncertainty k = 0.028651
        15         9         8        16     9        0.000000       -0.636843         1    ;  uncertainty k = 0.422964
        15         9         8        16     9      180.000000        2.440579         2    ;  uncertainty k = 0.290478
        15         9         8        16     9        0.000000        0.668208         3    ;  uncertainty k = 0.250574
        15         9         8        16     9      180.000000        0.403997         4    ;  uncertainty k = 0.030976
        15         9         8        41     9        0.000000       -0.569949         1    ;  uncertainty k = 0.257740
        15         9         8        41     9      180.000000        2.179566         2    ;  uncertainty k = 0.323798
        15         9         8        41     9        0.000000        0.471038         3    ;  uncertainty k = 0.085615
        15         9         8        41     9      180.000000        0.230722         4    ;  uncertainty k = 0.060417
        15         9        10        42     9        0.000000        0.100203         1    ;  uncertainty k = 0.152413
        15         9        10        42     9      180.000000        7.100350         2    ;  uncertainty k = 0.501394
        15         9        10        42     9        0.000000        1.417852         3    ;  uncertainty k = 0.378804
        15         9        10        42     9      180.000000        1.581884         4    ;  uncertainty k = 0.165040
        16         8         7        27     9        0.000000        0.117302         1    ;  uncertainty k = 2.194740
        16         8         7        27     9      180.000000       -1.236870         2    ;  uncertainty k = 0.315425
        16         8         7        27     9        0.000000        0.533540         3    ;  uncertainty k = 0.435051
        16         8         7        27     9      180.000000       -0.173950         4    ;  uncertainty k = 0.362051
        16         8         7        40     9        0.000000       -0.947833         1    ;  uncertainty k = 0.627969
        16         8         7        40     9      180.000000        0.170573         2    ;  uncertainty k = 0.410474
        16         8         7        40     9        0.000000        0.627907         3    ;  uncertainty k = 0.278858
        16         8         7        40     9      180.000000        0.059565         4    ;  uncertainty k = 0.093137
        16        17        18        19     9        0.000000        0.231428         1    ;  uncertainty k = 0.389796
        16        17        18        19     9      180.000000       10.238476         2    ;  uncertainty k = 0.466629
        16        17        18        19     9        0.000000        1.246350         3    ;  uncertainty k = 0.222856
        16        17        18        19     9      180.000000        1.655065         4    ;  uncertainty k = 0.267772
        16        17        18        48     9        0.000000       -0.252323         1    ;  uncertainty k = 0.534719
        16        17        18        48     9      180.000000        8.173630         2    ;  uncertainty k = 0.357489
        16        17        18        48     9        0.000000        1.005200         3    ;  uncertainty k = 0.139229
        16        17        18        48     9      180.000000        1.186391         4    ;  uncertainty k = 0.335076
        16        17        26        25     9        0.000000        0.514705         1    ;  uncertainty k = 0.664253
        16        17        26        25     9      180.000000        7.605362         2    ;  uncertainty k = 0.362138
        16        17        26        25     9        0.000000        0.991340         3    ;  uncertainty k = 0.193914
        16        17        26        25     9      180.000000        1.359285         4    ;  uncertainty k = 0.393670
        16        17        26        27     9        0.000000        0.075241         1    ;  uncertainty k = 0.560436
        16        17        26        27     9      180.000000        7.592797         2    ;  uncertainty k = 1.051161
        16        17        26        27     9        0.000000        0.699064         3    ;  uncertainty k = 0.576438
        16        17        26        27     9      180.000000        1.214032         4    ;  uncertainty k = 0.492245
        17        16         8        41     9        0.000000       -0.859913         1    ;  uncertainty k = 0.376970
        17        16         8        41     9      180.000000       -0.534872         2    ;  uncertainty k = 0.442168
        17        16         8        41     9        0.000000        0.715681         3    ;  uncertainty k = 0.162008
        17        16         8        41     9      180.000000        0.204030         4    ;  uncertainty k = 0.096027
        17        18        19        20     9        0.000000       -0.182690         1    ;  uncertainty k = 0.192395
        17        18        19        20     9      180.000000       13.581550         2    ;  uncertainty k = 0.317227
        17        18        19        20     9        0.000000       -0.529046         3    ;  uncertainty k = 0.592314
        17        18        19        20     9      180.000000        0.815071         4    ;  uncertainty k = 0.353191
        17        18        19        49     9        0.000000        0.317053         1    ;  uncertainty k = 0.513037
        17        18        19        49     9      180.000000        9.069728         2    ;  uncertainty k = 0.572384
        17        18        19        49     9        0.000000        1.256166         3    ;  uncertainty k = 0.254022
        17        18        19        49     9      180.000000        1.555765         4    ;  uncertainty k = 0.257997
        17        26        25        20     9        0.000000       -0.267304         1    ;  uncertainty k = 0.412363
        17        26        25        20     9      180.000000       11.752076         2    ;  uncertainty k = 0.425099
        17        26        25        20     9        0.000000       -0.315776         3    ;  uncertainty k = 0.520191
        17        26        25        20     9      180.000000        0.915764         4    ;  uncertainty k = 0.515936
        17        26        25        50     9        0.000000        0.324812         1    ;  uncertainty k = 0.368050
        17        26        25        50     9      180.000000        8.288328         2    ;  uncertainty k = 0.526602
        17        26        25        50     9        0.000000        1.376753         3    ;  uncertainty k = 0.326265
        17        26        25        50     9      180.000000        1.578090         4    ;  uncertainty k = 0.187003
        17        26        27        28     9        0.000000       -2.034292         1    ;  uncertainty k = 1.965263
        17        26        27        28     9      180.000000        0.025057         2    ;  uncertainty k = 1.131772
        17        26        27        28     9        0.000000        1.501067         3    ;  uncertainty k = 0.311784
        17        26        27        28     9      180.000000        0.008642         4    ;  uncertainty k = 0.184957
        17        26        27        51     9        0.000000       -0.384383         1    ;  uncertainty k = 0.780912
        17        26        27        51     9      180.000000        2.073237         2    ;  uncertainty k = 0.276326
        17        26        27        51     9        0.000000        0.480895         3    ;  uncertainty k = 0.243076
        17        26        27        51     9      180.000000       -0.200014         4    ;  uncertainty k = 0.111453
        18        17        16        47     9        0.000000        1.644528         1    ;  uncertainty k = 0.671486
        18        17        16        47     9      180.000000        5.648100         2    ;  uncertainty k = 0.263411
        18        17        16        47     9        0.000000        0.887669         3    ;  uncertainty k = 0.335481
        18        17        16        47     9      180.000000       -0.022902         4    ;  uncertainty k = 0.180172
        18        17        26        25     9        0.000000        0.317716         1    ;  uncertainty k = 0.350190
        18        17        26        25     9      180.000000        5.948735         2    ;  uncertainty k = 0.533573
        18        17        26        25     9        0.000000        0.392054         3    ;  uncertainty k = 0.350697
        18        17        26        25     9      180.000000        1.333497         4    ;  uncertainty k = 0.239548
        18        17        26        27     9        0.000000        0.652235         1    ;  uncertainty k = 0.612898
        18        17        26        27     9      180.000000        5.735858         2    ;  uncertainty k = 0.432383
        18        17        26        27     9        0.000000        1.316685         3    ;  uncertainty k = 0.230243
        18        17        26        27     9      180.000000        1.592667         4    ;  uncertainty k = 0.293330
        18        19        20        21     9        0.000000        0.110284         1    ;  uncertainty k = 0.167159
        18        19        20        21     9      180.000000        9.822618         2    ;  uncertainty k = 0.704573
        18        19        20        21     9        0.000000        1.387105         3    ;  uncertainty k = 0.349698
        18        19        20        21     9      180.000000        1.947236         4    ;  uncertainty k = 0.332596
        18        19        20        25     9        0.000000       -0.034672         1    ;  uncertainty k = 0.203903
        18        19        20        25     9      180.000000       12.012212         2    ;  uncertainty k = 0.382685
        18        19        20        25     9        0.000000       -0.709598         3    ;  uncertainty k = 0.306769
        18        19        20        25     9      180.000000        0.893585         4    ;  uncertainty k = 0.295330
        19        18        17        26     9        0.000000        0.306570         1    ;  uncertainty k = 0.425942
        19        18        17        26     9      180.000000        7.300329         2    ;  uncertainty k = 0.363063
        19        18        17        26     9        0.000000        0.474892         3    ;  uncertainty k = 0.421538
        19        18        17        26     9      180.000000        1.413924         4    ;  uncertainty k = 0.213423
        19        20        21        22     9        0.000000       -0.682419         1    ;  uncertainty k = 0.249405
        19        20        21        22     9      180.000000        2.604905         2    ;  uncertainty k = 0.094363
        19        20        21        22     9        0.000000        0.754799         3    ;  uncertainty k = 0.077531
        19        20        21        22     9      180.000000        0.158520         4    ;  uncertainty k = 0.059056
        19        20        21        23     9        0.000000       -0.682419         1    ;  uncertainty k = 0.249405
        19        20        21        23     9      180.000000        2.604905         2    ;  uncertainty k = 0.094363
        19        20        21        23     9        0.000000        0.754799         3    ;  uncertainty k = 0.077531
        19        20        21        23     9      180.000000        0.158520         4    ;  uncertainty k = 0.059056
        19        20        21        24     9        0.000000       -0.682419         1    ;  uncertainty k = 0.249405
        19        20        21        24     9      180.000000        2.604905         2    ;  uncertainty k = 0.094363
        19        20        21        24     9        0.000000        0.754799         3    ;  uncertainty k = 0.077531
        19        20        21        24     9      180.000000        0.158520         4    ;  uncertainty k = 0.059056
        19        20        25        26     9        0.000000        0.036150         1    ;  uncertainty k = 0.285338
        19        20        25        26     9      180.000000       11.001547         2    ;  uncertainty k = 0.517109
        19        20        25        26     9        0.000000       -0.397288         3    ;  uncertainty k = 0.757389
        19        20        25        26     9      180.000000        1.041673         4    ;  uncertainty k = 0.528914
        19        20        25        50     9        0.000000        0.167488         1    ;  uncertainty k = 0.232761
        19        20        25        50     9      180.000000        7.759393         2    ;  uncertainty k = 0.302343
        19        20        25        50     9        0.000000        1.300806         3    ;  uncertainty k = 0.409955
        19        20        25        50     9      180.000000        1.640925         4    ;  uncertainty k = 0.190721
        20        19        18        48     9        0.000000        0.175558         1    ;  uncertainty k = 0.194208
        20        19        18        48     9      180.000000        8.463922         2    ;  uncertainty k = 0.413469
        20        19        18        48     9        0.000000        1.526973         3    ;  uncertainty k = 0.227749
        20        19        18        48     9      180.000000        1.855719         4    ;  uncertainty k = 0.242609
        20        25        26        27     9        0.000000       -0.040512         1    ;  uncertainty k = 0.532018
        20        25        26        27     9      180.000000       10.597586         2    ;  uncertainty k = 0.420735
        20        25        26        27     9        0.000000        1.336149         3    ;  uncertainty k = 0.145285
        20        25        26        27     9      180.000000        1.749531         4    ;  uncertainty k = 0.508490
        21        20        19        49     9        0.000000       -0.108565         1    ;  uncertainty k = 0.468395
        21        20        19        49     9      180.000000        8.611636         2    ;  uncertainty k = 0.510213
        21        20        19        49     9        0.000000        0.670475         3    ;  uncertainty k = 0.276177
        21        20        19        49     9      180.000000        1.004020         4    ;  uncertainty k = 0.160387
        21        20        25        26     9        0.000000        0.184112         1    ;  uncertainty k = 0.430340
        21        20        25        26     9      180.000000       10.236153         2    ;  uncertainty k = 0.564348
        21        20        25        26     9        0.000000        1.596329         3    ;  uncertainty k = 0.294702
        21        20        25        26     9      180.000000        1.951289         4    ;  uncertainty k = 0.285583
        21        20        25        50     9        0.000000        0.104725         1    ;  uncertainty k = 0.367020
        21        20        25        50     9      180.000000        8.817675         2    ;  uncertainty k = 0.477946
        21        20        25        50     9        0.000000        0.711158         3    ;  uncertainty k = 0.170461
        21        20        25        50     9      180.000000        1.070202         4    ;  uncertainty k = 0.164772
        22        21        20        25     9        0.000000       -0.574436         1    ;  uncertainty k = 0.288117
        22        21        20        25     9      180.000000        2.562507         2    ;  uncertainty k = 0.201571
        22        21        20        25     9        0.000000        0.701170         3    ;  uncertainty k = 0.104983
        22        21        20        25     9      180.000000        0.155921         4    ;  uncertainty k = 0.065716
        23        21        20        25     9        0.000000       -0.574436         1    ;  uncertainty k = 0.288117
        23        21        20        25     9      180.000000        2.562507         2    ;  uncertainty k = 0.201571
        23        21        20        25     9        0.000000        0.701170         3    ;  uncertainty k = 0.104983
        23        21        20        25     9      180.000000        0.155921         4    ;  uncertainty k = 0.065716
        24        21        20        25     9        0.000000       -0.574436         1    ;  uncertainty k = 0.288117
        24        21        20        25     9      180.000000        2.562507         2    ;  uncertainty k = 0.201571
        24        21        20        25     9        0.000000        0.701170         3    ;  uncertainty k = 0.104983
        24        21        20        25     9      180.000000        0.155921         4    ;  uncertainty k = 0.065716
        25        20        19        49     9        0.000000        0.213861         1    ;  uncertainty k = 0.199738
        25        20        19        49     9      180.000000        7.175611         2    ;  uncertainty k = 0.543777
        25        20        19        49     9        0.000000        1.246727         3    ;  uncertainty k = 0.361361
        25        20        19        49     9      180.000000        1.612476         4    ;  uncertainty k = 0.317209
        25        26        27        28     9        0.000000        0.319993         1    ;  uncertainty k = 0.178732
        25        26        27        28     9      180.000000        1.160783         2    ;  uncertainty k = 0.477244
        25        26        27        28     9        0.000000       -0.234500         3    ;  uncertainty k = 0.449005
        25        26        27        28     9      180.000000        0.096951         4    ;  uncertainty k = 0.144385
        25        26        27        51     9        0.000000        0.534197         1    ;  uncertainty k = 0.987215
        25        26        27        51     9      180.000000        1.843788         2    ;  uncertainty k = 0.379068
        25        26        27        51     9        0.000000        0.087485         3    ;  uncertainty k = 0.162162
        25        26        27        51     9      180.000000        0.009053         4    ;  uncertainty k = 0.132683
        26        17        16        47     9        0.000000       11.680208         1    ;  uncertainty k = 0.714263
        26        17        16        47     9      180.000000        5.639670         2    ;  uncertainty k = 0.496850
        26        17        16        47     9        0.000000        0.337104         3    ;  uncertainty k = 0.311469
        26        17        16        47     9      180.000000        0.199068         4    ;  uncertainty k = 0.154313
        26        17        18        48     9        0.000000        0.270044         1    ;  uncertainty k = 0.888280
        26        17        18        48     9      180.000000        6.341357         2    ;  uncertainty k = 0.647732
        26        17        18        48     9        0.000000        1.346204         3    ;  uncertainty k = 0.254113
        26        17        18        48     9      180.000000        1.274156         4    ;  uncertainty k = 0.236801
        26        27         7        40     9        0.000000       -0.414276         1    ;  uncertainty k = 1.015520
        26        27         7        40     9      180.000000        0.745461         2    ;  uncertainty k = 0.495184
        26        27         7        40     9        0.000000        0.005711         3    ;  uncertainty k = 0.107341
        26        27         7        40     9      180.000000       -0.075531         4    ;  uncertainty k = 0.100588
        27         7         6        38     9        0.000000       -0.378174         1    ;  uncertainty k = 0.492032
        27         7         6        38     9      180.000000       -0.667956         2    ;  uncertainty k = 0.147162
        27         7         6        38     9        0.000000        0.284262         3    ;  uncertainty k = 0.121781
        27         7         6        38     9      180.000000       -0.012084         4    ;  uncertainty k = 0.050647
        27         7         6        39     9        0.000000       -0.378174         1    ;  uncertainty k = 0.492032
        27         7         6        39     9      180.000000       -0.667956         2    ;  uncertainty k = 0.147162
        27         7         6        39     9        0.000000        0.284262         3    ;  uncertainty k = 0.121781
        27         7         6        39     9      180.000000       -0.012084         4    ;  uncertainty k = 0.050647
        27         7         8        41     9        0.000000        0.625379         1    ;  uncertainty k = 0.773972
        27         7         8        41     9      180.000000       -1.421084         2    ;  uncertainty k = 0.703662
        27         7         8        41     9        0.000000       -0.401535         3    ;  uncertainty k = 0.137128
        27         7         8        41     9      180.000000        0.018395         4    ;  uncertainty k = 0.144997
        27        26        25        50     9        0.000000       -0.294615         1    ;  uncertainty k = 0.496876
        27        26        25        50     9      180.000000        8.400162         2    ;  uncertainty k = 0.781182
        27        26        25        50     9        0.000000        0.814423         3    ;  uncertainty k = 0.314352
        27        26        25        50     9      180.000000        1.106400         4    ;  uncertainty k = 0.426909
        27        28         4        35     9        0.000000       -2.051339         1    ;  uncertainty k = 1.625804
        27        28         4        35     9      180.000000       -0.830199         2    ;  uncertainty k = 0.521440
        27        28         4        35     9        0.000000        0.231539         3    ;  uncertainty k = 0.055295
        27        28         4        35     9      180.000000        0.014768         4    ;  uncertainty k = 0.160209
        28         4         3        33     9        0.000000        1.173469         1    ;  uncertainty k = 0.977602
        28         4         3        33     9      180.000000       -0.816408         2    ;  uncertainty k = 0.269217
        28         4         3        33     9        0.000000        0.408876         3    ;  uncertainty k = 0.294467
        28         4         3        33     9      180.000000       -0.106316         4    ;  uncertainty k = 0.200540
        28         4         3        34     9        0.000000        1.173469         1    ;  uncertainty k = 0.977602
        28         4         3        34     9      180.000000       -0.816408         2    ;  uncertainty k = 0.269217
        28         4         3        34     9        0.000000        0.408876         3    ;  uncertainty k = 0.294467
        28         4         3        34     9      180.000000       -0.106316         4    ;  uncertainty k = 0.200540
        28         4         5        36     9        0.000000       -1.120835         1    ;  uncertainty k = 0.408236
        28         4         5        36     9      180.000000       -1.089182         2    ;  uncertainty k = 0.426856
        28         4         5        36     9        0.000000        1.052287         3    ;  uncertainty k = 0.240256
        28         4         5        36     9      180.000000       -0.072184         4    ;  uncertainty k = 0.050785
        28         4         5        37     9        0.000000       -1.120835         1    ;  uncertainty k = 0.408236
        28         4         5        37     9      180.000000       -1.089182         2    ;  uncertainty k = 0.426856
        28         4         5        37     9        0.000000        1.052287         3    ;  uncertainty k = 0.240256
        28         4         5        37     9      180.000000       -0.072184         4    ;  uncertainty k = 0.050785
        28        27         7        40     9        0.000000       -0.599164         1    ;  uncertainty k = 0.341343
        28        27         7        40     9      180.000000        0.353573         2    ;  uncertainty k = 0.575926
        28        27         7        40     9        0.000000        0.093350         3    ;  uncertainty k = 0.294994
        28        27         7        40     9      180.000000       -0.137775         4    ;  uncertainty k = 0.132515
        29         1         2        32     9        0.000000       -0.199733         1    ;  uncertainty k = 0.663171
        29         1         2        32     9      180.000000       -0.359616         2    ;  uncertainty k = 0.485978
        29         1         2        32     9        0.000000        0.552467         3    ;  uncertainty k = 0.121280
        29         1         2        32     9      180.000000        0.083020         4    ;  uncertainty k = 0.112026
        29         1         2        52     9        0.000000       -0.199732         1    ;  uncertainty k = 0.663171
        29         1         2        52     9      180.000000       -0.359616         2    ;  uncertainty k = 0.485978
        29         1         2        52     9        0.000000        0.552467         3    ;  uncertainty k = 0.121279
        29         1         2        52     9      180.000000        0.083020         4    ;  uncertainty k = 0.112026
        30         1         2        32     9        0.000000       -0.199733         1    ;  uncertainty k = 0.663171
        30         1         2        32     9      180.000000       -0.359616         2    ;  uncertainty k = 0.485978
        30         1         2        32     9        0.000000        0.552467         3    ;  uncertainty k = 0.121280
        30         1         2        32     9      180.000000        0.083020         4    ;  uncertainty k = 0.112026
        30         1         2        52     9        0.000000       -0.199732         1    ;  uncertainty k = 0.663171
        30         1         2        52     9      180.000000       -0.359616         2    ;  uncertainty k = 0.485978
        30         1         2        52     9        0.000000        0.552467         3    ;  uncertainty k = 0.121279
        30         1         2        52     9      180.000000        0.083020         4    ;  uncertainty k = 0.112026
        31         1         2        32     9        0.000000       -0.199733         1    ;  uncertainty k = 0.663171
        31         1         2        32     9      180.000000       -0.359616         2    ;  uncertainty k = 0.485978
        31         1         2        32     9        0.000000        0.552467         3    ;  uncertainty k = 0.121280
        31         1         2        32     9      180.000000        0.083020         4    ;  uncertainty k = 0.112026
        31         1         2        52     9        0.000000       -0.199732         1    ;  uncertainty k = 0.663171
        31         1         2        52     9      180.000000       -0.359616         2    ;  uncertainty k = 0.485978
        31         1         2        52     9        0.000000        0.552467         3    ;  uncertainty k = 0.121279
        31         1         2        52     9      180.000000        0.083020         4    ;  uncertainty k = 0.112026
        32         2         3        33     9        0.000000        0.344846         1    ;  uncertainty k = 0.569641
        32         2         3        33     9      180.000000       -0.270675         2    ;  uncertainty k = 0.212261
        32         2         3        33     9        0.000000        0.296373         3    ;  uncertainty k = 0.102911
        32         2         3        33     9      180.000000        0.019633         4    ;  uncertainty k = 0.099171
        32         2         3        34     9        0.000000        0.344846         1    ;  uncertainty k = 0.569641
        32         2         3        34     9      180.000000       -0.270675         2    ;  uncertainty k = 0.212261
        32         2         3        34     9        0.000000        0.296373         3    ;  uncertainty k = 0.102911
        32         2         3        34     9      180.000000        0.019633         4    ;  uncertainty k = 0.099171
        33         3         2        52     9        0.000000        0.344845         1    ;  uncertainty k = 0.569640
        33         3         2        52     9      180.000000       -0.270674         2    ;  uncertainty k = 0.212262
        33         3         2        52     9        0.000000        0.296373         3    ;  uncertainty k = 0.102911
        33         3         2        52     9      180.000000        0.019633         4    ;  uncertainty k = 0.099171
        33         3         4        35     9        0.000000       -0.216190         1    ;  uncertainty k = 0.375570
        33         3         4        35     9      180.000000        0.070681         2    ;  uncertainty k = 0.423812
        33         3         4        35     9        0.000000        0.186558         3    ;  uncertainty k = 0.185130
        33         3         4        35     9      180.000000       -0.045535         4    ;  uncertainty k = 0.059390
        34         3         2        52     9        0.000000        0.344845         1    ;  uncertainty k = 0.569640
        34         3         2        52     9      180.000000       -0.270674         2    ;  uncertainty k = 0.212262
        34         3         2        52     9        0.000000        0.296373         3    ;  uncertainty k = 0.102911
        34         3         2        52     9      180.000000        0.019633         4    ;  uncertainty k = 0.099171
        34         3         4        35     9        0.000000       -0.216190         1    ;  uncertainty k = 0.375570
        34         3         4        35     9      180.000000        0.070681         2    ;  uncertainty k = 0.423812
        34         3         4        35     9        0.000000        0.186558         3    ;  uncertainty k = 0.185130
        34         3         4        35     9      180.000000       -0.045535         4    ;  uncertainty k = 0.059390
        35         4         5        36     9        0.000000        0.455768         1    ;  uncertainty k = 0.162016
        35         4         5        36     9      180.000000        0.067803         2    ;  uncertainty k = 0.345289
        35         4         5        36     9        0.000000       -0.022970         3    ;  uncertainty k = 0.136639
        35         4         5        36     9      180.000000       -0.119005         4    ;  uncertainty k = 0.074424
        35         4         5        37     9        0.000000        0.455768         1    ;  uncertainty k = 0.162016
        35         4         5        37     9      180.000000        0.067803         2    ;  uncertainty k = 0.345289
        35         4         5        37     9        0.000000       -0.022970         3    ;  uncertainty k = 0.136639
        35         4         5        37     9      180.000000       -0.119005         4    ;  uncertainty k = 0.074424
        36         5         6        38     9        0.000000        1.565776         1    ;  uncertainty k = 0.444564
        36         5         6        38     9      180.000000        0.161485         2    ;  uncertainty k = 0.255154
        36         5         6        38     9        0.000000        0.367677         3    ;  uncertainty k = 0.120802
        36         5         6        38     9      180.000000        0.076828         4    ;  uncertainty k = 0.017254
        36         5         6        39     9        0.000000        1.565776         1    ;  uncertainty k = 0.444564
        36         5         6        39     9      180.000000        0.161485         2    ;  uncertainty k = 0.255154
        36         5         6        39     9        0.000000        0.367677         3    ;  uncertainty k = 0.120802
        36         5         6        39     9      180.000000        0.076828         4    ;  uncertainty k = 0.017254
        37         5         6        38     9        0.000000        1.565776         1    ;  uncertainty k = 0.444564
        37         5         6        38     9      180.000000        0.161485         2    ;  uncertainty k = 0.255154
        37         5         6        38     9        0.000000        0.367677         3    ;  uncertainty k = 0.120802
        37         5         6        38     9      180.000000        0.076828         4    ;  uncertainty k = 0.017254
        37         5         6        39     9        0.000000        1.565776         1    ;  uncertainty k = 0.444564
        37         5         6        39     9      180.000000        0.161485         2    ;  uncertainty k = 0.255154
        37         5         6        39     9        0.000000        0.367677         3    ;  uncertainty k = 0.120802
        37         5         6        39     9      180.000000        0.076828         4    ;  uncertainty k = 0.017254
        38         6         7        40     9        0.000000        1.556154         1    ;  uncertainty k = 0.374248
        38         6         7        40     9      180.000000       -0.010848         2    ;  uncertainty k = 0.316684
        38         6         7        40     9        0.000000       -0.074251         3    ;  uncertainty k = 0.123289
        38         6         7        40     9      180.000000        0.022583         4    ;  uncertainty k = 0.073589
        39         6         7        40     9        0.000000        1.556154         1    ;  uncertainty k = 0.374248
        39         6         7        40     9      180.000000       -0.010848         2    ;  uncertainty k = 0.316684
        39         6         7        40     9        0.000000       -0.074251         3    ;  uncertainty k = 0.123289
        39         6         7        40     9      180.000000        0.022583         4    ;  uncertainty k = 0.073589
        40         7         8        41     9        0.000000        1.077534         1    ;  uncertainty k = 0.458222
        40         7         8        41     9      180.000000       -0.042492         2    ;  uncertainty k = 0.250347
        40         7         8        41     9        0.000000       -0.346965         3    ;  uncertainty k = 0.176981
        40         7         8        41     9      180.000000       -0.270511         4    ;  uncertainty k = 0.102482
        40         7        27        51     9        0.000000        2.070248         1    ;  uncertainty k = 0.448495
        40         7        27        51     9      180.000000        0.876143         2    ;  uncertainty k = 0.447052
        40         7        27        51     9        0.000000       -0.476787         3    ;  uncertainty k = 0.228055
        40         7        27        51     9      180.000000       -0.170907         4    ;  uncertainty k = 0.066585
        41         8        16        47     9        0.000000        0.468543         1    ;  uncertainty k = 0.563666
        41         8        16        47     9      180.000000       -0.983994         2    ;  uncertainty k = 0.285945
        41         8        16        47     9        0.000000        0.482175         3    ;  uncertainty k = 0.277172
        41         8        16        47     9      180.000000        0.028441         4    ;  uncertainty k = 0.127509
        42        10        11        43     9        0.000000        0.135424         1    ;  uncertainty k = 0.310002
        42        10        11        43     9      180.000000        7.553136         2    ;  uncertainty k = 0.314288
        42        10        11        43     9        0.000000       -0.398850         3    ;  uncertainty k = 0.299227
        42        10        11        43     9      180.000000        0.193987         4    ;  uncertainty k = 0.157146
        45        14        15        46     9        0.000000        0.135424         1    ;  uncertainty k = 0.310002
        45        14        15        46     9      180.000000        7.553136         2    ;  uncertainty k = 0.314288
        45        14        15        46     9        0.000000       -0.398850         3    ;  uncertainty k = 0.299227
        45        14        15        46     9      180.000000        0.193987         4    ;  uncertainty k = 0.157146
        48        18        19        49     9        0.000000        0.247011         1    ;  uncertainty k = 0.623700
        48        18        19        49     9      180.000000        7.829038         2    ;  uncertainty k = 0.394733
        48        18        19        49     9        0.000000       -0.335446         3    ;  uncertainty k = 0.271687
        48        18        19        49     9      180.000000        0.202602         4    ;  uncertainty k = 0.180743

[ dihedrals ] ; impropers
;       ai        aj        ak        al funct           phase               k        pn
         9         8        10        15     4      180.000000       10.742790         2    ;  uncertainty k = 0.185541
         9        10        15         8     4      180.000000       10.742790         2    ;  uncertainty k = 0.185541
         9        15         8        10     4      180.000000       10.742790         2    ;  uncertainty k = 0.185541
        10         9        11        42     4      180.000000        4.313991         2    ;  uncertainty k = 0.099733
        10        11        42         9     4      180.000000        4.313991         2    ;  uncertainty k = 0.099733
        10        42         9        11     4      180.000000        4.313991         2    ;  uncertainty k = 0.099733
        11        10        12        43     4      180.000000        1.955934         2    ;  uncertainty k = 0.176728
        11        12        43        10     4      180.000000        1.955934         2    ;  uncertainty k = 0.176728
        11        43        10        12     4      180.000000        1.955934         2    ;  uncertainty k = 0.176728
        12        11        13        14     4      180.000000       18.626142         2    ;  uncertainty k = 0.063384
        12        13        14        11     4      180.000000       18.626142         2    ;  uncertainty k = 0.063384
        12        14        11        13     4      180.000000       18.626142         2    ;  uncertainty k = 0.063384
        14        12        15        45     4      180.000000        1.955934         2    ;  uncertainty k = 0.176728
        14        15        45        12     4      180.000000        1.955934         2    ;  uncertainty k = 0.176728
        14        45        12        15     4      180.000000        1.955934         2    ;  uncertainty k = 0.176728
        15         9        14        46     4      180.000000        4.313991         2    ;  uncertainty k = 0.099733
        15        14        46         9     4      180.000000        4.313991         2    ;  uncertainty k = 0.099733
        15        46         9        14     4      180.000000        4.313991         2    ;  uncertainty k = 0.099733
        17        16        18        26     4      180.000000       21.979194         2    ;  uncertainty k = 0.135021
        17        18        26        16     4      180.000000       21.979194         2    ;  uncertainty k = 0.135021
        17        26        16        18     4      180.000000       21.979194         2    ;  uncertainty k = 0.135021
        18        17        19        48     4      180.000000        1.846538         2    ;  uncertainty k = 0.425683
        18        19        48        17     4      180.000000        1.846538         2    ;  uncertainty k = 0.425683
        18        48        17        19     4      180.000000        1.846538         2    ;  uncertainty k = 0.425683
        19        18        20        49     4      180.000000        4.856157         2    ;  uncertainty k = 0.148466
        19        20        49        18     4      180.000000        4.856157         2    ;  uncertainty k = 0.148466
        19        49        18        20     4      180.000000        4.856157         2    ;  uncertainty k = 0.148466
        20        19        21        25     4      180.000000        6.209821         2    ;  uncertainty k = 0.262054
        20        21        25        19     4      180.000000        6.209821         2    ;  uncertainty k = 0.262054
        20        25        19        21     4      180.000000        6.209821         2    ;  uncertainty k = 0.262054
        25        20        26        50     4      180.000000        4.574178         2    ;  uncertainty k = 0.267402
        25        26        50        20     4      180.000000        4.574178         2    ;  uncertainty k = 0.267402
        25        50        20        26     4      180.000000        4.574178         2    ;  uncertainty k = 0.267402
        26        17        25        27     4      180.000000       10.428011         2    ;  uncertainty k = 0.207305
        26        25        27        17     4      180.000000       10.428011         2    ;  uncertainty k = 0.207305
        26        27        17        25     4      180.000000       10.428011         2    ;  uncertainty k = 0.207305

[ pairs ]
;       ai        aj funct
         1         4     1
         1        33     1
         1        34     1
         2         5     1
         2        28     1
         2        35     1
         3         6     1
         3        27     1
         3        29     1
         3        30     1
         3        31     1
         3        36     1
         3        37     1
         4         7     1
         4        26     1
         4        32     1
         4        38     1
         4        39     1
         4        51     1
         4        52     1
         5         8     1
         5        27     1
         5        33     1
         5        34     1
         5        40     1
         6         9     1
         6        16     1
         6        26     1
         6        28     1
         6        35     1
         6        41     1
         6        51     1
         7        10     1
         7        15     1
         7        17     1
         7        25     1
         7        36     1
         7        37     1
         7        47     1
         8        11     1
         8        14     1
         8        18     1
         8        26     1
         8        28     1
         8        38     1
         8        39     1
         8        42     1
         8        46     1
         8        51     1
         9        12     1
         9        17     1
         9        27     1
         9        40     1
         9        43     1
         9        45     1
         9        47     1
        10        13     1
        10        14     1
        10        16     1
        10        41     1
        10        46     1
        11        15     1
        11        44     1
        11        45     1
        12        42     1
        12        46     1
        13        15     1
        13        43     1
        13        45     1
        14        43     1
        14        44     1
        15        16     1
        15        41     1
        15        42     1
        16        19     1
        16        25     1
        16        27     1
        16        40     1
        16        48     1
        17        20     1
        17        28     1
        17        41     1
        17        49     1
        17        50     1
        17        51     1
        18        21     1
        18        25     1
        18        27     1
        18        47     1
        19        22     1
        19        23     1
        19        24     1
        19        26     1
        19        50     1
        20        27     1
        20        48     1
        21        26     1
        21        49     1
        21        50     1
        22        25     1
        23        25     1
        24        25     1
        25        28     1
        25        49     1
        25        51     1
        26        40     1
        26        47     1
        26        48     1
        27        35     1
        27        38     1
        27        39     1
        27        41     1
        27        50     1
        28        33     1
        28        34     1
        28        36     1
        28        37     1
        28        40     1
        29        32     1
        29        52     1
        30        32     1
        30        52     1
        31        32     1
        31        52     1
        32        33     1
        32        34     1
        33        35     1
        33        52     1
        34        35     1
        34        52     1
        35        36     1
        35        37     1
        36        38     1
        36        39     1
        37        38     1
        37        39     1
        38        40     1
        39        40     1
        40        41     1
        40        51     1
        41        47     1
        42        43     1
        45        46     1
        48        49     1
