; ITP file created by ByteFF-joint-25, 2026-02-17 09:13:00.943350

[ atomtypes ]
;name           bonded.type        at.num        mass        charge   ptype           sigma         epsilon
 n0bf                                   7      0.0000       0.00000       A     2.76673e-01     4.79820e+00    ;  uncertainty sigma = 0.000081, epsilon = 0.013889
 c1bf                                   6      0.0000       0.00000       A     3.39835e-01     4.50388e-01    ;  uncertainty sigma = 0.000027, epsilon = 0.001398
 c2bf                                   6      0.0000       0.00000       A     3.39764e-01     4.50883e-01    ;  uncertainty sigma = 0.000032, epsilon = 0.002790
 n3bf                                   7      0.0000       0.00000       A     3.19167e-01     8.89659e-01    ;  uncertainty sigma = 0.000033, epsilon = 0.008592
 c4bf                                   6      0.0000       0.00000       A     3.39761e-01     4.50592e-01    ;  uncertainty sigma = 0.000009, epsilon = 0.000844
 c5bf                                   6      0.0000       0.00000       A     3.39764e-01     4.51052e-01    ;  uncertainty sigma = 0.000010, epsilon = 0.001295
 c6bf                                   6      0.0000       0.00000       A     3.39789e-01     4.50789e-01    ;  uncertainty sigma = 0.000007, epsilon = 0.000757
 c7bf                                   6      0.0000       0.00000       A     3.39750e-01     4.51142e-01    ;  uncertainty sigma = 0.000011, epsilon = 0.000651
 c8bf                                   6      0.0000       0.00000       A     3.39755e-01     4.50973e-01    ;  uncertainty sigma = 0.000035, epsilon = 0.000615
 c9bf                                   6      0.0000       0.00000       A     3.39774e-01     4.51693e-01    ;  uncertainty sigma = 0.000009, epsilon = 0.001676
 c10bf                                  6      0.0000       0.00000       A     3.31532e-01     4.13295e-01    ;  uncertainty sigma = 0.000012, epsilon = 0.000849
 c11bf                                  6      0.0000       0.00000       A     3.31519e-01     4.13329e-01    ;  uncertainty sigma = 0.000002, epsilon = 0.000632
 c12bf                                  6      0.0000       0.00000       A     3.31520e-01     4.13328e-01    ;  uncertainty sigma = 0.000003, epsilon = 0.000582
 c13bf                                  6      0.0000       0.00000       A     3.31518e-01     4.13340e-01    ;  uncertainty sigma = 0.000003, epsilon = 0.000579
 c14bf                                  6      0.0000       0.00000       A     3.31520e-01     4.13328e-01    ;  uncertainty sigma = 0.000003, epsilon = 0.000582
 c15bf                                  6      0.0000       0.00000       A     3.31519e-01     4.13329e-01    ;  uncertainty sigma = 0.000002, epsilon = 0.000632
 n16bf                                  7      0.0000       0.00000       A     3.27909e-01     6.44315e-01    ;  uncertainty sigma = 0.000015, epsilon = 0.004120
 c17bf                                  6      0.0000       0.00000       A     3.31548e-01     4.13221e-01    ;  uncertainty sigma = 0.000016, epsilon = 0.001142
 c18bf                                  6      0.0000       0.00000       A     3.31520e-01     4.13421e-01    ;  uncertainty sigma = 0.000010, epsilon = 0.000475
 c19bf                                  6      0.0000       0.00000       A     3.31512e-01     4.13402e-01    ;  uncertainty sigma = 0.000007, epsilon = 0.000559
 c20bf                                  6      0.0000       0.00000       A     3.31517e-01     4.13262e-01    ;  uncertainty sigma = 0.000010, epsilon = 0.000628
 c21bf                                  6      0.0000       0.00000       A     3.39792e-01     4.50242e-01    ;  uncertainty sigma = 0.000013, epsilon = 0.000578
 f22bf                                  9      0.0000       0.00000       A     3.03451e-01     3.47806e-01    ;  uncertainty sigma = 0.000008, epsilon = 0.001323
 f23bf                                  9      0.0000       0.00000       A     3.03451e-01     3.47806e-01    ;  uncertainty sigma = 0.000008, epsilon = 0.001323
 f24bf                                  9      0.0000       0.00000       A     3.03451e-01     3.47806e-01    ;  uncertainty sigma = 0.000008, epsilon = 0.001323
 c25bf                                  6      0.0000       0.00000       A     3.31532e-01     4.13181e-01    ;  uncertainty sigma = 0.000009, epsilon = 0.000749
 c26bf                                  6      0.0000       0.00000       A     3.31540e-01     4.13240e-01    ;  uncertainty sigma = 0.000019, epsilon = 0.000618
 c27bf                                  6      0.0000       0.00000       A     3.39758e-01     4.50739e-01    ;  uncertainty sigma = 0.000017, epsilon = 0.001669
 o28bf                                  8      0.0000       0.00000       A     3.15655e-01     3.03495e-01    ;  uncertainty sigma = 0.000036, epsilon = 0.001319
 c29bf                                  6      0.0000       0.00000       A     3.31459e-01     4.13367e-01    ;  uncertainty sigma = 0.000033, epsilon = 0.002262
 c30bf                                  6      0.0000       0.00000       A     3.31523e-01     4.13370e-01    ;  uncertainty sigma = 0.000004, epsilon = 0.000783
 c31bf                                  6      0.0000       0.00000       A     3.31520e-01     4.13368e-01    ;  uncertainty sigma = 0.000003, epsilon = 0.000559
 c32bf                                  6      0.0000       0.00000       A     3.31522e-01     4.13297e-01    ;  uncertainty sigma = 0.000003, epsilon = 0.000596
 c33bf                                  6      0.0000       0.00000       A     3.31520e-01     4.13368e-01    ;  uncertainty sigma = 0.000003, epsilon = 0.000559
 c34bf                                  6      0.0000       0.00000       A     3.31523e-01     4.13370e-01    ;  uncertainty sigma = 0.000004, epsilon = 0.000783
 h35bf                                  1      0.0000       0.00000       A     1.10664e-01     4.15737e-02    ;  uncertainty sigma = 0.000063, epsilon = 0.000603
 h36bf                                  1      0.0000       0.00000       A     1.10664e-01     4.15737e-02    ;  uncertainty sigma = 0.000063, epsilon = 0.000603
 h37bf                                  1      0.0000       0.00000       A     1.88740e-01     8.63243e-02    ;  uncertainty sigma = 0.000067, epsilon = 0.001736
 h38bf                                  1      0.0000       0.00000       A     1.88740e-01     8.63243e-02    ;  uncertainty sigma = 0.000067, epsilon = 0.001736
 h39bf                                  1      0.0000       0.00000       A     2.42189e-01     8.72843e-02    ;  uncertainty sigma = 0.000142, epsilon = 0.000973
 h40bf                                  1      0.0000       0.00000       A     2.42189e-01     8.72843e-02    ;  uncertainty sigma = 0.000142, epsilon = 0.000973
 h41bf                                  1      0.0000       0.00000       A     2.42168e-01     8.67052e-02    ;  uncertainty sigma = 0.000036, epsilon = 0.000679
 h42bf                                  1      0.0000       0.00000       A     2.42168e-01     8.67052e-02    ;  uncertainty sigma = 0.000036, epsilon = 0.000679
 h43bf                                  1      0.0000       0.00000       A     2.42202e-01     8.72551e-02    ;  uncertainty sigma = 0.000054, epsilon = 0.001184
 h44bf                                  1      0.0000       0.00000       A     2.60026e-01     8.66991e-02    ;  uncertainty sigma = 0.000012, epsilon = 0.000652
 h45bf                                  1      0.0000       0.00000       A     2.60026e-01     8.66991e-02    ;  uncertainty sigma = 0.000012, epsilon = 0.000652
 h46bf                                  1      0.0000       0.00000       A     2.60028e-01     8.66831e-02    ;  uncertainty sigma = 0.000010, epsilon = 0.000720
 h47bf                                  1      0.0000       0.00000       A     2.60028e-01     8.66831e-02    ;  uncertainty sigma = 0.000010, epsilon = 0.000720
 h48bf                                  1      0.0000       0.00000       A     2.59938e-01     8.64077e-02    ;  uncertainty sigma = 0.000052, epsilon = 0.000980
 h49bf                                  1      0.0000       0.00000       A     2.42303e-01     8.69596e-02    ;  uncertainty sigma = 0.000074, epsilon = 0.001557
 h50bf                                  1      0.0000       0.00000       A     2.62560e-01     6.70316e-02    ;  uncertainty sigma = 0.000006, epsilon = 0.000529
 h51bf                                  1      0.0000       0.00000       A     2.62559e-01     6.70249e-02    ;  uncertainty sigma = 0.000010, epsilon = 0.000440
 h52bf                                  1      0.0000       0.00000       A     2.62552e-01     6.70645e-02    ;  uncertainty sigma = 0.000011, epsilon = 0.000453
 h53bf                                  1      0.0000       0.00000       A     2.62559e-01     6.70249e-02    ;  uncertainty sigma = 0.000010, epsilon = 0.000440
 h54bf                                  1      0.0000       0.00000       A     2.62560e-01     6.70316e-02    ;  uncertainty sigma = 0.000006, epsilon = 0.000529
 h55bf                                  1      0.0000       0.00000       A     1.10675e-01     4.07503e-02    ;  uncertainty sigma = 0.000109, epsilon = 0.000764
 h56bf                                  1      0.0000       0.00000       A     2.62577e-01     6.70680e-02    ;  uncertainty sigma = 0.000013, epsilon = 0.000535
 h57bf                                  1      0.0000       0.00000       A     2.62556e-01     6.71147e-02    ;  uncertainty sigma = 0.000013, epsilon = 0.000508
 h58bf                                  1      0.0000       0.00000       A     2.62531e-01     6.70779e-02    ;  uncertainty sigma = 0.000022, epsilon = 0.000511
 h59bf                                  1      0.0000       0.00000       A     2.42239e-01     8.76589e-02    ;  uncertainty sigma = 0.000274, epsilon = 0.002166
 h60bf                                  1      0.0000       0.00000       A     2.62558e-01     6.70910e-02    ;  uncertainty sigma = 0.000009, epsilon = 0.000713
 h61bf                                  1      0.0000       0.00000       A     2.62557e-01     6.69913e-02    ;  uncertainty sigma = 0.000012, epsilon = 0.000478
 h62bf                                  1      0.0000       0.00000       A     2.62552e-01     6.70645e-02    ;  uncertainty sigma = 0.000011, epsilon = 0.000453
 h63bf                                  1      0.0000       0.00000       A     2.62557e-01     6.69913e-02    ;  uncertainty sigma = 0.000012, epsilon = 0.000478
 h64bf                                  1      0.0000       0.00000       A     2.62558e-01     6.70909e-02    ;  uncertainty sigma = 0.000009, epsilon = 0.000713
 h65bf                                  1      0.0000       0.00000       A     1.10664e-01     4.15738e-02    ;  uncertainty sigma = 0.000063, epsilon = 0.000603

[ moleculetype ]
;name             nrexcl
 MOL                   3

[ atoms ]
;       nr            type      resi   res      atom      cgnr      charge          mass ; qtot
         1            n0bf         1   UNL        n0         1    -0.86841       14.0070 ; qtot   -0.868
         2            c1bf         1   UNL        c1         2     0.13091       12.0110 ; qtot   -0.738
         3            c2bf         1   UNL        c2         3     0.18291       12.0110 ; qtot   -0.555
         4            n3bf         1   UNL        n3         4    -0.68509       14.0070 ; qtot   -1.240
         5            c4bf         1   UNL        c4         5     0.19274       12.0110 ; qtot   -1.047
         6            c5bf         1   UNL        c5         6     0.12476       12.0110 ; qtot   -0.922
         7            c6bf         1   UNL        c6         7    -0.10334       12.0110 ; qtot   -1.026
         8            c7bf         1   UNL        c7         8    -0.06723       12.0110 ; qtot   -1.093
         9            c8bf         1   UNL        c8         9    -0.09461       12.0110 ; qtot   -1.187
        10            c9bf         1   UNL        c9        10     0.25867       12.0110 ; qtot   -0.929
        11           c10bf         1   UNL       c10        11    -0.10560       12.0110 ; qtot   -1.034
        12           c11bf         1   UNL       c11        12    -0.11888       12.0110 ; qtot   -1.153
        13           c12bf         1   UNL       c12        13    -0.13078       12.0110 ; qtot   -1.284
        14           c13bf         1   UNL       c13        14    -0.12452       12.0110 ; qtot   -1.408
        15           c14bf         1   UNL       c14        15    -0.13078       12.0110 ; qtot   -1.539
        16           c15bf         1   UNL       c15        16    -0.11888       12.0110 ; qtot   -1.658
        17           n16bf         1   UNL       n16        17    -0.73726       14.0070 ; qtot   -2.395
        18           c17bf         1   UNL       c17        18     0.18349       12.0110 ; qtot   -2.212
        19           c18bf         1   UNL       c18        19    -0.20421       12.0110 ; qtot   -2.416
        20           c19bf         1   UNL       c19        20    -0.02807       12.0110 ; qtot   -2.444
        21           c20bf         1   UNL       c20        21    -0.22948       12.0110 ; qtot   -2.674
        22           c21bf         1   UNL       c21        22     0.71240       12.0110 ; qtot   -1.961
        23           f22bf         1   UNL       f22        23    -0.22895       18.9980 ; qtot   -2.190
        24           f23bf         1   UNL       f23        24    -0.22895       18.9980 ; qtot   -2.419
        25           f24bf         1   UNL       f24        25    -0.22895       18.9980 ; qtot   -2.648
        26           c25bf         1   UNL       c25        26    -0.01242       12.0110 ; qtot   -2.661
        27           c26bf         1   UNL       c26        27    -0.15471       12.0110 ; qtot   -2.815
        28           c27bf         1   UNL       c27        28     0.20143       12.0110 ; qtot   -2.614
        29           o28bf         1   UNL       o28        29    -0.41681       15.9990 ; qtot   -3.031
        30           c29bf         1   UNL       c29        30     0.10966       12.0110 ; qtot   -2.921
        31           c30bf         1   UNL       c30        31    -0.16142       12.0110 ; qtot   -3.082
        32           c31bf         1   UNL       c31        32    -0.10472       12.0110 ; qtot   -3.187
        33           c32bf         1   UNL       c32        33    -0.14273       12.0110 ; qtot   -3.330
        34           c33bf         1   UNL       c33        34    -0.10472       12.0110 ; qtot   -3.435
        35           c34bf         1   UNL       c34        35    -0.16142       12.0110 ; qtot   -3.596
        36           h35bf         1   UNL       h35        36     0.47795        1.0080 ; qtot   -3.118
        37           h36bf         1   UNL       h36        37     0.47795        1.0080 ; qtot   -2.640
        38           h37bf         1   UNL       h37        38     0.11677        1.0080 ; qtot   -2.523
        39           h38bf         1   UNL       h38        39     0.11677        1.0080 ; qtot   -2.407
        40           h39bf         1   UNL       h39        40     0.08827        1.0080 ; qtot   -2.318
        41           h40bf         1   UNL       h40        41     0.08827        1.0080 ; qtot   -2.230
        42           h41bf         1   UNL       h41        42     0.06520        1.0080 ; qtot   -2.165
        43           h42bf         1   UNL       h42        43     0.06520        1.0080 ; qtot   -2.100
        44           h43bf         1   UNL       h43        44     0.05497        1.0080 ; qtot   -2.045
        45           h44bf         1   UNL       h44        45     0.05502        1.0080 ; qtot   -1.990
        46           h45bf         1   UNL       h45        46     0.05502        1.0080 ; qtot   -1.935
        47           h46bf         1   UNL       h46        47     0.04984        1.0080 ; qtot   -1.885
        48           h47bf         1   UNL       h47        48     0.04984        1.0080 ; qtot   -1.835
        49           h48bf         1   UNL       h48        49     0.06904        1.0080 ; qtot   -1.766
        50           h49bf         1   UNL       h49        50     0.05360        1.0080 ; qtot   -1.712
        51           h50bf         1   UNL       h50        51     0.13512        1.0080 ; qtot   -1.577
        52           h51bf         1   UNL       h51        52     0.13172        1.0080 ; qtot   -1.445
        53           h52bf         1   UNL       h52        53     0.13373        1.0080 ; qtot   -1.312
        54           h53bf         1   UNL       h53        54     0.13172        1.0080 ; qtot   -1.180
        55           h54bf         1   UNL       h54        55     0.13512        1.0080 ; qtot   -1.045
        56           h55bf         1   UNL       h55        56     0.40889        1.0080 ; qtot   -0.636
        57           h56bf         1   UNL       h56        57     0.13718        1.0080 ; qtot   -0.499
        58           h57bf         1   UNL       h57        58     0.15124        1.0080 ; qtot   -0.348
        59           h58bf         1   UNL       h58        59     0.15267        1.0080 ; qtot   -0.195
        60           h59bf         1   UNL       h59        60     0.05783        1.0080 ; qtot   -0.137
        61           h60bf         1   UNL       h60        61     0.13015        1.0080 ; qtot   -0.007
        62           h61bf         1   UNL       h61        62     0.13261        1.0080 ; qtot    0.126
        63           h62bf         1   UNL       h62        63     0.13359        1.0080 ; qtot    0.259
        64           h63bf         1   UNL       h63        64     0.13261        1.0080 ; qtot    0.392
        65           h64bf         1   UNL       h64        65     0.13015        1.0080 ; qtot    0.522
        66           h65bf         1   UNL       h65        66     0.47793        1.0080 ; qtot    1.000

[ bonds ]
;       ai        aj funct               r               k
         1         2     1        0.150350   185767.697485    ;  uncertainty r = 0.000113, k = 13.955070
         1        36     1        0.103471   391912.833545    ;  uncertainty r = 0.000234, k = 9.870616
         1        37     1        0.103471   391912.833545    ;  uncertainty r = 0.000234, k = 9.870616
         1        66     1        0.103471   391912.833545    ;  uncertainty r = 0.000234, k = 9.870616
         2         3     1        0.154071   207914.078857    ;  uncertainty r = 0.000259, k = 15.686509
         2        38     1        0.108934   316769.787061    ;  uncertainty r = 0.000061, k = 4.684195
         2        39     1        0.108934   316769.787061    ;  uncertainty r = 0.000061, k = 4.684195
         3         4     1        0.144355   238969.987402    ;  uncertainty r = 0.000482, k = 29.268620
         3        40     1        0.109514   309033.600684    ;  uncertainty r = 0.000049, k = 3.960396
         3        41     1        0.109514   309033.600684    ;  uncertainty r = 0.000049, k = 3.960396
         4         5     1        0.144837   252714.263965    ;  uncertainty r = 0.000500, k = 26.849471
         4        30     1        0.142459   357569.737207    ;  uncertainty r = 0.000388, k = 26.149757
         5         6     1        0.152851   201104.698022    ;  uncertainty r = 0.000194, k = 8.317462
         5        42     1        0.109609   308484.093164    ;  uncertainty r = 0.000028, k = 1.428824
         5        43     1        0.109609   308484.093164    ;  uncertainty r = 0.000028, k = 1.428824
         6         7     1        0.152801   205489.892139    ;  uncertainty r = 0.000049, k = 7.897583
         6        29     1        0.142714   234549.718066    ;  uncertainty r = 0.000137, k = 9.366468
         6        44     1        0.110013   304990.667676    ;  uncertainty r = 0.000067, k = 3.482911
         7         8     1        0.153373   213827.668970    ;  uncertainty r = 0.000063, k = 3.017760
         7        45     1        0.109667   309966.318066    ;  uncertainty r = 0.000019, k = 0.680553
         7        46     1        0.109667   309966.318066    ;  uncertainty r = 0.000019, k = 0.680553
         8         9     1        0.153242   204627.146436    ;  uncertainty r = 0.000107, k = 8.446574
         8        47     1        0.109603   307691.242529    ;  uncertainty r = 0.000022, k = 1.054580
         8        48     1        0.109603   307691.242529    ;  uncertainty r = 0.000022, k = 1.054580
         9        10     1        0.153739   194039.869482    ;  uncertainty r = 0.000049, k = 9.258954
         9        28     1        0.153400   194695.917822    ;  uncertainty r = 0.000160, k = 12.259017
         9        49     1        0.109712   307584.676172    ;  uncertainty r = 0.000061, k = 3.997495
        10        11     1        0.151697   221951.751270    ;  uncertainty r = 0.000088, k = 6.014300
        10        17     1        0.146438   246437.344629    ;  uncertainty r = 0.000120, k = 17.715141
        10        50     1        0.110060   298327.090967    ;  uncertainty r = 0.000134, k = 4.183520
        11        12     1        0.139859   350947.632764    ;  uncertainty r = 0.000040, k = 0.862450
        11        16     1        0.139859   350947.632764    ;  uncertainty r = 0.000040, k = 0.862450
        12        13     1        0.139620   365997.723877    ;  uncertainty r = 0.000023, k = 1.204472
        12        51     1        0.108883   334327.826611    ;  uncertainty r = 0.000023, k = 0.510248
        13        14     1        0.139607   371240.977637    ;  uncertainty r = 0.000016, k = 0.703182
        13        52     1        0.108851   333986.931738    ;  uncertainty r = 0.000010, k = 1.017336
        14        15     1        0.139607   371240.977637    ;  uncertainty r = 0.000016, k = 0.703184
        14        53     1        0.108841   334518.920801    ;  uncertainty r = 0.000012, k = 0.635624
        15        16     1        0.139620   365997.698340    ;  uncertainty r = 0.000023, k = 1.204481
        15        54     1        0.108851   333986.906201    ;  uncertainty r = 0.000010, k = 1.017345
        16        55     1        0.108883   334327.826611    ;  uncertainty r = 0.000023, k = 0.510248
        17        18     1        0.139955   343991.400781    ;  uncertainty r = 0.000126, k = 9.082252
        17        56     1        0.101439   412844.274170    ;  uncertainty r = 0.000047, k = 2.472848
        18        19     1        0.140865   368811.377051    ;  uncertainty r = 0.000044, k = 7.230094
        18        27     1        0.140838   346500.523926    ;  uncertainty r = 0.000177, k = 22.908304
        19        20     1        0.138816   370640.140527    ;  uncertainty r = 0.000068, k = 3.048055
        19        57     1        0.108921   336733.064795    ;  uncertainty r = 0.000029, k = 1.482990
        20        21     1        0.139378   352395.893311    ;  uncertainty r = 0.000125, k = 2.402628
        20        58     1        0.108598   332329.164746    ;  uncertainty r = 0.000022, k = 1.147958
        21        22     1        0.149257   213835.572705    ;  uncertainty r = 0.000082, k = 4.037106
        21        26     1        0.139076   345540.047705    ;  uncertainty r = 0.000116, k = 2.172398
        22        23     1        0.135370   287114.180371    ;  uncertainty r = 0.000024, k = 3.515884
        22        24     1        0.135370   287114.180371    ;  uncertainty r = 0.000024, k = 3.515884
        22        25     1        0.135370   287114.180371    ;  uncertainty r = 0.000024, k = 3.515891
        26        27     1        0.139099   350903.249268    ;  uncertainty r = 0.000165, k = 2.364282
        26        59     1        0.108699   332543.931836    ;  uncertainty r = 0.000028, k = 1.734946
        27        28     1        0.150993   220016.498047    ;  uncertainty r = 0.000073, k = 8.238210
        28        29     1        0.143143   226566.383545    ;  uncertainty r = 0.000167, k = 8.849779
        28        60     1        0.110073   304804.348926    ;  uncertainty r = 0.000100, k = 3.298894
        30        31     1        0.140417   342349.517871    ;  uncertainty r = 0.000166, k = 10.400455
        30        35     1        0.140417   342349.517871    ;  uncertainty r = 0.000166, k = 10.400455
        31        32     1        0.139485   364616.115186    ;  uncertainty r = 0.000030, k = 2.237104
        31        61     1        0.108773   336873.212451    ;  uncertainty r = 0.000036, k = 2.574515
        32        33     1        0.139633   370424.505176    ;  uncertainty r = 0.000014, k = 1.332451
        32        62     1        0.108816   333316.148486    ;  uncertainty r = 0.000011, k = 0.875381
        33        34     1        0.139633   370424.556250    ;  uncertainty r = 0.000014, k = 1.332451
        33        63     1        0.108822   334580.720605    ;  uncertainty r = 0.000014, k = 0.945915
        34        35     1        0.139485   364616.115186    ;  uncertainty r = 0.000030, k = 2.237104
        34        64     1        0.108816   333316.148486    ;  uncertainty r = 0.000011, k = 0.875381
        35        65     1        0.108773   336873.237988    ;  uncertainty r = 0.000036, k = 2.574511

[ angles ]
;       ai        aj        ak funct           theta             cth
         1         2         3     1      110.954941      658.340806    ;  uncertainty theta = 0.005461, k = 0.314039
         1         2        38     1      105.764442      456.333333    ;  uncertainty theta = 0.002532, k = 0.162460
         1         2        39     1      105.764442      456.333333    ;  uncertainty theta = 0.002532, k = 0.162460
         2         1        36     1      110.348106      426.021103    ;  uncertainty theta = 0.003872, k = 0.134995
         2         1        37     1      110.348106      426.021103    ;  uncertainty theta = 0.003872, k = 0.134995
         2         1        66     1      110.348106      426.021103    ;  uncertainty theta = 0.003872, k = 0.134995
         2         3         4     1      110.954727      551.756317    ;  uncertainty theta = 0.009059, k = 0.127358
         2         3        40     1      108.028122      411.683134    ;  uncertainty theta = 0.003129, k = 0.075064
         2         3        41     1      108.028122      411.683134    ;  uncertainty theta = 0.003129, k = 0.075064
         3         2        38     1      110.953873      377.329273    ;  uncertainty theta = 0.003534, k = 0.294125
         3         2        39     1      110.953873      377.329273    ;  uncertainty theta = 0.003534, k = 0.294125
         3         4         5     1      109.615700      420.071244    ;  uncertainty theta = 0.007560, k = 0.282136
         3         4        30     1      110.735123      432.691492    ;  uncertainty theta = 0.006350, k = 0.198693
         4         3        40     1      108.246109      432.135070    ;  uncertainty theta = 0.003484, k = 0.163246
         4         3        41     1      108.246109      432.135070    ;  uncertainty theta = 0.003484, k = 0.163246
         4         5         6     1      110.747276      572.943819    ;  uncertainty theta = 0.004064, k = 0.135389
         4         5        42     1      107.582497      430.164946    ;  uncertainty theta = 0.003827, k = 0.093762
         4         5        43     1      107.582497      430.164946    ;  uncertainty theta = 0.003827, k = 0.093762
         4        30        31     1      122.565384      480.885891    ;  uncertainty theta = 0.004517, k = 0.112904
         4        30        35     1      122.565384      480.885891    ;  uncertainty theta = 0.004517, k = 0.112904
         5         4        30     1      112.193558      432.355839    ;  uncertainty theta = 0.004523, k = 0.142139
         5         6         7     1      111.195602      552.917171    ;  uncertainty theta = 0.001523, k = 0.130218
         5         6        29     1      106.600426      564.255902    ;  uncertainty theta = 0.003867, k = 0.095675
         5         6        44     1      107.693344      399.607145    ;  uncertainty theta = 0.002593, k = 0.101114
         6         5        42     1      107.674011      406.434332    ;  uncertainty theta = 0.003138, k = 0.062364
         6         5        43     1      107.674011      406.434332    ;  uncertainty theta = 0.003138, k = 0.062364
         6         7         8     1      109.210831      593.397128    ;  uncertainty theta = 0.002716, k = 0.072739
         6         7        45     1      107.762344      381.903034    ;  uncertainty theta = 0.001464, k = 0.086776
         6         7        46     1      107.762344      381.903034    ;  uncertainty theta = 0.001464, k = 0.086776
         6        29        28     1      110.734573      506.236739    ;  uncertainty theta = 0.005532, k = 0.165829
         7         6        29     1      110.280663      685.131021    ;  uncertainty theta = 0.002876, k = 0.164339
         7         6        44     1      109.229630      401.420823    ;  uncertainty theta = 0.001607, k = 0.056636
         7         8         9     1      109.528542      575.339583    ;  uncertainty theta = 0.001858, k = 0.111260
         7         8        47     1      108.674637      404.304154    ;  uncertainty theta = 0.001661, k = 0.085486
         7         8        48     1      108.674637      404.304154    ;  uncertainty theta = 0.001661, k = 0.085486
         8         7        45     1      109.059631      398.394548    ;  uncertainty theta = 0.000792, k = 0.058775
         8         7        46     1      109.059631      398.394548    ;  uncertainty theta = 0.000792, k = 0.058775
         8         9        10     1      110.668663      549.457275    ;  uncertainty theta = 0.001592, k = 0.164942
         8         9        28     1      109.757545      586.243673    ;  uncertainty theta = 0.001743, k = 0.104953
         8         9        49     1      108.033615      400.292593    ;  uncertainty theta = 0.002769, k = 0.102571
         9         8        47     1      108.106873      388.738041    ;  uncertainty theta = 0.001573, k = 0.068099
         9         8        48     1      108.106873      388.738041    ;  uncertainty theta = 0.001573, k = 0.068099
         9        10        11     1      111.667801      538.117586    ;  uncertainty theta = 0.002515, k = 0.172335
         9        10        17     1      108.357506      705.618040    ;  uncertainty theta = 0.004557, k = 0.110168
         9        10        50     1      107.075500      386.196237    ;  uncertainty theta = 0.002778, k = 0.128014
         9        28        27     1      111.625320      556.167789    ;  uncertainty theta = 0.004213, k = 0.223970
         9        28        29     1      110.980637      663.225098    ;  uncertainty theta = 0.005565, k = 0.092535
         9        28        60     1      107.766991      393.384167    ;  uncertainty theta = 0.003517, k = 0.113971
        10         9        28     1      109.545090      552.757117    ;  uncertainty theta = 0.004180, k = 0.136617
        10         9        49     1      105.964149      389.824836    ;  uncertainty theta = 0.001608, k = 0.093762
        10        11        12     1      119.922928      425.651326    ;  uncertainty theta = 0.003113, k = 0.143043
        10        11        16     1      119.922928      425.651358    ;  uncertainty theta = 0.003113, k = 0.143043
        10        17        18     1      114.218895      391.657475    ;  uncertainty theta = 0.007311, k = 0.149022
        10        17        56     1      110.064499      352.462577    ;  uncertainty theta = 0.003551, k = 0.095281
        11        10        17     1      111.031082      663.623221    ;  uncertainty theta = 0.001203, k = 0.168660
        11        10        50     1      106.340919      410.762170    ;  uncertainty theta = 0.002105, k = 0.098132
        11        12        13     1      121.166641      520.323009    ;  uncertainty theta = 0.001889, k = 0.047519
        11        12        51     1      118.895851      266.730000    ;  uncertainty theta = 0.002264, k = 0.064094
        11        16        15     1      121.166641      520.323009    ;  uncertainty theta = 0.001889, k = 0.047519
        11        16        55     1      118.895851      266.730000    ;  uncertainty theta = 0.002264, k = 0.064094
        12        11        16     1      120.206970      460.017476    ;  uncertainty theta = 0.003029, k = 0.098153
        12        13        14     1      119.685776      513.267201    ;  uncertainty theta = 0.000971, k = 0.012607
        12        13        52     1      120.211227      283.897545    ;  uncertainty theta = 0.001315, k = 0.018226
        13        12        51     1      120.235497      292.477280    ;  uncertainty theta = 0.001696, k = 0.031106
        13        14        15     1      118.246803      526.555213    ;  uncertainty theta = 0.000903, k = 0.024013
        13        14        53     1      120.647278      289.320829    ;  uncertainty theta = 0.001403, k = 0.006566
        14        13        52     1      120.620949      287.638764    ;  uncertainty theta = 0.001444, k = 0.012507
        14        15        16     1      119.685776      513.267201    ;  uncertainty theta = 0.000971, k = 0.012607
        14        15        54     1      120.620949      287.638764    ;  uncertainty theta = 0.001444, k = 0.012507
        15        14        53     1      120.647278      289.320829    ;  uncertainty theta = 0.001403, k = 0.006566
        15        16        55     1      120.235497      292.477280    ;  uncertainty theta = 0.001696, k = 0.031106
        16        15        54     1      120.211227      283.897545    ;  uncertainty theta = 0.001315, k = 0.018226
        17        10        50     1      107.894577      455.839254    ;  uncertainty theta = 0.003753, k = 0.115430
        17        18        19     1      123.141701      575.910018    ;  uncertainty theta = 0.003511, k = 0.120934
        17        18        27     1      122.317612      499.033231    ;  uncertainty theta = 0.010194, k = 0.209541
        18        17        56     1      111.105759      386.782760    ;  uncertainty theta = 0.005516, k = 0.186771
        18        19        20     1      120.478416      516.109003    ;  uncertainty theta = 0.002075, k = 0.087339
        18        19        57     1      119.051010      277.924383    ;  uncertainty theta = 0.004177, k = 0.151845
        18        27        26     1      120.424454      453.080097    ;  uncertainty theta = 0.006616, k = 0.179671
        18        27        28     1      120.375427      356.825848    ;  uncertainty theta = 0.009333, k = 0.368707
        19        18        27     1      118.942970      382.845385    ;  uncertainty theta = 0.005312, k = 0.129488
        19        20        21     1      120.981323      513.612814    ;  uncertainty theta = 0.003622, k = 0.061051
        19        20        58     1      120.001465      286.894165    ;  uncertainty theta = 0.002804, k = 0.033751
        20        19        57     1      120.437340      286.262218    ;  uncertainty theta = 0.002252, k = 0.069391
        20        21        22     1      116.839577      343.993737    ;  uncertainty theta = 0.004979, k = 0.130748
        20        21        26     1      121.948021      476.311014    ;  uncertainty theta = 0.002704, k = 0.206185
        21        20        58     1      118.183693      271.648352    ;  uncertainty theta = 0.003054, k = 0.062508
        21        22        23     1      113.129189      665.135146    ;  uncertainty theta = 0.002597, k = 0.018376
        21        22        24     1      113.129189      665.135146    ;  uncertainty theta = 0.002597, k = 0.018376
        21        22        25     1      113.129189      665.135146    ;  uncertainty theta = 0.002597, k = 0.018376
        21        26        27     1      123.128990      512.049368    ;  uncertainty theta = 0.004008, k = 0.124705
        21        26        59     1      117.799782      273.317648    ;  uncertainty theta = 0.004465, k = 0.082060
        22        21        26     1      116.421097      363.451706    ;  uncertainty theta = 0.005624, k = 0.222078
        23        22        24     1      107.629150      789.646430    ;  uncertainty theta = 0.002059, k = 0.013010
        23        22        25     1      107.629150      789.646430    ;  uncertainty theta = 0.002059, k = 0.013010
        24        22        25     1      107.629150      789.646430    ;  uncertainty theta = 0.002059, k = 0.013010
        26        27        28     1      118.950241      402.591572    ;  uncertainty theta = 0.003729, k = 0.167766
        27        26        59     1      118.101120      267.172941    ;  uncertainty theta = 0.003492, k = 0.082588
        27        28        29     1      108.932114      646.343025    ;  uncertainty theta = 0.006927, k = 0.350754
        27        28        60     1      108.297501      391.435015    ;  uncertainty theta = 0.004361, k = 0.086695
        28         9        49     1      106.452866      398.861877    ;  uncertainty theta = 0.002907, k = 0.084787
        29         6        44     1      106.690308      456.886531    ;  uncertainty theta = 0.005408, k = 0.168953
        29        28        60     1      106.271156      448.201041    ;  uncertainty theta = 0.002888, k = 0.167599
        30        31        32     1      119.999756      523.383727    ;  uncertainty theta = 0.003336, k = 0.021470
        30        31        61     1      118.817917      272.693617    ;  uncertainty theta = 0.001937, k = 0.053921
        30        35        34     1      119.999756      523.383727    ;  uncertainty theta = 0.003336, k = 0.021470
        30        35        65     1      118.817917      272.693617    ;  uncertainty theta = 0.001937, k = 0.053921
        31        30        35     1      121.136452      369.330253    ;  uncertainty theta = 0.003016, k = 0.196299
        31        32        33     1      120.533554      507.037615    ;  uncertainty theta = 0.001463, k = 0.022820
        31        32        62     1      120.048119      281.588129    ;  uncertainty theta = 0.001392, k = 0.051315
        32        31        61     1      120.325294      294.827651    ;  uncertainty theta = 0.003243, k = 0.059643
        32        33        34     1      117.975632      524.074761    ;  uncertainty theta = 0.002296, k = 0.016961
        32        33        63     1      120.654320      288.661429    ;  uncertainty theta = 0.001362, k = 0.021232
        33        32        62     1      120.599464      286.725397    ;  uncertainty theta = 0.001060, k = 0.019212
        33        34        35     1      120.533554      507.037615    ;  uncertainty theta = 0.001463, k = 0.022820
        33        34        64     1      120.599464      286.725397    ;  uncertainty theta = 0.001060, k = 0.019212
        34        33        63     1      120.654320      288.661429    ;  uncertainty theta = 0.001362, k = 0.021232
        34        35        65     1      120.325294      294.827651    ;  uncertainty theta = 0.003243, k = 0.059643
        35        34        64     1      120.048119      281.588129    ;  uncertainty theta = 0.001392, k = 0.051315
        36         1        37     1      108.800659      387.744935    ;  uncertainty theta = 0.005502, k = 0.062822
        36         1        66     1      108.800659      387.744935    ;  uncertainty theta = 0.005502, k = 0.062822
        37         1        66     1      108.800659      387.744935    ;  uncertainty theta = 0.005502, k = 0.062822
        38         2        39     1      108.826134      321.662461    ;  uncertainty theta = 0.005616, k = 0.061414
        40         3        41     1      106.582542      319.453469    ;  uncertainty theta = 0.002055, k = 0.059212
        42         5        43     1      106.153183      325.336453    ;  uncertainty theta = 0.001167, k = 0.063179
        45         7        46     1      105.198929      313.874281    ;  uncertainty theta = 0.000836, k = 0.027836
        47         8        48     1      104.585793      315.268958    ;  uncertainty theta = 0.002093, k = 0.030266

[ dihedrals ] ; propers for gromacs 4.5 or higher, use funct 9
;       ai        aj        ak        al funct           phase               k        pn
         1         2         3         4     9        0.000000        7.521423         1    ;  uncertainty k = 1.111155
         1         2         3         4     9      180.000000       -3.473878         2    ;  uncertainty k = 0.525614
         1         2         3         4     9        0.000000        1.519080         3    ;  uncertainty k = 0.582162
         1         2         3         4     9      180.000000       -0.329039         4    ;  uncertainty k = 0.274401
         1         2         3        40     9        0.000000       -1.175934         1    ;  uncertainty k = 1.081354
         1         2         3        40     9      180.000000       -1.778824         2    ;  uncertainty k = 0.940582
         1         2         3        40     9        0.000000        0.801498         3    ;  uncertainty k = 0.349504
         1         2         3        40     9      180.000000       -0.097048         4    ;  uncertainty k = 0.141632
         1         2         3        41     9        0.000000       -1.175934         1    ;  uncertainty k = 1.081354
         1         2         3        41     9      180.000000       -1.778824         2    ;  uncertainty k = 0.940582
         1         2         3        41     9        0.000000        0.801498         3    ;  uncertainty k = 0.349504
         1         2         3        41     9      180.000000       -0.097048         4    ;  uncertainty k = 0.141632
         2         3         4         5     9        0.000000       -0.851515         1    ;  uncertainty k = 0.669871
         2         3         4         5     9      180.000000       -3.732132         2    ;  uncertainty k = 0.949406
         2         3         4         5     9        0.000000        0.707549         3    ;  uncertainty k = 0.089827
         2         3         4         5     9      180.000000        0.008288         4    ;  uncertainty k = 0.168722
         2         3         4        30     9        0.000000        2.940337         1    ;  uncertainty k = 0.337496
         2         3         4        30     9      180.000000       -3.513712         2    ;  uncertainty k = 0.540925
         2         3         4        30     9        0.000000        0.535648         3    ;  uncertainty k = 0.386191
         2         3         4        30     9      180.000000        0.242421         4    ;  uncertainty k = 0.103112
         3         2         1        36     9        0.000000        1.270604         1    ;  uncertainty k = 1.510203
         3         2         1        36     9      180.000000       -0.938833         2    ;  uncertainty k = 0.661692
         3         2         1        36     9        0.000000        0.919869         3    ;  uncertainty k = 0.032097
         3         2         1        36     9      180.000000       -0.056837         4    ;  uncertainty k = 0.069873
         3         2         1        37     9        0.000000        1.270604         1    ;  uncertainty k = 1.510203
         3         2         1        37     9      180.000000       -0.938833         2    ;  uncertainty k = 0.661692
         3         2         1        37     9        0.000000        0.919869         3    ;  uncertainty k = 0.032097
         3         2         1        37     9      180.000000       -0.056837         4    ;  uncertainty k = 0.069873
         3         2         1        66     9        0.000000        1.270604         1    ;  uncertainty k = 1.510203
         3         2         1        66     9      180.000000       -0.938833         2    ;  uncertainty k = 0.661692
         3         2         1        66     9        0.000000        0.919869         3    ;  uncertainty k = 0.032097
         3         2         1        66     9      180.000000       -0.056837         4    ;  uncertainty k = 0.069873
         3         4         5         6     9        0.000000        0.770673         1    ;  uncertainty k = 1.444461
         3         4         5         6     9      180.000000       -2.720481         2    ;  uncertainty k = 0.495638
         3         4         5         6     9        0.000000        0.808356         3    ;  uncertainty k = 0.214665
         3         4         5         6     9      180.000000        0.076858         4    ;  uncertainty k = 0.163628
         3         4         5        42     9        0.000000       -1.105738         1    ;  uncertainty k = 0.497296
         3         4         5        42     9      180.000000       -0.988264         2    ;  uncertainty k = 0.780896
         3         4         5        42     9        0.000000        0.376870         3    ;  uncertainty k = 0.225100
         3         4         5        42     9      180.000000       -0.037800         4    ;  uncertainty k = 0.199616
         3         4         5        43     9        0.000000       -1.105738         1    ;  uncertainty k = 0.497296
         3         4         5        43     9      180.000000       -0.988264         2    ;  uncertainty k = 0.780896
         3         4         5        43     9        0.000000        0.376870         3    ;  uncertainty k = 0.225100
         3         4         5        43     9      180.000000       -0.037800         4    ;  uncertainty k = 0.199616
         3         4        30        31     9        0.000000        2.182433         1    ;  uncertainty k = 0.781420
         3         4        30        31     9      180.000000        4.783754         2    ;  uncertainty k = 0.432501
         3         4        30        31     9        0.000000        0.553315         3    ;  uncertainty k = 0.334713
         3         4        30        31     9      180.000000        0.031438         4    ;  uncertainty k = 0.169124
         3         4        30        35     9        0.000000        2.182433         1    ;  uncertainty k = 0.781420
         3         4        30        35     9      180.000000        4.783754         2    ;  uncertainty k = 0.432501
         3         4        30        35     9        0.000000        0.553315         3    ;  uncertainty k = 0.334713
         3         4        30        35     9      180.000000        0.031438         4    ;  uncertainty k = 0.169124
         4         3         2        38     9        0.000000        0.359879         1    ;  uncertainty k = 0.955420
         4         3         2        38     9      180.000000       -0.640279         2    ;  uncertainty k = 0.839325
         4         3         2        38     9        0.000000        1.154305         3    ;  uncertainty k = 0.266310
         4         3         2        38     9      180.000000       -0.005604         4    ;  uncertainty k = 0.160568
         4         3         2        39     9        0.000000        0.359879         1    ;  uncertainty k = 0.955420
         4         3         2        39     9      180.000000       -0.640279         2    ;  uncertainty k = 0.839325
         4         3         2        39     9        0.000000        1.154305         3    ;  uncertainty k = 0.266310
         4         3         2        39     9      180.000000       -0.005604         4    ;  uncertainty k = 0.160568
         4         5         6         7     9        0.000000        0.167160         1    ;  uncertainty k = 1.005852
         4         5         6         7     9      180.000000        0.656446         2    ;  uncertainty k = 0.358632
         4         5         6         7     9        0.000000        1.424542         3    ;  uncertainty k = 0.279673
         4         5         6         7     9      180.000000       -0.250121         4    ;  uncertainty k = 0.125175
         4         5         6        29     9        0.000000       -2.544629         1    ;  uncertainty k = 1.099649
         4         5         6        29     9      180.000000       -2.511364         2    ;  uncertainty k = 1.085390
         4         5         6        29     9        0.000000        1.987722         3    ;  uncertainty k = 0.388136
         4         5         6        29     9      180.000000       -0.003456         4    ;  uncertainty k = 0.061925
         4         5         6        44     9        0.000000        1.352300         1    ;  uncertainty k = 0.574629
         4         5         6        44     9      180.000000       -1.300915         2    ;  uncertainty k = 0.467600
         4         5         6        44     9        0.000000        0.650031         3    ;  uncertainty k = 0.176590
         4         5         6        44     9      180.000000        0.085255         4    ;  uncertainty k = 0.197904
         4        30        31        32     9        0.000000        0.117854         1    ;  uncertainty k = 0.300070
         4        30        31        32     9      180.000000       10.162831         2    ;  uncertainty k = 0.481704
         4        30        31        32     9        0.000000        1.055331         3    ;  uncertainty k = 0.369212
         4        30        31        32     9      180.000000        1.522749         4    ;  uncertainty k = 0.173861
         4        30        31        61     9        0.000000       -0.256524         1    ;  uncertainty k = 0.286845
         4        30        31        61     9      180.000000        8.351001         2    ;  uncertainty k = 0.455957
         4        30        31        61     9        0.000000        0.910954         3    ;  uncertainty k = 0.207633
         4        30        31        61     9      180.000000        1.204071         4    ;  uncertainty k = 0.084089
         4        30        35        34     9        0.000000        0.117854         1    ;  uncertainty k = 0.300070
         4        30        35        34     9      180.000000       10.162831         2    ;  uncertainty k = 0.481704
         4        30        35        34     9        0.000000        1.055331         3    ;  uncertainty k = 0.369212
         4        30        35        34     9      180.000000        1.522749         4    ;  uncertainty k = 0.173861
         4        30        35        65     9        0.000000       -0.256524         1    ;  uncertainty k = 0.286845
         4        30        35        65     9      180.000000        8.351001         2    ;  uncertainty k = 0.455957
         4        30        35        65     9        0.000000        0.910954         3    ;  uncertainty k = 0.207633
         4        30        35        65     9      180.000000        1.204071         4    ;  uncertainty k = 0.084089
         5         4         3        40     9        0.000000       -1.151259         1    ;  uncertainty k = 0.693422
         5         4         3        40     9      180.000000       -0.908479         2    ;  uncertainty k = 0.686388
         5         4         3        40     9        0.000000        0.676101         3    ;  uncertainty k = 0.131460
         5         4         3        40     9      180.000000        0.084544         4    ;  uncertainty k = 0.157746
         5         4         3        41     9        0.000000       -1.151259         1    ;  uncertainty k = 0.693422
         5         4         3        41     9      180.000000       -0.908479         2    ;  uncertainty k = 0.686388
         5         4         3        41     9        0.000000        0.676101         3    ;  uncertainty k = 0.131460
         5         4         3        41     9      180.000000        0.084544         4    ;  uncertainty k = 0.157746
         5         4        30        31     9        0.000000        2.578057         1    ;  uncertainty k = 1.122461
         5         4        30        31     9      180.000000        5.830125         2    ;  uncertainty k = 0.190645
         5         4        30        31     9        0.000000        0.621561         3    ;  uncertainty k = 0.315195
         5         4        30        31     9      180.000000        0.014328         4    ;  uncertainty k = 0.088133
         5         4        30        35     9        0.000000        2.578057         1    ;  uncertainty k = 1.122461
         5         4        30        35     9      180.000000        5.830125         2    ;  uncertainty k = 0.190645
         5         4        30        35     9        0.000000        0.621561         3    ;  uncertainty k = 0.315195
         5         4        30        35     9      180.000000        0.014328         4    ;  uncertainty k = 0.088133
         5         6         7         8     9        0.000000       -2.838321         1    ;  uncertainty k = 0.328720
         5         6         7         8     9      180.000000        0.156869         2    ;  uncertainty k = 0.376900
         5         6         7         8     9        0.000000        0.419434         3    ;  uncertainty k = 0.143020
         5         6         7         8     9      180.000000       -0.345061         4    ;  uncertainty k = 0.158582
         5         6         7        45     9        0.000000       -0.451903         1    ;  uncertainty k = 0.337561
         5         6         7        45     9      180.000000       -0.417297         2    ;  uncertainty k = 0.310232
         5         6         7        45     9        0.000000        0.207308         3    ;  uncertainty k = 0.060607
         5         6         7        45     9      180.000000       -0.238765         4    ;  uncertainty k = 0.112697
         5         6         7        46     9        0.000000       -0.451903         1    ;  uncertainty k = 0.337561
         5         6         7        46     9      180.000000       -0.417297         2    ;  uncertainty k = 0.310232
         5         6         7        46     9        0.000000        0.207308         3    ;  uncertainty k = 0.060607
         5         6         7        46     9      180.000000       -0.238765         4    ;  uncertainty k = 0.112697
         5         6        29        28     9        0.000000       -4.596992         1    ;  uncertainty k = 1.006551
         5         6        29        28     9      180.000000       -0.465499         2    ;  uncertainty k = 0.379383
         5         6        29        28     9        0.000000        0.605063         3    ;  uncertainty k = 0.417158
         5         6        29        28     9      180.000000       -0.126296         4    ;  uncertainty k = 0.111583
         6         5         4        30     9        0.000000        1.883041         1    ;  uncertainty k = 0.695429
         6         5         4        30     9      180.000000       -2.440880         2    ;  uncertainty k = 0.725055
         6         5         4        30     9        0.000000        0.283863         3    ;  uncertainty k = 0.249630
         6         5         4        30     9      180.000000        0.231987         4    ;  uncertainty k = 0.072169
         6         7         8         9     9        0.000000       -4.867879         1    ;  uncertainty k = 1.179512
         6         7         8         9     9      180.000000       -0.590900         2    ;  uncertainty k = 0.613719
         6         7         8         9     9        0.000000        1.224600         3    ;  uncertainty k = 0.219309
         6         7         8         9     9      180.000000       -0.970637         4    ;  uncertainty k = 0.186287
         6         7         8        47     9        0.000000       -1.007835         1    ;  uncertainty k = 0.598304
         6         7         8        47     9      180.000000       -0.580808         2    ;  uncertainty k = 0.204163
         6         7         8        47     9        0.000000        0.416987         3    ;  uncertainty k = 0.145032
         6         7         8        47     9      180.000000        0.047725         4    ;  uncertainty k = 0.026424
         6         7         8        48     9        0.000000       -1.007835         1    ;  uncertainty k = 0.598304
         6         7         8        48     9      180.000000       -0.580808         2    ;  uncertainty k = 0.204163
         6         7         8        48     9        0.000000        0.416987         3    ;  uncertainty k = 0.145032
         6         7         8        48     9      180.000000        0.047725         4    ;  uncertainty k = 0.026424
         6        29        28         9     9        0.000000        4.188026         1    ;  uncertainty k = 1.508455
         6        29        28         9     9      180.000000       -1.860172         2    ;  uncertainty k = 1.110942
         6        29        28         9     9        0.000000        0.066933         3    ;  uncertainty k = 0.335157
         6        29        28         9     9      180.000000        0.060731         4    ;  uncertainty k = 0.214414
         6        29        28        27     9        0.000000       -3.196240         1    ;  uncertainty k = 1.562999
         6        29        28        27     9      180.000000       -1.020259         2    ;  uncertainty k = 0.847262
         6        29        28        27     9        0.000000        0.914728         3    ;  uncertainty k = 0.559095
         6        29        28        27     9      180.000000       -0.101801         4    ;  uncertainty k = 0.168879
         6        29        28        60     9        0.000000       -1.646342         1    ;  uncertainty k = 0.632503
         6        29        28        60     9      180.000000       -0.507279         2    ;  uncertainty k = 0.342840
         6        29        28        60     9        0.000000        0.428167         3    ;  uncertainty k = 0.085972
         6        29        28        60     9      180.000000       -0.101991         4    ;  uncertainty k = 0.213371
         7         6         5        42     9        0.000000       -1.231895         1    ;  uncertainty k = 0.605347
         7         6         5        42     9      180.000000        0.089677         2    ;  uncertainty k = 0.410621
         7         6         5        42     9        0.000000        0.344252         3    ;  uncertainty k = 0.118799
         7         6         5        42     9      180.000000       -0.208388         4    ;  uncertainty k = 0.084711
         7         6         5        43     9        0.000000       -1.231895         1    ;  uncertainty k = 0.605347
         7         6         5        43     9      180.000000        0.089677         2    ;  uncertainty k = 0.410621
         7         6         5        43     9        0.000000        0.344252         3    ;  uncertainty k = 0.118799
         7         6         5        43     9      180.000000       -0.208388         4    ;  uncertainty k = 0.084711
         7         6        29        28     9        0.000000        2.385027         1    ;  uncertainty k = 2.882476
         7         6        29        28     9      180.000000       -1.229019         2    ;  uncertainty k = 0.481117
         7         6        29        28     9        0.000000       -0.051616         3    ;  uncertainty k = 0.608318
         7         6        29        28     9      180.000000        0.026919         4    ;  uncertainty k = 0.171798
         7         8         9        10     9        0.000000       -3.442237         1    ;  uncertainty k = 0.604204
         7         8         9        10     9      180.000000        0.070276         2    ;  uncertainty k = 0.163651
         7         8         9        10     9        0.000000        1.150966         3    ;  uncertainty k = 0.147306
         7         8         9        10     9      180.000000       -0.543802         4    ;  uncertainty k = 0.160471
         7         8         9        28     9        0.000000       -3.563915         1    ;  uncertainty k = 0.308938
         7         8         9        28     9      180.000000        0.175820         2    ;  uncertainty k = 0.387431
         7         8         9        28     9        0.000000        1.024872         3    ;  uncertainty k = 0.170852
         7         8         9        28     9      180.000000       -0.790244         4    ;  uncertainty k = 0.071125
         7         8         9        49     9        0.000000       -2.385333         1    ;  uncertainty k = 0.521013
         7         8         9        49     9      180.000000        0.117806         2    ;  uncertainty k = 0.252917
         7         8         9        49     9        0.000000        0.024526         3    ;  uncertainty k = 0.081124
         7         8         9        49     9      180.000000       -0.102512         4    ;  uncertainty k = 0.081987
         8         7         6        29     9        0.000000       -2.348977         1    ;  uncertainty k = 0.898376
         8         7         6        29     9      180.000000       -0.997660         2    ;  uncertainty k = 0.507102
         8         7         6        29     9        0.000000        1.407269         3    ;  uncertainty k = 0.424973
         8         7         6        29     9      180.000000       -0.504409         4    ;  uncertainty k = 0.314567
         8         7         6        44     9        0.000000        0.627462         1    ;  uncertainty k = 0.752527
         8         7         6        44     9      180.000000       -1.893105         2    ;  uncertainty k = 0.734339
         8         7         6        44     9        0.000000       -0.284723         3    ;  uncertainty k = 0.145943
         8         7         6        44     9      180.000000        0.151634         4    ;  uncertainty k = 0.067876
         8         9        10        11     9        0.000000       -0.461049         1    ;  uncertainty k = 0.381282
         8         9        10        11     9      180.000000        0.080824         2    ;  uncertainty k = 0.232856
         8         9        10        11     9        0.000000        1.015758         3    ;  uncertainty k = 0.130571
         8         9        10        11     9      180.000000       -0.026766         4    ;  uncertainty k = 0.089496
         8         9        10        17     9        0.000000       -2.649434         1    ;  uncertainty k = 0.376989
         8         9        10        17     9      180.000000        0.575633         2    ;  uncertainty k = 0.355540
         8         9        10        17     9        0.000000        1.148062         3    ;  uncertainty k = 0.198879
         8         9        10        17     9      180.000000       -0.322936         4    ;  uncertainty k = 0.282819
         8         9        10        50     9        0.000000       -0.245811         1    ;  uncertainty k = 0.386688
         8         9        10        50     9      180.000000       -0.315546         2    ;  uncertainty k = 0.172061
         8         9        10        50     9        0.000000        0.086688         3    ;  uncertainty k = 0.150677
         8         9        10        50     9      180.000000       -0.119145         4    ;  uncertainty k = 0.084487
         8         9        28        27     9        0.000000       -1.766780         1    ;  uncertainty k = 0.973514
         8         9        28        27     9      180.000000       -0.718703         2    ;  uncertainty k = 0.145826
         8         9        28        27     9        0.000000        0.620918         3    ;  uncertainty k = 0.188101
         8         9        28        27     9      180.000000       -0.232127         4    ;  uncertainty k = 0.132638
         8         9        28        29     9        0.000000       -1.618619         1    ;  uncertainty k = 0.873157
         8         9        28        29     9      180.000000       -1.463082         2    ;  uncertainty k = 0.973770
         8         9        28        29     9        0.000000        0.890009         3    ;  uncertainty k = 0.274279
         8         9        28        29     9      180.000000       -0.030212         4    ;  uncertainty k = 0.250247
         8         9        28        60     9        0.000000        0.363062         1    ;  uncertainty k = 0.565972
         8         9        28        60     9      180.000000       -0.520923         2    ;  uncertainty k = 0.414610
         8         9        28        60     9        0.000000       -0.168774         3    ;  uncertainty k = 0.117464
         8         9        28        60     9      180.000000       -0.047661         4    ;  uncertainty k = 0.135136
         9         8         7        45     9        0.000000       -0.785177         1    ;  uncertainty k = 0.228426
         9         8         7        45     9      180.000000       -0.686057         2    ;  uncertainty k = 0.216405
         9         8         7        45     9        0.000000        0.407886         3    ;  uncertainty k = 0.128883
         9         8         7        45     9      180.000000       -0.049114         4    ;  uncertainty k = 0.116669
         9         8         7        46     9        0.000000       -0.785177         1    ;  uncertainty k = 0.228426
         9         8         7        46     9      180.000000       -0.686057         2    ;  uncertainty k = 0.216405
         9         8         7        46     9        0.000000        0.407886         3    ;  uncertainty k = 0.128883
         9         8         7        46     9      180.000000       -0.049114         4    ;  uncertainty k = 0.116669
         9        10        11        12     9        0.000000       -0.128230         1    ;  uncertainty k = 0.712209
         9        10        11        12     9      180.000000        1.832448         2    ;  uncertainty k = 0.216281
         9        10        11        12     9        0.000000        0.279323         3    ;  uncertainty k = 0.140015
         9        10        11        12     9      180.000000        0.244071         4    ;  uncertainty k = 0.076874
         9        10        11        16     9        0.000000       -0.128230         1    ;  uncertainty k = 0.712209
         9        10        11        16     9      180.000000        1.832448         2    ;  uncertainty k = 0.216281
         9        10        11        16     9        0.000000        0.279323         3    ;  uncertainty k = 0.140015
         9        10        11        16     9      180.000000        0.244071         4    ;  uncertainty k = 0.076874
         9        10        17        18     9        0.000000        0.719691         1    ;  uncertainty k = 1.244019
         9        10        17        18     9      180.000000        0.209000         2    ;  uncertainty k = 0.601735
         9        10        17        18     9        0.000000        0.378516         3    ;  uncertainty k = 0.264051
         9        10        17        18     9      180.000000        0.142878         4    ;  uncertainty k = 0.153976
         9        10        17        56     9        0.000000        3.620497         1    ;  uncertainty k = 0.960162
         9        10        17        56     9      180.000000       -1.866274         2    ;  uncertainty k = 1.297278
         9        10        17        56     9        0.000000        0.466328         3    ;  uncertainty k = 0.292683
         9        10        17        56     9      180.000000       -0.015212         4    ;  uncertainty k = 0.082183
         9        28        27        18     9        0.000000        0.242411         1    ;  uncertainty k = 2.397408
         9        28        27        18     9      180.000000       -0.318794         2    ;  uncertainty k = 1.365944
         9        28        27        18     9        0.000000        0.084198         3    ;  uncertainty k = 0.707003
         9        28        27        18     9      180.000000        0.713415         4    ;  uncertainty k = 0.239937
         9        28        27        26     9        0.000000       -1.545739         1    ;  uncertainty k = 0.808283
         9        28        27        26     9      180.000000       -0.098598         2    ;  uncertainty k = 0.594677
         9        28        27        26     9        0.000000       -0.228474         3    ;  uncertainty k = 0.118070
         9        28        27        26     9      180.000000        0.425604         4    ;  uncertainty k = 0.113282
        10         9         8        47     9        0.000000        0.094101         1    ;  uncertainty k = 0.301635
        10         9         8        47     9      180.000000       -0.638646         2    ;  uncertainty k = 0.223261
        10         9         8        47     9        0.000000        0.477645         3    ;  uncertainty k = 0.098813
        10         9         8        47     9      180.000000       -0.051282         4    ;  uncertainty k = 0.102093
        10         9         8        48     9        0.000000        0.094101         1    ;  uncertainty k = 0.301635
        10         9         8        48     9      180.000000       -0.638646         2    ;  uncertainty k = 0.223261
        10         9         8        48     9        0.000000        0.477645         3    ;  uncertainty k = 0.098813
        10         9         8        48     9      180.000000       -0.051282         4    ;  uncertainty k = 0.102093
        10         9        28        27     9        0.000000        1.020906         1    ;  uncertainty k = 1.287078
        10         9        28        27     9      180.000000       -2.127650         2    ;  uncertainty k = 0.312599
        10         9        28        27     9        0.000000        0.266223         3    ;  uncertainty k = 0.283237
        10         9        28        27     9      180.000000       -0.130172         4    ;  uncertainty k = 0.142538
        10         9        28        29     9        0.000000       -1.086045         1    ;  uncertainty k = 1.586318
        10         9        28        29     9      180.000000       -3.327445         2    ;  uncertainty k = 1.574692
        10         9        28        29     9        0.000000        0.626887         3    ;  uncertainty k = 0.268505
        10         9        28        29     9      180.000000        0.115564         4    ;  uncertainty k = 0.328321
        10         9        28        60     9        0.000000        0.827756         1    ;  uncertainty k = 0.782493
        10         9        28        60     9      180.000000       -1.073944         2    ;  uncertainty k = 0.477123
        10         9        28        60     9        0.000000       -0.239465         3    ;  uncertainty k = 0.093000
        10         9        28        60     9      180.000000        0.001971         4    ;  uncertainty k = 0.193082
        10        11        12        13     9        0.000000        0.312413         1    ;  uncertainty k = 0.242921
        10        11        12        13     9      180.000000        8.638336         2    ;  uncertainty k = 0.468597
        10        11        12        13     9        0.000000        1.448800         3    ;  uncertainty k = 0.340804
        10        11        12        13     9      180.000000        1.905016         4    ;  uncertainty k = 0.200485
        10        11        12        51     9        0.000000        0.035754         1    ;  uncertainty k = 0.305799
        10        11        12        51     9      180.000000        7.827037         2    ;  uncertainty k = 0.268348
        10        11        12        51     9        0.000000        0.557555         3    ;  uncertainty k = 0.370059
        10        11        12        51     9      180.000000        0.865304         4    ;  uncertainty k = 0.172707
        10        11        16        15     9        0.000000        0.312413         1    ;  uncertainty k = 0.242921
        10        11        16        15     9      180.000000        8.638336         2    ;  uncertainty k = 0.468597
        10        11        16        15     9        0.000000        1.448800         3    ;  uncertainty k = 0.340804
        10        11        16        15     9      180.000000        1.905016         4    ;  uncertainty k = 0.200485
        10        11        16        55     9        0.000000        0.035754         1    ;  uncertainty k = 0.305799
        10        11        16        55     9      180.000000        7.827037         2    ;  uncertainty k = 0.268348
        10        11        16        55     9        0.000000        0.557555         3    ;  uncertainty k = 0.370059
        10        11        16        55     9      180.000000        0.865304         4    ;  uncertainty k = 0.172707
        10        17        18        19     9        0.000000        0.472911         1    ;  uncertainty k = 0.815219
        10        17        18        19     9      180.000000        4.888524         2    ;  uncertainty k = 0.752070
        10        17        18        19     9        0.000000        0.397595         3    ;  uncertainty k = 0.545066
        10        17        18        19     9      180.000000        0.383807         4    ;  uncertainty k = 0.280593
        10        17        18        27     9        0.000000        4.144111         1    ;  uncertainty k = 2.103608
        10        17        18        27     9      180.000000        2.453509         2    ;  uncertainty k = 0.610742
        10        17        18        27     9        0.000000        0.023719         3    ;  uncertainty k = 0.473401
        10        17        18        27     9      180.000000        0.682039         4    ;  uncertainty k = 0.226903
        11        10         9        28     9        0.000000       -0.717354         1    ;  uncertainty k = 0.748357
        11        10         9        28     9      180.000000       -0.367660         2    ;  uncertainty k = 0.370216
        11        10         9        28     9        0.000000        0.397290         3    ;  uncertainty k = 0.216596
        11        10         9        28     9      180.000000       -0.018207         4    ;  uncertainty k = 0.136272
        11        10         9        49     9        0.000000        0.530296         1    ;  uncertainty k = 0.246709
        11        10         9        49     9      180.000000        0.121251         2    ;  uncertainty k = 0.617133
        11        10         9        49     9        0.000000        0.451811         3    ;  uncertainty k = 0.081496
        11        10         9        49     9      180.000000       -0.031873         4    ;  uncertainty k = 0.108858
        11        10        17        18     9        0.000000       -1.240811         1    ;  uncertainty k = 0.913861
        11        10        17        18     9      180.000000        0.100980         2    ;  uncertainty k = 0.285956
        11        10        17        18     9        0.000000        1.048824         3    ;  uncertainty k = 0.262246
        11        10        17        18     9      180.000000        0.199554         4    ;  uncertainty k = 0.098576
        11        10        17        56     9        0.000000        4.878357         1    ;  uncertainty k = 0.569248
        11        10        17        56     9      180.000000       -1.058871         2    ;  uncertainty k = 0.283860
        11        10        17        56     9        0.000000        0.413857         3    ;  uncertainty k = 0.297007
        11        10        17        56     9      180.000000       -0.032689         4    ;  uncertainty k = 0.182555
        11        12        13        14     9        0.000000       -0.073185         1    ;  uncertainty k = 0.135861
        11        12        13        14     9      180.000000       13.840581         2    ;  uncertainty k = 0.218469
        11        12        13        14     9        0.000000       -0.942123         3    ;  uncertainty k = 0.500158
        11        12        13        14     9      180.000000        0.720226         4    ;  uncertainty k = 0.249573
        11        12        13        52     9        0.000000        0.078938         1    ;  uncertainty k = 0.238409
        11        12        13        52     9      180.000000        7.523903         2    ;  uncertainty k = 0.411010
        11        12        13        52     9        0.000000        1.486223         3    ;  uncertainty k = 0.266909
        11        12        13        52     9      180.000000        1.791253         4    ;  uncertainty k = 0.130361
        11        16        15        14     9        0.000000       -0.073185         1    ;  uncertainty k = 0.135861
        11        16        15        14     9      180.000000       13.840581         2    ;  uncertainty k = 0.218469
        11        16        15        14     9        0.000000       -0.942123         3    ;  uncertainty k = 0.500158
        11        16        15        14     9      180.000000        0.720226         4    ;  uncertainty k = 0.249573
        11        16        15        54     9        0.000000        0.078938         1    ;  uncertainty k = 0.238409
        11        16        15        54     9      180.000000        7.523903         2    ;  uncertainty k = 0.411010
        11        16        15        54     9        0.000000        1.486223         3    ;  uncertainty k = 0.266909
        11        16        15        54     9      180.000000        1.791253         4    ;  uncertainty k = 0.130361
        12        11        10        17     9        0.000000       -0.590756         1    ;  uncertainty k = 0.525590
        12        11        10        17     9      180.000000        2.732820         2    ;  uncertainty k = 0.257489
        12        11        10        17     9        0.000000        0.629229         3    ;  uncertainty k = 0.228491
        12        11        10        17     9      180.000000        0.435377         4    ;  uncertainty k = 0.023802
        12        11        10        50     9        0.000000       -0.618195         1    ;  uncertainty k = 0.243533
        12        11        10        50     9      180.000000        2.285546         2    ;  uncertainty k = 0.337301
        12        11        10        50     9        0.000000        0.482603         3    ;  uncertainty k = 0.112818
        12        11        10        50     9      180.000000        0.236140         4    ;  uncertainty k = 0.049741
        12        11        16        15     9        0.000000       -0.244750         1    ;  uncertainty k = 0.085029
        12        11        16        15     9      180.000000       11.550237         2    ;  uncertainty k = 0.281781
        12        11        16        15     9        0.000000       -0.471965         3    ;  uncertainty k = 0.307308
        12        11        16        15     9      180.000000        0.819629         4    ;  uncertainty k = 0.339588
        12        11        16        55     9        0.000000        0.103785         1    ;  uncertainty k = 0.115164
        12        11        16        55     9      180.000000        7.232563         2    ;  uncertainty k = 0.479326
        12        11        16        55     9        0.000000        1.441610         3    ;  uncertainty k = 0.358040
        12        11        16        55     9      180.000000        1.626932         4    ;  uncertainty k = 0.180626
        12        13        14        15     9        0.000000        0.003336         1    ;  uncertainty k = 0.036527
        12        13        14        15     9      180.000000       15.061872         2    ;  uncertainty k = 0.266782
        12        13        14        15     9        0.000000       -1.241530         3    ;  uncertainty k = 0.510934
        12        13        14        15     9      180.000000        0.486540         4    ;  uncertainty k = 0.300058
        12        13        14        53     9        0.000000        0.055741         1    ;  uncertainty k = 0.094832
        12        13        14        53     9      180.000000        7.490470         2    ;  uncertainty k = 0.333391
        12        13        14        53     9        0.000000        1.467122         3    ;  uncertainty k = 0.292764
        12        13        14        53     9      180.000000        1.797081         4    ;  uncertainty k = 0.179699
        13        12        11        16     9        0.000000       -0.244750         1    ;  uncertainty k = 0.085029
        13        12        11        16     9      180.000000       11.550237         2    ;  uncertainty k = 0.281781
        13        12        11        16     9        0.000000       -0.471965         3    ;  uncertainty k = 0.307308
        13        12        11        16     9      180.000000        0.819629         4    ;  uncertainty k = 0.339588
        13        14        15        16     9        0.000000        0.003336         1    ;  uncertainty k = 0.036527
        13        14        15        16     9      180.000000       15.061872         2    ;  uncertainty k = 0.266782
        13        14        15        16     9        0.000000       -1.241530         3    ;  uncertainty k = 0.510934
        13        14        15        16     9      180.000000        0.486540         4    ;  uncertainty k = 0.300058
        13        14        15        54     9        0.000000        0.045944         1    ;  uncertainty k = 0.040455
        13        14        15        54     9      180.000000        7.527538         2    ;  uncertainty k = 0.325492
        13        14        15        54     9        0.000000        1.433628         3    ;  uncertainty k = 0.327115
        13        14        15        54     9      180.000000        1.790207         4    ;  uncertainty k = 0.158460
        14        13        12        51     9        0.000000        0.053110         1    ;  uncertainty k = 0.076538
        14        13        12        51     9      180.000000        7.946076         2    ;  uncertainty k = 0.338882
        14        13        12        51     9        0.000000        1.427769         3    ;  uncertainty k = 0.326160
        14        13        12        51     9      180.000000        1.836126         4    ;  uncertainty k = 0.159402
        14        15        16        55     9        0.000000        0.053110         1    ;  uncertainty k = 0.076538
        14        15        16        55     9      180.000000        7.946076         2    ;  uncertainty k = 0.338882
        14        15        16        55     9        0.000000        1.427769         3    ;  uncertainty k = 0.326160
        14        15        16        55     9      180.000000        1.836126         4    ;  uncertainty k = 0.159402
        15        14        13        52     9        0.000000        0.045944         1    ;  uncertainty k = 0.040455
        15        14        13        52     9      180.000000        7.527538         2    ;  uncertainty k = 0.325492
        15        14        13        52     9        0.000000        1.433628         3    ;  uncertainty k = 0.327115
        15        14        13        52     9      180.000000        1.790207         4    ;  uncertainty k = 0.158460
        16        11        10        17     9        0.000000       -0.590756         1    ;  uncertainty k = 0.525590
        16        11        10        17     9      180.000000        2.732820         2    ;  uncertainty k = 0.257489
        16        11        10        17     9        0.000000        0.629229         3    ;  uncertainty k = 0.228491
        16        11        10        17     9      180.000000        0.435377         4    ;  uncertainty k = 0.023802
        16        11        10        50     9        0.000000       -0.618195         1    ;  uncertainty k = 0.243533
        16        11        10        50     9      180.000000        2.285546         2    ;  uncertainty k = 0.337301
        16        11        10        50     9        0.000000        0.482603         3    ;  uncertainty k = 0.112818
        16        11        10        50     9      180.000000        0.236140         4    ;  uncertainty k = 0.049741
        16        11        12        51     9        0.000000        0.103785         1    ;  uncertainty k = 0.115164
        16        11        12        51     9      180.000000        7.232563         2    ;  uncertainty k = 0.479326
        16        11        12        51     9        0.000000        1.441610         3    ;  uncertainty k = 0.358040
        16        11        12        51     9      180.000000        1.626932         4    ;  uncertainty k = 0.180626
        16        15        14        53     9        0.000000        0.055741         1    ;  uncertainty k = 0.094832
        16        15        14        53     9      180.000000        7.490470         2    ;  uncertainty k = 0.333391
        16        15        14        53     9        0.000000        1.467122         3    ;  uncertainty k = 0.292764
        16        15        14        53     9      180.000000        1.797081         4    ;  uncertainty k = 0.179699
        17        10         9        28     9        0.000000       -0.007594         1    ;  uncertainty k = 2.197311
        17        10         9        28     9      180.000000       -1.143082         2    ;  uncertainty k = 0.276445
        17        10         9        28     9        0.000000        0.537168         3    ;  uncertainty k = 0.459074
        17        10         9        28     9      180.000000       -0.178266         4    ;  uncertainty k = 0.357380
        17        10         9        49     9        0.000000       -0.947833         1    ;  uncertainty k = 0.627969
        17        10         9        49     9      180.000000        0.170574         2    ;  uncertainty k = 0.410475
        17        10         9        49     9        0.000000        0.627907         3    ;  uncertainty k = 0.278857
        17        10         9        49     9      180.000000        0.059564         4    ;  uncertainty k = 0.093137
        17        18        19        20     9        0.000000        0.231429         1    ;  uncertainty k = 0.389795
        17        18        19        20     9      180.000000       10.238476         2    ;  uncertainty k = 0.466629
        17        18        19        20     9        0.000000        1.246350         3    ;  uncertainty k = 0.222856
        17        18        19        20     9      180.000000        1.655065         4    ;  uncertainty k = 0.267772
        17        18        19        57     9        0.000000       -0.252322         1    ;  uncertainty k = 0.534722
        17        18        19        57     9      180.000000        8.173632         2    ;  uncertainty k = 0.357488
        17        18        19        57     9        0.000000        1.005199         3    ;  uncertainty k = 0.139230
        17        18        19        57     9      180.000000        1.186392         4    ;  uncertainty k = 0.335076
        17        18        27        26     9        0.000000        0.514706         1    ;  uncertainty k = 0.664255
        17        18        27        26     9      180.000000        7.605363         2    ;  uncertainty k = 0.362138
        17        18        27        26     9        0.000000        0.991340         3    ;  uncertainty k = 0.193914
        17        18        27        26     9      180.000000        1.359285         4    ;  uncertainty k = 0.393670
        17        18        27        28     9        0.000000        0.052004         1    ;  uncertainty k = 0.599855
        17        18        27        28     9      180.000000        7.581846         2    ;  uncertainty k = 1.015596
        17        18        27        28     9        0.000000        0.683693         3    ;  uncertainty k = 0.579944
        17        18        27        28     9      180.000000        1.194810         4    ;  uncertainty k = 0.485141
        18        17        10        50     9        0.000000       -0.859913         1    ;  uncertainty k = 0.376971
        18        17        10        50     9      180.000000       -0.534873         2    ;  uncertainty k = 0.442169
        18        17        10        50     9        0.000000        0.715681         3    ;  uncertainty k = 0.162008
        18        17        10        50     9      180.000000        0.204030         4    ;  uncertainty k = 0.096027
        18        19        20        21     9        0.000000       -0.182689         1    ;  uncertainty k = 0.192397
        18        19        20        21     9      180.000000       13.581553         2    ;  uncertainty k = 0.317227
        18        19        20        21     9        0.000000       -0.529046         3    ;  uncertainty k = 0.592314
        18        19        20        21     9      180.000000        0.815071         4    ;  uncertainty k = 0.353192
        18        19        20        58     9        0.000000        0.317053         1    ;  uncertainty k = 0.513036
        18        19        20        58     9      180.000000        9.069730         2    ;  uncertainty k = 0.572383
        18        19        20        58     9        0.000000        1.256166         3    ;  uncertainty k = 0.254022
        18        19        20        58     9      180.000000        1.555766         4    ;  uncertainty k = 0.257996
        18        27        26        21     9        0.000000       -0.267304         1    ;  uncertainty k = 0.412366
        18        27        26        21     9      180.000000       11.752076         2    ;  uncertainty k = 0.425099
        18        27        26        21     9        0.000000       -0.315775         3    ;  uncertainty k = 0.520190
        18        27        26        21     9      180.000000        0.915764         4    ;  uncertainty k = 0.515936
        18        27        26        59     9        0.000000        0.324811         1    ;  uncertainty k = 0.368050
        18        27        26        59     9      180.000000        8.288329         2    ;  uncertainty k = 0.526603
        18        27        26        59     9        0.000000        1.376752         3    ;  uncertainty k = 0.326266
        18        27        26        59     9      180.000000        1.578090         4    ;  uncertainty k = 0.187003
        18        27        28        29     9        0.000000       -2.576900         1    ;  uncertainty k = 2.682801
        18        27        28        29     9      180.000000        0.499817         2    ;  uncertainty k = 1.161554
        18        27        28        29     9        0.000000        1.513933         3    ;  uncertainty k = 0.334680
        18        27        28        29     9      180.000000       -0.019417         4    ;  uncertainty k = 0.175050
        18        27        28        60     9        0.000000       -0.390474         1    ;  uncertainty k = 0.832622
        18        27        28        60     9      180.000000        2.111781         2    ;  uncertainty k = 0.240300
        18        27        28        60     9        0.000000        0.472394         3    ;  uncertainty k = 0.238680
        18        27        28        60     9      180.000000       -0.194062         4    ;  uncertainty k = 0.147186
        19        18        17        56     9        0.000000        1.644529         1    ;  uncertainty k = 0.671485
        19        18        17        56     9      180.000000        5.648101         2    ;  uncertainty k = 0.263410
        19        18        17        56     9        0.000000        0.887669         3    ;  uncertainty k = 0.335481
        19        18        17        56     9      180.000000       -0.022901         4    ;  uncertainty k = 0.180172
        19        18        27        26     9        0.000000        0.317715         1    ;  uncertainty k = 0.350190
        19        18        27        26     9      180.000000        5.948735         2    ;  uncertainty k = 0.533572
        19        18        27        26     9        0.000000        0.392054         3    ;  uncertainty k = 0.350698
        19        18        27        26     9      180.000000        1.333497         4    ;  uncertainty k = 0.239548
        19        18        27        28     9        0.000000        0.610301         1    ;  uncertainty k = 0.604383
        19        18        27        28     9      180.000000        5.675482         2    ;  uncertainty k = 0.460551
        19        18        27        28     9        0.000000        1.309673         3    ;  uncertainty k = 0.239002
        19        18        27        28     9      180.000000        1.601892         4    ;  uncertainty k = 0.271408
        19        20        21        22     9        0.000000        0.110284         1    ;  uncertainty k = 0.167157
        19        20        21        22     9      180.000000        9.822616         2    ;  uncertainty k = 0.704573
        19        20        21        22     9        0.000000        1.387104         3    ;  uncertainty k = 0.349698
        19        20        21        22     9      180.000000        1.947235         4    ;  uncertainty k = 0.332595
        19        20        21        26     9        0.000000       -0.034672         1    ;  uncertainty k = 0.203903
        19        20        21        26     9      180.000000       12.012213         2    ;  uncertainty k = 0.382685
        19        20        21        26     9        0.000000       -0.709598         3    ;  uncertainty k = 0.306768
        19        20        21        26     9      180.000000        0.893584         4    ;  uncertainty k = 0.295329
        20        19        18        27     9        0.000000        0.306570         1    ;  uncertainty k = 0.425942
        20        19        18        27     9      180.000000        7.300329         2    ;  uncertainty k = 0.363062
        20        19        18        27     9        0.000000        0.474891         3    ;  uncertainty k = 0.421537
        20        19        18        27     9      180.000000        1.413924         4    ;  uncertainty k = 0.213424
        20        21        22        23     9        0.000000       -0.682420         1    ;  uncertainty k = 0.249405
        20        21        22        23     9      180.000000        2.604905         2    ;  uncertainty k = 0.094363
        20        21        22        23     9        0.000000        0.754799         3    ;  uncertainty k = 0.077531
        20        21        22        23     9      180.000000        0.158520         4    ;  uncertainty k = 0.059056
        20        21        22        24     9        0.000000       -0.682420         1    ;  uncertainty k = 0.249405
        20        21        22        24     9      180.000000        2.604905         2    ;  uncertainty k = 0.094363
        20        21        22        24     9        0.000000        0.754799         3    ;  uncertainty k = 0.077531
        20        21        22        24     9      180.000000        0.158520         4    ;  uncertainty k = 0.059056
        20        21        22        25     9        0.000000       -0.682420         1    ;  uncertainty k = 0.249405
        20        21        22        25     9      180.000000        2.604905         2    ;  uncertainty k = 0.094363
        20        21        22        25     9        0.000000        0.754799         3    ;  uncertainty k = 0.077531
        20        21        22        25     9      180.000000        0.158520         4    ;  uncertainty k = 0.059056
        20        21        26        27     9        0.000000        0.036149         1    ;  uncertainty k = 0.285337
        20        21        26        27     9      180.000000       11.001544         2    ;  uncertainty k = 0.517109
        20        21        26        27     9        0.000000       -0.397288         3    ;  uncertainty k = 0.757389
        20        21        26        27     9      180.000000        1.041673         4    ;  uncertainty k = 0.528914
        20        21        26        59     9        0.000000        0.167489         1    ;  uncertainty k = 0.232761
        20        21        26        59     9      180.000000        7.759392         2    ;  uncertainty k = 0.302342
        20        21        26        59     9        0.000000        1.300806         3    ;  uncertainty k = 0.409955
        20        21        26        59     9      180.000000        1.640924         4    ;  uncertainty k = 0.190721
        21        20        19        57     9        0.000000        0.175559         1    ;  uncertainty k = 0.194210
        21        20        19        57     9      180.000000        8.463923         2    ;  uncertainty k = 0.413468
        21        20        19        57     9        0.000000        1.526974         3    ;  uncertainty k = 0.227748
        21        20        19        57     9      180.000000        1.855719         4    ;  uncertainty k = 0.242608
        21        26        27        28     9        0.000000       -0.052406         1    ;  uncertainty k = 0.525899
        21        26        27        28     9      180.000000       10.535435         2    ;  uncertainty k = 0.438629
        21        26        27        28     9        0.000000        1.345859         3    ;  uncertainty k = 0.153632
        21        26        27        28     9      180.000000        1.746173         4    ;  uncertainty k = 0.503262
        22        21        20        58     9        0.000000       -0.108566         1    ;  uncertainty k = 0.468395
        22        21        20        58     9      180.000000        8.611636         2    ;  uncertainty k = 0.510216
        22        21        20        58     9        0.000000        0.670475         3    ;  uncertainty k = 0.276177
        22        21        20        58     9      180.000000        1.004020         4    ;  uncertainty k = 0.160388
        22        21        26        27     9        0.000000        0.184112         1    ;  uncertainty k = 0.430341
        22        21        26        27     9      180.000000       10.236153         2    ;  uncertainty k = 0.564350
        22        21        26        27     9        0.000000        1.596328         3    ;  uncertainty k = 0.294702
        22        21        26        27     9      180.000000        1.951289         4    ;  uncertainty k = 0.285583
        22        21        26        59     9        0.000000        0.104723         1    ;  uncertainty k = 0.367022
        22        21        26        59     9      180.000000        8.817674         2    ;  uncertainty k = 0.477947
        22        21        26        59     9        0.000000        0.711159         3    ;  uncertainty k = 0.170461
        22        21        26        59     9      180.000000        1.070202         4    ;  uncertainty k = 0.164773
        23        22        21        26     9        0.000000       -0.574436         1    ;  uncertainty k = 0.288119
        23        22        21        26     9      180.000000        2.562506         2    ;  uncertainty k = 0.201571
        23        22        21        26     9        0.000000        0.701170         3    ;  uncertainty k = 0.104983
        23        22        21        26     9      180.000000        0.155920         4    ;  uncertainty k = 0.065716
        24        22        21        26     9        0.000000       -0.574436         1    ;  uncertainty k = 0.288119
        24        22        21        26     9      180.000000        2.562506         2    ;  uncertainty k = 0.201571
        24        22        21        26     9        0.000000        0.701170         3    ;  uncertainty k = 0.104983
        24        22        21        26     9      180.000000        0.155920         4    ;  uncertainty k = 0.065716
        25        22        21        26     9        0.000000       -0.574436         1    ;  uncertainty k = 0.288119
        25        22        21        26     9      180.000000        2.562506         2    ;  uncertainty k = 0.201571
        25        22        21        26     9        0.000000        0.701170         3    ;  uncertainty k = 0.104983
        25        22        21        26     9      180.000000        0.155920         4    ;  uncertainty k = 0.065716
        26        21        20        58     9        0.000000        0.213863         1    ;  uncertainty k = 0.199739
        26        21        20        58     9      180.000000        7.175611         2    ;  uncertainty k = 0.543777
        26        21        20        58     9        0.000000        1.246727         3    ;  uncertainty k = 0.361361
        26        21        20        58     9      180.000000        1.612477         4    ;  uncertainty k = 0.317210
        26        27        28        29     9        0.000000        0.047473         1    ;  uncertainty k = 0.540735
        26        27        28        29     9      180.000000        1.512137         2    ;  uncertainty k = 0.665646
        26        27        28        29     9        0.000000       -0.286512         3    ;  uncertainty k = 0.352049
        26        27        28        29     9      180.000000        0.138328         4    ;  uncertainty k = 0.131397
        26        27        28        60     9        0.000000        0.534070         1    ;  uncertainty k = 0.956167
        26        27        28        60     9      180.000000        1.860060         2    ;  uncertainty k = 0.352982
        26        27        28        60     9        0.000000        0.077794         3    ;  uncertainty k = 0.149453
        26        27        28        60     9      180.000000        0.005636         4    ;  uncertainty k = 0.143229
        27        18        17        56     9        0.000000       11.680210         1    ;  uncertainty k = 0.714263
        27        18        17        56     9      180.000000        5.639670         2    ;  uncertainty k = 0.496849
        27        18        17        56     9        0.000000        0.337104         3    ;  uncertainty k = 0.311468
        27        18        17        56     9      180.000000        0.199068         4    ;  uncertainty k = 0.154313
        27        18        19        57     9        0.000000        0.270042         1    ;  uncertainty k = 0.888279
        27        18        19        57     9      180.000000        6.341358         2    ;  uncertainty k = 0.647731
        27        18        19        57     9        0.000000        1.346205         3    ;  uncertainty k = 0.254113
        27        18        19        57     9      180.000000        1.274156         4    ;  uncertainty k = 0.236801
        27        28         9        49     9        0.000000       -0.495261         1    ;  uncertainty k = 0.912545
        27        28         9        49     9      180.000000        0.758394         2    ;  uncertainty k = 0.524829
        27        28         9        49     9        0.000000       -0.006710         3    ;  uncertainty k = 0.120103
        27        28         9        49     9      180.000000       -0.064125         4    ;  uncertainty k = 0.105449
        28         9         8        47     9        0.000000       -0.375195         1    ;  uncertainty k = 0.393019
        28         9         8        47     9      180.000000       -0.656805         2    ;  uncertainty k = 0.132762
        28         9         8        47     9        0.000000        0.281688         3    ;  uncertainty k = 0.117471
        28         9         8        47     9      180.000000       -0.009048         4    ;  uncertainty k = 0.054184
        28         9         8        48     9        0.000000       -0.375195         1    ;  uncertainty k = 0.393019
        28         9         8        48     9      180.000000       -0.656805         2    ;  uncertainty k = 0.132762
        28         9         8        48     9        0.000000        0.281688         3    ;  uncertainty k = 0.117471
        28         9         8        48     9      180.000000       -0.009048         4    ;  uncertainty k = 0.054184
        28         9        10        50     9        0.000000        0.737392         1    ;  uncertainty k = 0.719923
        28         9        10        50     9      180.000000       -1.388403         2    ;  uncertainty k = 0.748966
        28         9        10        50     9        0.000000       -0.423795         3    ;  uncertainty k = 0.141734
        28         9        10        50     9      180.000000        0.029718         4    ;  uncertainty k = 0.147484
        28        27        26        59     9        0.000000       -0.276769         1    ;  uncertainty k = 0.530614
        28        27        26        59     9      180.000000        8.412442         2    ;  uncertainty k = 0.745644
        28        27        26        59     9        0.000000        0.824115         3    ;  uncertainty k = 0.310579
        28        27        26        59     9      180.000000        1.104340         4    ;  uncertainty k = 0.412602
        28        29         6        44     9        0.000000       -2.001831         1    ;  uncertainty k = 1.207906
        28        29         6        44     9      180.000000       -0.651204         2    ;  uncertainty k = 0.311905
        28        29         6        44     9        0.000000        0.133419         3    ;  uncertainty k = 0.063120
        28        29         6        44     9      180.000000       -0.047955         4    ;  uncertainty k = 0.127796
        29         6         5        42     9        0.000000        0.293233         1    ;  uncertainty k = 0.354819
        29         6         5        42     9      180.000000       -1.077827         2    ;  uncertainty k = 0.212286
        29         6         5        42     9        0.000000        0.302574         3    ;  uncertainty k = 0.151805
        29         6         5        42     9      180.000000       -0.078789         4    ;  uncertainty k = 0.102625
        29         6         5        43     9        0.000000        0.293233         1    ;  uncertainty k = 0.354819
        29         6         5        43     9      180.000000       -1.077827         2    ;  uncertainty k = 0.212286
        29         6         5        43     9        0.000000        0.302574         3    ;  uncertainty k = 0.151805
        29         6         5        43     9      180.000000       -0.078789         4    ;  uncertainty k = 0.102625
        29         6         7        45     9        0.000000       -1.272506         1    ;  uncertainty k = 0.390317
        29         6         7        45     9      180.000000       -0.994338         2    ;  uncertainty k = 0.103219
        29         6         7        45     9        0.000000        0.857697         3    ;  uncertainty k = 0.160908
        29         6         7        45     9      180.000000       -0.134098         4    ;  uncertainty k = 0.103395
        29         6         7        46     9        0.000000       -1.272506         1    ;  uncertainty k = 0.390317
        29         6         7        46     9      180.000000       -0.994338         2    ;  uncertainty k = 0.103219
        29         6         7        46     9        0.000000        0.857697         3    ;  uncertainty k = 0.160908
        29         6         7        46     9      180.000000       -0.134098         4    ;  uncertainty k = 0.103395
        29        28         9        49     9        0.000000       -0.646835         1    ;  uncertainty k = 0.269438
        29        28         9        49     9      180.000000        0.600017         2    ;  uncertainty k = 0.506892
        29        28         9        49     9        0.000000        0.080775         3    ;  uncertainty k = 0.292655
        29        28         9        49     9      180.000000       -0.148926         4    ;  uncertainty k = 0.127523
        30         4         3        40     9        0.000000       -0.560628         1    ;  uncertainty k = 0.686840
        30         4         3        40     9      180.000000       -0.324532         2    ;  uncertainty k = 0.599435
        30         4         3        40     9        0.000000        0.502090         3    ;  uncertainty k = 0.175984
        30         4         3        40     9      180.000000        0.135262         4    ;  uncertainty k = 0.072822
        30         4         3        41     9        0.000000       -0.560628         1    ;  uncertainty k = 0.686840
        30         4         3        41     9      180.000000       -0.324532         2    ;  uncertainty k = 0.599435
        30         4         3        41     9        0.000000        0.502090         3    ;  uncertainty k = 0.175984
        30         4         3        41     9      180.000000        0.135262         4    ;  uncertainty k = 0.072822
        30         4         5        42     9        0.000000       -0.254742         1    ;  uncertainty k = 0.438874
        30         4         5        42     9      180.000000       -0.562536         2    ;  uncertainty k = 0.428740
        30         4         5        42     9        0.000000        0.517668         3    ;  uncertainty k = 0.127482
        30         4         5        42     9      180.000000        0.099260         4    ;  uncertainty k = 0.057984
        30         4         5        43     9        0.000000       -0.254742         1    ;  uncertainty k = 0.438874
        30         4         5        43     9      180.000000       -0.562536         2    ;  uncertainty k = 0.428740
        30         4         5        43     9        0.000000        0.517668         3    ;  uncertainty k = 0.127482
        30         4         5        43     9      180.000000        0.099260         4    ;  uncertainty k = 0.057984
        30        31        32        33     9        0.000000       -0.113444         1    ;  uncertainty k = 0.040668
        30        31        32        33     9      180.000000       14.517168         2    ;  uncertainty k = 0.359860
        30        31        32        33     9        0.000000       -0.954767         3    ;  uncertainty k = 0.446219
        30        31        32        33     9      180.000000        0.710723         4    ;  uncertainty k = 0.242208
        30        31        32        62     9        0.000000        0.049016         1    ;  uncertainty k = 0.157657
        30        31        32        62     9      180.000000        8.247146         2    ;  uncertainty k = 0.508080
        30        31        32        62     9        0.000000        1.196738         3    ;  uncertainty k = 0.254044
        30        31        32        62     9      180.000000        1.641513         4    ;  uncertainty k = 0.138601
        30        35        34        33     9        0.000000       -0.113444         1    ;  uncertainty k = 0.040668
        30        35        34        33     9      180.000000       14.517168         2    ;  uncertainty k = 0.359860
        30        35        34        33     9        0.000000       -0.954767         3    ;  uncertainty k = 0.446219
        30        35        34        33     9      180.000000        0.710723         4    ;  uncertainty k = 0.242208
        30        35        34        64     9        0.000000        0.049016         1    ;  uncertainty k = 0.157657
        30        35        34        64     9      180.000000        8.247146         2    ;  uncertainty k = 0.508080
        30        35        34        64     9        0.000000        1.196738         3    ;  uncertainty k = 0.254044
        30        35        34        64     9      180.000000        1.641513         4    ;  uncertainty k = 0.138601
        31        30        35        34     9        0.000000       -0.172099         1    ;  uncertainty k = 0.259254
        31        30        35        34     9      180.000000        9.255456         2    ;  uncertainty k = 0.569217
        31        30        35        34     9        0.000000       -0.084728         3    ;  uncertainty k = 0.293922
        31        30        35        34     9      180.000000        1.228285         4    ;  uncertainty k = 0.341335
        31        30        35        65     9        0.000000        0.283200         1    ;  uncertainty k = 0.475503
        31        30        35        65     9      180.000000        6.590827         2    ;  uncertainty k = 0.862309
        31        30        35        65     9        0.000000        1.334997         3    ;  uncertainty k = 0.363741
        31        30        35        65     9      180.000000        1.575927         4    ;  uncertainty k = 0.215642
        31        32        33        34     9        0.000000       -0.092257         1    ;  uncertainty k = 0.161245
        31        32        33        34     9      180.000000       14.850940         2    ;  uncertainty k = 0.229943
        31        32        33        34     9        0.000000       -1.240525         3    ;  uncertainty k = 0.579086
        31        32        33        34     9      180.000000        0.547308         4    ;  uncertainty k = 0.308163
        31        32        33        63     9        0.000000        0.172572         1    ;  uncertainty k = 0.169094
        31        32        33        63     9      180.000000        7.724354         2    ;  uncertainty k = 0.423239
        31        32        33        63     9        0.000000        1.417599         3    ;  uncertainty k = 0.284885
        31        32        33        63     9      180.000000        1.784222         4    ;  uncertainty k = 0.172521
        32        31        30        35     9        0.000000       -0.172099         1    ;  uncertainty k = 0.259254
        32        31        30        35     9      180.000000        9.255456         2    ;  uncertainty k = 0.569217
        32        31        30        35     9        0.000000       -0.084728         3    ;  uncertainty k = 0.293922
        32        31        30        35     9      180.000000        1.228285         4    ;  uncertainty k = 0.341335
        32        33        34        35     9        0.000000       -0.092257         1    ;  uncertainty k = 0.161245
        32        33        34        35     9      180.000000       14.850940         2    ;  uncertainty k = 0.229943
        32        33        34        35     9        0.000000       -1.240525         3    ;  uncertainty k = 0.579086
        32        33        34        35     9      180.000000        0.547308         4    ;  uncertainty k = 0.308163
        32        33        34        64     9        0.000000        0.050399         1    ;  uncertainty k = 0.056571
        32        33        34        64     9      180.000000        7.486763         2    ;  uncertainty k = 0.321619
        32        33        34        64     9        0.000000        1.416543         3    ;  uncertainty k = 0.330931
        32        33        34        64     9      180.000000        1.753034         4    ;  uncertainty k = 0.145692
        33        32        31        61     9        0.000000        0.110121         1    ;  uncertainty k = 0.181719
        33        32        31        61     9      180.000000        8.058890         2    ;  uncertainty k = 0.314942
        33        32        31        61     9        0.000000        1.480322         3    ;  uncertainty k = 0.281130
        33        32        31        61     9      180.000000        1.849966         4    ;  uncertainty k = 0.147874
        33        34        35        65     9        0.000000        0.110121         1    ;  uncertainty k = 0.181719
        33        34        35        65     9      180.000000        8.058890         2    ;  uncertainty k = 0.314942
        33        34        35        65     9        0.000000        1.480322         3    ;  uncertainty k = 0.281130
        33        34        35        65     9      180.000000        1.849966         4    ;  uncertainty k = 0.147874
        34        33        32        62     9        0.000000        0.050399         1    ;  uncertainty k = 0.056571
        34        33        32        62     9      180.000000        7.486763         2    ;  uncertainty k = 0.321619
        34        33        32        62     9        0.000000        1.416543         3    ;  uncertainty k = 0.330931
        34        33        32        62     9      180.000000        1.753034         4    ;  uncertainty k = 0.145692
        35        30        31        61     9        0.000000        0.283200         1    ;  uncertainty k = 0.475503
        35        30        31        61     9      180.000000        6.590827         2    ;  uncertainty k = 0.862309
        35        30        31        61     9        0.000000        1.334997         3    ;  uncertainty k = 0.363741
        35        30        31        61     9      180.000000        1.575927         4    ;  uncertainty k = 0.215642
        35        34        33        63     9        0.000000        0.172572         1    ;  uncertainty k = 0.169094
        35        34        33        63     9      180.000000        7.724354         2    ;  uncertainty k = 0.423239
        35        34        33        63     9        0.000000        1.417599         3    ;  uncertainty k = 0.284885
        35        34        33        63     9      180.000000        1.784222         4    ;  uncertainty k = 0.172521
        36         1         2        38     9        0.000000       -0.177406         1    ;  uncertainty k = 0.742993
        36         1         2        38     9      180.000000       -0.021732         2    ;  uncertainty k = 0.349364
        36         1         2        38     9        0.000000        0.461349         3    ;  uncertainty k = 0.090450
        36         1         2        38     9      180.000000        0.042758         4    ;  uncertainty k = 0.099905
        36         1         2        39     9        0.000000       -0.177406         1    ;  uncertainty k = 0.742993
        36         1         2        39     9      180.000000       -0.021732         2    ;  uncertainty k = 0.349364
        36         1         2        39     9        0.000000        0.461349         3    ;  uncertainty k = 0.090450
        36         1         2        39     9      180.000000        0.042758         4    ;  uncertainty k = 0.099905
        37         1         2        38     9        0.000000       -0.177406         1    ;  uncertainty k = 0.742993
        37         1         2        38     9      180.000000       -0.021732         2    ;  uncertainty k = 0.349364
        37         1         2        38     9        0.000000        0.461349         3    ;  uncertainty k = 0.090450
        37         1         2        38     9      180.000000        0.042758         4    ;  uncertainty k = 0.099905
        37         1         2        39     9        0.000000       -0.177406         1    ;  uncertainty k = 0.742993
        37         1         2        39     9      180.000000       -0.021732         2    ;  uncertainty k = 0.349364
        37         1         2        39     9        0.000000        0.461349         3    ;  uncertainty k = 0.090450
        37         1         2        39     9      180.000000        0.042758         4    ;  uncertainty k = 0.099905
        38         2         1        66     9        0.000000       -0.177406         1    ;  uncertainty k = 0.742993
        38         2         1        66     9      180.000000       -0.021732         2    ;  uncertainty k = 0.349364
        38         2         1        66     9        0.000000        0.461349         3    ;  uncertainty k = 0.090450
        38         2         1        66     9      180.000000        0.042758         4    ;  uncertainty k = 0.099905
        38         2         3        40     9        0.000000       -0.031558         1    ;  uncertainty k = 0.482875
        38         2         3        40     9      180.000000        0.147933         2    ;  uncertainty k = 0.562772
        38         2         3        40     9        0.000000        0.230142         3    ;  uncertainty k = 0.136358
        38         2         3        40     9      180.000000        0.048959         4    ;  uncertainty k = 0.062608
        38         2         3        41     9        0.000000       -0.031558         1    ;  uncertainty k = 0.482875
        38         2         3        41     9      180.000000        0.147933         2    ;  uncertainty k = 0.562772
        38         2         3        41     9        0.000000        0.230142         3    ;  uncertainty k = 0.136358
        38         2         3        41     9      180.000000        0.048959         4    ;  uncertainty k = 0.062608
        39         2         1        66     9        0.000000       -0.177406         1    ;  uncertainty k = 0.742993
        39         2         1        66     9      180.000000       -0.021732         2    ;  uncertainty k = 0.349364
        39         2         1        66     9        0.000000        0.461349         3    ;  uncertainty k = 0.090450
        39         2         1        66     9      180.000000        0.042758         4    ;  uncertainty k = 0.099905
        39         2         3        40     9        0.000000       -0.031558         1    ;  uncertainty k = 0.482875
        39         2         3        40     9      180.000000        0.147933         2    ;  uncertainty k = 0.562772
        39         2         3        40     9        0.000000        0.230142         3    ;  uncertainty k = 0.136358
        39         2         3        40     9      180.000000        0.048959         4    ;  uncertainty k = 0.062608
        39         2         3        41     9        0.000000       -0.031558         1    ;  uncertainty k = 0.482875
        39         2         3        41     9      180.000000        0.147933         2    ;  uncertainty k = 0.562772
        39         2         3        41     9        0.000000        0.230142         3    ;  uncertainty k = 0.136358
        39         2         3        41     9      180.000000        0.048959         4    ;  uncertainty k = 0.062608
        42         5         6        44     9        0.000000        0.051119         1    ;  uncertainty k = 0.342221
        42         5         6        44     9      180.000000       -0.212953         2    ;  uncertainty k = 0.241048
        42         5         6        44     9        0.000000        0.087463         3    ;  uncertainty k = 0.041659
        42         5         6        44     9      180.000000       -0.094178         4    ;  uncertainty k = 0.088694
        43         5         6        44     9        0.000000        0.051119         1    ;  uncertainty k = 0.342221
        43         5         6        44     9      180.000000       -0.212953         2    ;  uncertainty k = 0.241048
        43         5         6        44     9        0.000000        0.087463         3    ;  uncertainty k = 0.041659
        43         5         6        44     9      180.000000       -0.094178         4    ;  uncertainty k = 0.088694
        44         6         7        45     9        0.000000        0.231238         1    ;  uncertainty k = 0.301619
        44         6         7        45     9      180.000000        0.157394         2    ;  uncertainty k = 0.349735
        44         6         7        45     9        0.000000       -0.044662         3    ;  uncertainty k = 0.087957
        44         6         7        45     9      180.000000       -0.193383         4    ;  uncertainty k = 0.101857
        44         6         7        46     9        0.000000        0.231238         1    ;  uncertainty k = 0.301619
        44         6         7        46     9      180.000000        0.157394         2    ;  uncertainty k = 0.349735
        44         6         7        46     9        0.000000       -0.044662         3    ;  uncertainty k = 0.087957
        44         6         7        46     9      180.000000       -0.193383         4    ;  uncertainty k = 0.101857
        45         7         8        47     9        0.000000        1.671825         1    ;  uncertainty k = 0.443595
        45         7         8        47     9      180.000000        0.121047         2    ;  uncertainty k = 0.257348
        45         7         8        47     9        0.000000        0.346698         3    ;  uncertainty k = 0.104173
        45         7         8        47     9      180.000000        0.074652         4    ;  uncertainty k = 0.025542
        45         7         8        48     9        0.000000        1.671825         1    ;  uncertainty k = 0.443595
        45         7         8        48     9      180.000000        0.121047         2    ;  uncertainty k = 0.257348
        45         7         8        48     9        0.000000        0.346698         3    ;  uncertainty k = 0.104173
        45         7         8        48     9      180.000000        0.074652         4    ;  uncertainty k = 0.025542
        46         7         8        47     9        0.000000        1.671825         1    ;  uncertainty k = 0.443595
        46         7         8        47     9      180.000000        0.121047         2    ;  uncertainty k = 0.257348
        46         7         8        47     9        0.000000        0.346698         3    ;  uncertainty k = 0.104173
        46         7         8        47     9      180.000000        0.074652         4    ;  uncertainty k = 0.025542
        46         7         8        48     9        0.000000        1.671825         1    ;  uncertainty k = 0.443595
        46         7         8        48     9      180.000000        0.121047         2    ;  uncertainty k = 0.257348
        46         7         8        48     9        0.000000        0.346698         3    ;  uncertainty k = 0.104173
        46         7         8        48     9      180.000000        0.074652         4    ;  uncertainty k = 0.025542
        47         8         9        49     9        0.000000        1.545255         1    ;  uncertainty k = 0.344376
        47         8         9        49     9      180.000000       -0.020692         2    ;  uncertainty k = 0.342601
        47         8         9        49     9        0.000000       -0.070632         3    ;  uncertainty k = 0.119714
        47         8         9        49     9      180.000000        0.013810         4    ;  uncertainty k = 0.071778
        48         8         9        49     9        0.000000        1.545255         1    ;  uncertainty k = 0.344376
        48         8         9        49     9      180.000000       -0.020692         2    ;  uncertainty k = 0.342601
        48         8         9        49     9        0.000000       -0.070632         3    ;  uncertainty k = 0.119714
        48         8         9        49     9      180.000000        0.013810         4    ;  uncertainty k = 0.071778
        49         9        10        50     9        0.000000        1.077534         1    ;  uncertainty k = 0.458223
        49         9        10        50     9      180.000000       -0.042492         2    ;  uncertainty k = 0.250347
        49         9        10        50     9        0.000000       -0.346964         3    ;  uncertainty k = 0.176981
        49         9        10        50     9      180.000000       -0.270511         4    ;  uncertainty k = 0.102482
        49         9        28        60     9        0.000000        2.052517         1    ;  uncertainty k = 0.492056
        49         9        28        60     9      180.000000        0.874633         2    ;  uncertainty k = 0.464313
        49         9        28        60     9        0.000000       -0.485357         3    ;  uncertainty k = 0.218178
        49         9        28        60     9      180.000000       -0.175318         4    ;  uncertainty k = 0.074235
        50        10        17        56     9        0.000000        0.468542         1    ;  uncertainty k = 0.563664
        50        10        17        56     9      180.000000       -0.983993         2    ;  uncertainty k = 0.285944
        50        10        17        56     9        0.000000        0.482175         3    ;  uncertainty k = 0.277173
        50        10        17        56     9      180.000000        0.028441         4    ;  uncertainty k = 0.127509
        51        12        13        52     9        0.000000       -0.038400         1    ;  uncertainty k = 0.034128
        51        12        13        52     9      180.000000        7.644156         2    ;  uncertainty k = 0.255449
        51        12        13        52     9        0.000000       -0.470076         3    ;  uncertainty k = 0.270053
        51        12        13        52     9      180.000000        0.106023         4    ;  uncertainty k = 0.117777
        52        13        14        53     9        0.000000       -0.016279         1    ;  uncertainty k = 0.090334
        52        13        14        53     9      180.000000        7.510682         2    ;  uncertainty k = 0.369436
        52        13        14        53     9        0.000000       -0.422665         3    ;  uncertainty k = 0.276612
        52        13        14        53     9      180.000000        0.041075         4    ;  uncertainty k = 0.155578
        53        14        15        54     9        0.000000       -0.016279         1    ;  uncertainty k = 0.090334
        53        14        15        54     9      180.000000        7.510682         2    ;  uncertainty k = 0.369436
        53        14        15        54     9        0.000000       -0.422665         3    ;  uncertainty k = 0.276612
        53        14        15        54     9      180.000000        0.041075         4    ;  uncertainty k = 0.155578
        54        15        16        55     9        0.000000       -0.038400         1    ;  uncertainty k = 0.034128
        54        15        16        55     9      180.000000        7.644156         2    ;  uncertainty k = 0.255449
        54        15        16        55     9        0.000000       -0.470076         3    ;  uncertainty k = 0.270053
        54        15        16        55     9      180.000000        0.106023         4    ;  uncertainty k = 0.117777
        57        19        20        58     9        0.000000        0.247012         1    ;  uncertainty k = 0.623701
        57        19        20        58     9      180.000000        7.829037         2    ;  uncertainty k = 0.394731
        57        19        20        58     9        0.000000       -0.335446         3    ;  uncertainty k = 0.271687
        57        19        20        58     9      180.000000        0.202601         4    ;  uncertainty k = 0.180743
        61        31        32        62     9        0.000000       -0.024397         1    ;  uncertainty k = 0.156167
        61        31        32        62     9      180.000000        7.712469         2    ;  uncertainty k = 0.332632
        61        31        32        62     9        0.000000       -0.478313         3    ;  uncertainty k = 0.310237
        61        31        32        62     9      180.000000        0.163358         4    ;  uncertainty k = 0.162739
        62        32        33        63     9        0.000000        0.001400         1    ;  uncertainty k = 0.134544
        62        32        33        63     9      180.000000        7.508344         2    ;  uncertainty k = 0.439761
        62        32        33        63     9        0.000000       -0.379207         3    ;  uncertainty k = 0.269827
        62        32        33        63     9      180.000000        0.028644         4    ;  uncertainty k = 0.149548
        63        33        34        64     9        0.000000        0.001400         1    ;  uncertainty k = 0.134544
        63        33        34        64     9      180.000000        7.508344         2    ;  uncertainty k = 0.439761
        63        33        34        64     9        0.000000       -0.379207         3    ;  uncertainty k = 0.269827
        63        33        34        64     9      180.000000        0.028644         4    ;  uncertainty k = 0.149548
        64        34        35        65     9        0.000000       -0.024397         1    ;  uncertainty k = 0.156167
        64        34        35        65     9      180.000000        7.712469         2    ;  uncertainty k = 0.332632
        64        34        35        65     9        0.000000       -0.478313         3    ;  uncertainty k = 0.310237
        64        34        35        65     9      180.000000        0.163358         4    ;  uncertainty k = 0.162739

[ dihedrals ] ; impropers
;       ai        aj        ak        al funct           phase               k        pn
        11        10        12        16     4      180.000000       12.903617         2    ;  uncertainty k = 0.121797
        11        12        16        10     4      180.000000       12.903617         2    ;  uncertainty k = 0.121797
        11        16        10        12     4      180.000000       12.903617         2    ;  uncertainty k = 0.121797
        12        11        13        51     4      180.000000        4.073198         2    ;  uncertainty k = 0.089532
        12        13        51        11     4      180.000000        4.073198         2    ;  uncertainty k = 0.089532
        12        51        11        13     4      180.000000        4.073198         2    ;  uncertainty k = 0.089532
        13        12        14        52     4      180.000000        4.075596         2    ;  uncertainty k = 0.076311
        13        14        52        12     4      180.000000        4.075596         2    ;  uncertainty k = 0.076311
        13        52        12        14     4      180.000000        4.075596         2    ;  uncertainty k = 0.076311
        14        13        15        53     4      180.000000        4.286749         2    ;  uncertainty k = 0.163795
        14        15        53        13     4      180.000000        4.286749         2    ;  uncertainty k = 0.163795
        14        53        13        15     4      180.000000        4.286749         2    ;  uncertainty k = 0.163795
        15        14        16        54     4      180.000000        4.075596         2    ;  uncertainty k = 0.076311
        15        16        54        14     4      180.000000        4.075596         2    ;  uncertainty k = 0.076311
        15        54        14        16     4      180.000000        4.075596         2    ;  uncertainty k = 0.076311
        16        11        15        55     4      180.000000        4.073198         2    ;  uncertainty k = 0.089532
        16        15        55        11     4      180.000000        4.073198         2    ;  uncertainty k = 0.089532
        16        55        11        15     4      180.000000        4.073198         2    ;  uncertainty k = 0.089532
        18        17        19        27     4      180.000000       21.979194         2    ;  uncertainty k = 0.135021
        18        19        27        17     4      180.000000       21.979194         2    ;  uncertainty k = 0.135021
        18        27        17        19     4      180.000000       21.979194         2    ;  uncertainty k = 0.135021
        19        18        20        57     4      180.000000        1.846540         2    ;  uncertainty k = 0.425682
        19        20        57        18     4      180.000000        1.846540         2    ;  uncertainty k = 0.425682
        19        57        18        20     4      180.000000        1.846540         2    ;  uncertainty k = 0.425682
        20        19        21        58     4      180.000000        4.856163         2    ;  uncertainty k = 0.148465
        20        21        58        19     4      180.000000        4.856163         2    ;  uncertainty k = 0.148465
        20        58        19        21     4      180.000000        4.856163         2    ;  uncertainty k = 0.148465
        21        20        22        26     4      180.000000        6.209817         2    ;  uncertainty k = 0.262054
        21        22        26        20     4      180.000000        6.209817         2    ;  uncertainty k = 0.262054
        21        26        20        22     4      180.000000        6.209817         2    ;  uncertainty k = 0.262054
        26        21        27        59     4      180.000000        4.574181         2    ;  uncertainty k = 0.267402
        26        27        59        21     4      180.000000        4.574181         2    ;  uncertainty k = 0.267402
        26        59        21        27     4      180.000000        4.574181         2    ;  uncertainty k = 0.267402
        27        18        26        28     4      180.000000       10.550445         2    ;  uncertainty k = 0.189413
        27        26        28        18     4      180.000000       10.550445         2    ;  uncertainty k = 0.189413
        27        28        18        26     4      180.000000       10.550445         2    ;  uncertainty k = 0.189413
        30         4        31        35     4      180.000000       18.707061         2    ;  uncertainty k = 0.198855
        30        31        35         4     4      180.000000       18.707061         2    ;  uncertainty k = 0.198855
        30        35         4        31     4      180.000000       18.707061         2    ;  uncertainty k = 0.198855
        31        30        32        61     4      180.000000        2.778528         2    ;  uncertainty k = 0.262452
        31        32        61        30     4      180.000000        2.778528         2    ;  uncertainty k = 0.262452
        31        61        30        32     4      180.000000        2.778528         2    ;  uncertainty k = 0.262452
        32        31        33        62     4      180.000000        4.669949         2    ;  uncertainty k = 0.186630
        32        33        62        31     4      180.000000        4.669949         2    ;  uncertainty k = 0.186630
        32        62        31        33     4      180.000000        4.669949         2    ;  uncertainty k = 0.186630
        33        32        34        63     4      180.000000        3.467956         2    ;  uncertainty k = 0.222572
        33        34        63        32     4      180.000000        3.467956         2    ;  uncertainty k = 0.222572
        33        63        32        34     4      180.000000        3.467956         2    ;  uncertainty k = 0.222572
        34        33        35        64     4      180.000000        4.669949         2    ;  uncertainty k = 0.186630
        34        35        64        33     4      180.000000        4.669949         2    ;  uncertainty k = 0.186630
        34        64        33        35     4      180.000000        4.669949         2    ;  uncertainty k = 0.186630
        35        30        34        65     4      180.000000        2.778528         2    ;  uncertainty k = 0.262452
        35        34        65        30     4      180.000000        2.778528         2    ;  uncertainty k = 0.262452
        35        65        30        34     4      180.000000        2.778528         2    ;  uncertainty k = 0.262452

[ pairs ]
;       ai        aj funct
         1         4     1
         1        40     1
         1        41     1
         2         5     1
         2        30     1
         3         6     1
         3        31     1
         3        35     1
         3        36     1
         3        37     1
         3        42     1
         3        43     1
         3        66     1
         4         7     1
         4        29     1
         4        32     1
         4        34     1
         4        38     1
         4        39     1
         4        44     1
         4        61     1
         4        65     1
         5         8     1
         5        28     1
         5        31     1
         5        35     1
         5        40     1
         5        41     1
         5        45     1
         5        46     1
         6         9     1
         6        27     1
         6        30     1
         6        47     1
         6        48     1
         6        60     1
         7        10     1
         7        28     1
         7        42     1
         7        43     1
         7        49     1
         8        11     1
         8        17     1
         8        27     1
         8        29     1
         8        44     1
         8        50     1
         8        60     1
         9        12     1
         9        16     1
         9        18     1
         9        26     1
         9        45     1
         9        46     1
         9        56     1
        10        13     1
        10        15     1
        10        19     1
        10        27     1
        10        29     1
        10        47     1
        10        48     1
        10        51     1
        10        55     1
        10        60     1
        11        14     1
        11        18     1
        11        28     1
        11        49     1
        11        52     1
        11        54     1
        11        56     1
        12        15     1
        12        17     1
        12        50     1
        12        53     1
        12        55     1
        13        16     1
        13        54     1
        14        51     1
        14        55     1
        15        52     1
        16        17     1
        16        50     1
        16        51     1
        16        53     1
        17        20     1
        17        26     1
        17        28     1
        17        49     1
        17        57     1
        18        21     1
        18        29     1
        18        50     1
        18        58     1
        18        59     1
        18        60     1
        19        22     1
        19        26     1
        19        28     1
        19        56     1
        20        23     1
        20        24     1
        20        25     1
        20        27     1
        20        59     1
        21        28     1
        21        57     1
        22        27     1
        22        58     1
        22        59     1
        23        26     1
        24        26     1
        25        26     1
        26        29     1
        26        58     1
        26        60     1
        27        49     1
        27        56     1
        27        57     1
        28        44     1
        28        47     1
        28        48     1
        28        50     1
        28        59     1
        29        42     1
        29        43     1
        29        45     1
        29        46     1
        29        49     1
        30        33     1
        30        40     1
        30        41     1
        30        42     1
        30        43     1
        30        62     1
        30        64     1
        31        34     1
        31        63     1
        31        65     1
        32        35     1
        32        64     1
        33        61     1
        33        65     1
        34        62     1
        35        61     1
        35        63     1
        36        38     1
        36        39     1
        37        38     1
        37        39     1
        38        40     1
        38        41     1
        38        66     1
        39        40     1
        39        41     1
        39        66     1
        42        44     1
        43        44     1
        44        45     1
        44        46     1
        45        47     1
        45        48     1
        46        47     1
        46        48     1
        47        49     1
        48        49     1
        49        50     1
        49        60     1
        50        56     1
        51        52     1
        52        53     1
        53        54     1
        54        55     1
        57        58     1
        61        62     1
        62        63     1
        63        64     1
        64        65     1
