; ITP file created by ByteFF-joint-25, 2026-02-17 09:13:15.341626

[ atomtypes ]
;name           bonded.type        at.num        mass        charge   ptype           sigma         epsilon
 c0bf                                   6      0.0000       0.00000       A     3.39770e-01     4.50513e-01    ;  uncertainty sigma = 0.000009, epsilon = 0.001117
 n1bf                                   7      0.0000       0.00000       A     2.58840e-01     1.06515e+01    ;  uncertainty sigma = 0.000077, epsilon = 0.002313
 c2bf                                   6      0.0000       0.00000       A     3.39770e-01     4.50513e-01    ;  uncertainty sigma = 0.000009, epsilon = 0.001117
 c3bf                                   6      0.0000       0.00000       A     3.39784e-01     4.52027e-01    ;  uncertainty sigma = 0.000027, epsilon = 0.001222
 c4bf                                   6      0.0000       0.00000       A     3.39837e-01     4.50645e-01    ;  uncertainty sigma = 0.000013, epsilon = 0.000456
 o5bf                                   8      0.0000       0.00000       A     3.15901e-01     3.04749e-01    ;  uncertainty sigma = 0.000095, epsilon = 0.004853
 c6bf                                   6      0.0000       0.00000       A     3.31530e-01     4.13664e-01    ;  uncertainty sigma = 0.000016, epsilon = 0.002215
 o7bf                                   8      0.0000       0.00000       A     3.04828e-01     6.12648e-01    ;  uncertainty sigma = 0.000020, epsilon = 0.000679
 n8bf                                   7      0.0000       0.00000       A     3.26993e-01     4.90170e-01    ;  uncertainty sigma = 0.000013, epsilon = 0.001610
 c9bf                                   6      0.0000       0.00000       A     3.39751e-01     4.50917e-01    ;  uncertainty sigma = 0.000008, epsilon = 0.000509
 c10bf                                  6      0.0000       0.00000       A     3.39760e-01     4.51244e-01    ;  uncertainty sigma = 0.000007, epsilon = 0.001288
 c11bf                                  6      0.0000       0.00000       A     3.39788e-01     4.50768e-01    ;  uncertainty sigma = 0.000008, epsilon = 0.000726
 c12bf                                  6      0.0000       0.00000       A     3.39750e-01     4.51142e-01    ;  uncertainty sigma = 0.000011, epsilon = 0.000651
 c13bf                                  6      0.0000       0.00000       A     3.39755e-01     4.50973e-01    ;  uncertainty sigma = 0.000035, epsilon = 0.000615
 c14bf                                  6      0.0000       0.00000       A     3.39774e-01     4.51693e-01    ;  uncertainty sigma = 0.000009, epsilon = 0.001676
 c15bf                                  6      0.0000       0.00000       A     3.31532e-01     4.13295e-01    ;  uncertainty sigma = 0.000012, epsilon = 0.000849
 c16bf                                  6      0.0000       0.00000       A     3.31519e-01     4.13329e-01    ;  uncertainty sigma = 0.000002, epsilon = 0.000632
 c17bf                                  6      0.0000       0.00000       A     3.31520e-01     4.13328e-01    ;  uncertainty sigma = 0.000003, epsilon = 0.000582
 c18bf                                  6      0.0000       0.00000       A     3.31518e-01     4.13340e-01    ;  uncertainty sigma = 0.000003, epsilon = 0.000579
 c19bf                                  6      0.0000       0.00000       A     3.31520e-01     4.13328e-01    ;  uncertainty sigma = 0.000003, epsilon = 0.000582
 c20bf                                  6      0.0000       0.00000       A     3.31519e-01     4.13329e-01    ;  uncertainty sigma = 0.000002, epsilon = 0.000632
 n21bf                                  7      0.0000       0.00000       A     3.27909e-01     6.44315e-01    ;  uncertainty sigma = 0.000015, epsilon = 0.004120
 c22bf                                  6      0.0000       0.00000       A     3.31548e-01     4.13221e-01    ;  uncertainty sigma = 0.000016, epsilon = 0.001142
 c23bf                                  6      0.0000       0.00000       A     3.31520e-01     4.13421e-01    ;  uncertainty sigma = 0.000010, epsilon = 0.000475
 c24bf                                  6      0.0000       0.00000       A     3.31512e-01     4.13402e-01    ;  uncertainty sigma = 0.000007, epsilon = 0.000559
 c25bf                                  6      0.0000       0.00000       A     3.31517e-01     4.13262e-01    ;  uncertainty sigma = 0.000010, epsilon = 0.000628
 c26bf                                  6      0.0000       0.00000       A     3.39792e-01     4.50242e-01    ;  uncertainty sigma = 0.000013, epsilon = 0.000578
 f27bf                                  9      0.0000       0.00000       A     3.03451e-01     3.47806e-01    ;  uncertainty sigma = 0.000008, epsilon = 0.001323
 f28bf                                  9      0.0000       0.00000       A     3.03451e-01     3.47806e-01    ;  uncertainty sigma = 0.000008, epsilon = 0.001323
 f29bf                                  9      0.0000       0.00000       A     3.03451e-01     3.47806e-01    ;  uncertainty sigma = 0.000008, epsilon = 0.001323
 c30bf                                  6      0.0000       0.00000       A     3.31532e-01     4.13181e-01    ;  uncertainty sigma = 0.000009, epsilon = 0.000749
 c31bf                                  6      0.0000       0.00000       A     3.31540e-01     4.13240e-01    ;  uncertainty sigma = 0.000019, epsilon = 0.000618
 c32bf                                  6      0.0000       0.00000       A     3.39758e-01     4.50739e-01    ;  uncertainty sigma = 0.000017, epsilon = 0.001669
 o33bf                                  8      0.0000       0.00000       A     3.15653e-01     3.03499e-01    ;  uncertainty sigma = 0.000034, epsilon = 0.001279
 h34bf                                  1      0.0000       0.00000       A     1.88754e-01     8.64621e-02    ;  uncertainty sigma = 0.000044, epsilon = 0.000601
 h35bf                                  1      0.0000       0.00000       A     1.88754e-01     8.64621e-02    ;  uncertainty sigma = 0.000044, epsilon = 0.000601
 h36bf                                  1      0.0000       0.00000       A     1.88754e-01     8.64621e-02    ;  uncertainty sigma = 0.000044, epsilon = 0.000601
 h37bf                                  1      0.0000       0.00000       A     1.88754e-01     8.64621e-02    ;  uncertainty sigma = 0.000044, epsilon = 0.000601
 h38bf                                  1      0.0000       0.00000       A     1.88754e-01     8.64621e-02    ;  uncertainty sigma = 0.000044, epsilon = 0.000601
 h39bf                                  1      0.0000       0.00000       A     1.88754e-01     8.64621e-02    ;  uncertainty sigma = 0.000044, epsilon = 0.000601
 h40bf                                  1      0.0000       0.00000       A     1.88791e-01     8.66366e-02    ;  uncertainty sigma = 0.000122, epsilon = 0.000951
 h41bf                                  1      0.0000       0.00000       A     1.88791e-01     8.66366e-02    ;  uncertainty sigma = 0.000122, epsilon = 0.000951
 h42bf                                  1      0.0000       0.00000       A     2.42196e-01     8.69689e-02    ;  uncertainty sigma = 0.000025, epsilon = 0.001086
 h43bf                                  1      0.0000       0.00000       A     2.42196e-01     8.69689e-02    ;  uncertainty sigma = 0.000025, epsilon = 0.001086
 h44bf                                  1      0.0000       0.00000       A     1.10646e-01     4.12148e-02    ;  uncertainty sigma = 0.000077, epsilon = 0.000471
 h45bf                                  1      0.0000       0.00000       A     2.42174e-01     8.66875e-02    ;  uncertainty sigma = 0.000016, epsilon = 0.000517
 h46bf                                  1      0.0000       0.00000       A     2.42174e-01     8.66875e-02    ;  uncertainty sigma = 0.000016, epsilon = 0.000517
 h47bf                                  1      0.0000       0.00000       A     2.42212e-01     8.72058e-02    ;  uncertainty sigma = 0.000050, epsilon = 0.001067
 h48bf                                  1      0.0000       0.00000       A     2.60026e-01     8.66991e-02    ;  uncertainty sigma = 0.000012, epsilon = 0.000652
 h49bf                                  1      0.0000       0.00000       A     2.60026e-01     8.66991e-02    ;  uncertainty sigma = 0.000012, epsilon = 0.000652
 h50bf                                  1      0.0000       0.00000       A     2.60028e-01     8.66831e-02    ;  uncertainty sigma = 0.000010, epsilon = 0.000720
 h51bf                                  1      0.0000       0.00000       A     2.60028e-01     8.66831e-02    ;  uncertainty sigma = 0.000010, epsilon = 0.000720
 h52bf                                  1      0.0000       0.00000       A     2.59938e-01     8.64077e-02    ;  uncertainty sigma = 0.000052, epsilon = 0.000980
 h53bf                                  1      0.0000       0.00000       A     2.42303e-01     8.69596e-02    ;  uncertainty sigma = 0.000074, epsilon = 0.001557
 h54bf                                  1      0.0000       0.00000       A     2.62560e-01     6.70316e-02    ;  uncertainty sigma = 0.000006, epsilon = 0.000529
 h55bf                                  1      0.0000       0.00000       A     2.62559e-01     6.70249e-02    ;  uncertainty sigma = 0.000010, epsilon = 0.000440
 h56bf                                  1      0.0000       0.00000       A     2.62552e-01     6.70645e-02    ;  uncertainty sigma = 0.000011, epsilon = 0.000453
 h57bf                                  1      0.0000       0.00000       A     2.62559e-01     6.70249e-02    ;  uncertainty sigma = 0.000010, epsilon = 0.000440
 h58bf                                  1      0.0000       0.00000       A     2.62560e-01     6.70316e-02    ;  uncertainty sigma = 0.000006, epsilon = 0.000529
 h59bf                                  1      0.0000       0.00000       A     1.10675e-01     4.07503e-02    ;  uncertainty sigma = 0.000109, epsilon = 0.000764
 h60bf                                  1      0.0000       0.00000       A     2.62577e-01     6.70680e-02    ;  uncertainty sigma = 0.000013, epsilon = 0.000535
 h61bf                                  1      0.0000       0.00000       A     2.62556e-01     6.71147e-02    ;  uncertainty sigma = 0.000013, epsilon = 0.000508
 h62bf                                  1      0.0000       0.00000       A     2.62531e-01     6.70779e-02    ;  uncertainty sigma = 0.000022, epsilon = 0.000511
 h63bf                                  1      0.0000       0.00000       A     2.42239e-01     8.76589e-02    ;  uncertainty sigma = 0.000274, epsilon = 0.002166
 h64bf                                  1      0.0000       0.00000       A     1.10707e-01     4.17536e-02    ;  uncertainty sigma = 0.000126, epsilon = 0.000974

[ moleculetype ]
;name             nrexcl
 MOL                   3

[ atoms ]
;       nr            type      resi   res      atom      cgnr      charge          mass ; qtot
         1            c0bf         1   UNL        c0         1     0.11413       12.0110 ; qtot    0.114
         2            n1bf         1   UNL        n1         2    -0.70863       14.0070 ; qtot   -0.595
         3            c2bf         1   UNL        c2         3     0.11413       12.0110 ; qtot   -0.480
         4            c3bf         1   UNL        c3         4     0.11190       12.0110 ; qtot   -0.368
         5            c4bf         1   UNL        c4         5     0.13638       12.0110 ; qtot   -0.232
         6            o5bf         1   UNL        o5         6    -0.43070       15.9990 ; qtot   -0.663
         7            c6bf         1   UNL        c6         7     0.76286       12.0110 ; qtot    0.100
         8            o7bf         1   UNL        o7         8    -0.59394       15.9990 ; qtot   -0.494
         9            n8bf         1   UNL        n8         9    -0.54448       14.0070 ; qtot   -1.038
        10            c9bf         1   UNL        c9        10     0.10601       12.0110 ; qtot   -0.932
        11           c10bf         1   UNL       c10        11     0.11937       12.0110 ; qtot   -0.813
        12           c11bf         1   UNL       c11        12    -0.10295       12.0110 ; qtot   -0.916
        13           c12bf         1   UNL       c12        13    -0.06725       12.0110 ; qtot   -0.983
        14           c13bf         1   UNL       c13        14    -0.09461       12.0110 ; qtot   -1.078
        15           c14bf         1   UNL       c14        15     0.25867       12.0110 ; qtot   -0.819
        16           c15bf         1   UNL       c15        16    -0.10560       12.0110 ; qtot   -0.925
        17           c16bf         1   UNL       c16        17    -0.11888       12.0110 ; qtot   -1.044
        18           c17bf         1   UNL       c17        18    -0.13078       12.0110 ; qtot   -1.174
        19           c18bf         1   UNL       c18        19    -0.12452       12.0110 ; qtot   -1.299
        20           c19bf         1   UNL       c19        20    -0.13078       12.0110 ; qtot   -1.430
        21           c20bf         1   UNL       c20        21    -0.11888       12.0110 ; qtot   -1.549
        22           n21bf         1   UNL       n21        22    -0.73726       14.0070 ; qtot   -2.286
        23           c22bf         1   UNL       c22        23     0.18349       12.0110 ; qtot   -2.102
        24           c23bf         1   UNL       c23        24    -0.20421       12.0110 ; qtot   -2.307
        25           c24bf         1   UNL       c24        25    -0.02807       12.0110 ; qtot   -2.335
        26           c25bf         1   UNL       c25        26    -0.22948       12.0110 ; qtot   -2.564
        27           c26bf         1   UNL       c26        27     0.71240       12.0110 ; qtot   -1.852
        28           f27bf         1   UNL       f27        28    -0.22895       18.9980 ; qtot   -2.081
        29           f28bf         1   UNL       f28        29    -0.22895       18.9980 ; qtot   -2.310
        30           f29bf         1   UNL       f29        30    -0.22895       18.9980 ; qtot   -2.539
        31           c30bf         1   UNL       c30        31    -0.01242       12.0110 ; qtot   -2.551
        32           c31bf         1   UNL       c31        32    -0.15471       12.0110 ; qtot   -2.706
        33           c32bf         1   UNL       c32        33     0.20159       12.0110 ; qtot   -2.504
        34           o33bf         1   UNL       o33        34    -0.41792       15.9990 ; qtot   -2.922
        35           h34bf         1   UNL       h34        35     0.10297        1.0080 ; qtot   -2.819
        36           h35bf         1   UNL       h35        36     0.10297        1.0080 ; qtot   -2.716
        37           h36bf         1   UNL       h36        37     0.10297        1.0080 ; qtot   -2.613
        38           h37bf         1   UNL       h37        38     0.10297        1.0080 ; qtot   -2.510
        39           h38bf         1   UNL       h38        39     0.10297        1.0080 ; qtot   -2.407
        40           h39bf         1   UNL       h39        40     0.10297        1.0080 ; qtot   -2.304
        41           h40bf         1   UNL       h40        41     0.11337        1.0080 ; qtot   -2.191
        42           h41bf         1   UNL       h41        42     0.11337        1.0080 ; qtot   -2.077
        43           h42bf         1   UNL       h42        43     0.09560        1.0080 ; qtot   -1.982
        44           h43bf         1   UNL       h43        44     0.09560        1.0080 ; qtot   -1.886
        45           h44bf         1   UNL       h44        45     0.33169        1.0080 ; qtot   -1.555
        46           h45bf         1   UNL       h45        46     0.06697        1.0080 ; qtot   -1.488
        47           h46bf         1   UNL       h46        47     0.06697        1.0080 ; qtot   -1.421
        48           h47bf         1   UNL       h47        48     0.05530        1.0080 ; qtot   -1.365
        49           h48bf         1   UNL       h48        49     0.05461        1.0080 ; qtot   -1.311
        50           h49bf         1   UNL       h49        50     0.05461        1.0080 ; qtot   -1.256
        51           h50bf         1   UNL       h50        51     0.04984        1.0080 ; qtot   -1.206
        52           h51bf         1   UNL       h51        52     0.04984        1.0080 ; qtot   -1.156
        53           h52bf         1   UNL       h52        53     0.06904        1.0080 ; qtot   -1.087
        54           h53bf         1   UNL       h53        54     0.05360        1.0080 ; qtot   -1.034
        55           h54bf         1   UNL       h54        55     0.13512        1.0080 ; qtot   -0.899
        56           h55bf         1   UNL       h55        56     0.13172        1.0080 ; qtot   -0.767
        57           h56bf         1   UNL       h56        57     0.13373        1.0080 ; qtot   -0.633
        58           h57bf         1   UNL       h57        58     0.13172        1.0080 ; qtot   -0.501
        59           h58bf         1   UNL       h58        59     0.13512        1.0080 ; qtot   -0.366
        60           h59bf         1   UNL       h59        60     0.40889        1.0080 ; qtot    0.043
        61           h60bf         1   UNL       h60        61     0.13718        1.0080 ; qtot    0.180
        62           h61bf         1   UNL       h61        62     0.15124        1.0080 ; qtot    0.331
        63           h62bf         1   UNL       h62        63     0.15267        1.0080 ; qtot    0.484
        64           h63bf         1   UNL       h63        64     0.05783        1.0080 ; qtot    0.541
        65           h64bf         1   UNL       h64        65     0.45854        1.0080 ; qtot    1.000

[ bonds ]
;       ai        aj funct               r               k
         1         2     1        0.150373   207593.549829    ;  uncertainty r = 0.000052, k = 12.909364
         1        35     1        0.108979   314164.108105    ;  uncertainty r = 0.000021, k = 1.462183
         1        36     1        0.108979   314164.108105    ;  uncertainty r = 0.000021, k = 1.462183
         1        37     1        0.108979   314164.108105    ;  uncertainty r = 0.000021, k = 1.462183
         2         3     1        0.150373   207593.549829    ;  uncertainty r = 0.000052, k = 12.909364
         2         4     1        0.151097   193711.666553    ;  uncertainty r = 0.000092, k = 26.739018
         2        65     1        0.102875   371023.707910    ;  uncertainty r = 0.000135, k = 14.193424
         3        38     1        0.108979   314164.108105    ;  uncertainty r = 0.000021, k = 1.462183
         3        39     1        0.108979   314164.108105    ;  uncertainty r = 0.000021, k = 1.462183
         3        40     1        0.108979   314164.108105    ;  uncertainty r = 0.000021, k = 1.462183
         4         5     1        0.152505   205269.353662    ;  uncertainty r = 0.000140, k = 10.667182
         4        41     1        0.109067   314355.202295    ;  uncertainty r = 0.000043, k = 2.946323
         4        42     1        0.109067   314355.202295    ;  uncertainty r = 0.000043, k = 2.946323
         5         6     1        0.142155   252084.569922    ;  uncertainty r = 0.000174, k = 11.030655
         5        43     1        0.109327   312404.320361    ;  uncertainty r = 0.000022, k = 3.453698
         5        44     1        0.109327   312404.320361    ;  uncertainty r = 0.000022, k = 3.453698
         6         7     1        0.137351   285485.014941    ;  uncertainty r = 0.000324, k = 71.253105
         7         8     1        0.123275   662021.571875    ;  uncertainty r = 0.000273, k = 14.862588
         7         9     1        0.135908   302217.644043    ;  uncertainty r = 0.000670, k = 17.785141
         9        10     1        0.145181   277215.537109    ;  uncertainty r = 0.000066, k = 13.677638
         9        45     1        0.101585   421237.887891    ;  uncertainty r = 0.000079, k = 2.147956
        10        11     1        0.152772   203920.534619    ;  uncertainty r = 0.000067, k = 5.966907
        10        46     1        0.109462   307703.628027    ;  uncertainty r = 0.000044, k = 1.242261
        10        47     1        0.109462   307703.628027    ;  uncertainty r = 0.000044, k = 1.242261
        11        12     1        0.152848   206018.408154    ;  uncertainty r = 0.000050, k = 5.864725
        11        34     1        0.142859   236412.267139    ;  uncertainty r = 0.000164, k = 9.047808
        11        48     1        0.110043   305185.822266    ;  uncertainty r = 0.000060, k = 3.250157
        12        13     1        0.153377   213759.318896    ;  uncertainty r = 0.000058, k = 3.220361
        12        49     1        0.109674   309921.015234    ;  uncertainty r = 0.000019, k = 0.774006
        12        50     1        0.109674   309921.015234    ;  uncertainty r = 0.000019, k = 0.774006
        13        14     1        0.153242   204627.146436    ;  uncertainty r = 0.000107, k = 8.446574
        13        51     1        0.109603   307691.242529    ;  uncertainty r = 0.000022, k = 1.054580
        13        52     1        0.109603   307691.242529    ;  uncertainty r = 0.000022, k = 1.054580
        14        15     1        0.153739   194039.869482    ;  uncertainty r = 0.000049, k = 9.258954
        14        33     1        0.153400   194695.905054    ;  uncertainty r = 0.000160, k = 12.259031
        14        53     1        0.109712   307584.676172    ;  uncertainty r = 0.000061, k = 3.997517
        15        16     1        0.151697   221951.751270    ;  uncertainty r = 0.000088, k = 6.014321
        15        22     1        0.146438   246437.370166    ;  uncertainty r = 0.000120, k = 17.715123
        15        54     1        0.110060   298327.090967    ;  uncertainty r = 0.000134, k = 4.183506
        16        17     1        0.139859   350947.632764    ;  uncertainty r = 0.000040, k = 0.862445
        16        21     1        0.139859   350947.632764    ;  uncertainty r = 0.000040, k = 0.862445
        17        18     1        0.139620   365997.698340    ;  uncertainty r = 0.000023, k = 1.204481
        17        55     1        0.108883   334327.826611    ;  uncertainty r = 0.000023, k = 0.510248
        18        19     1        0.139607   371240.977637    ;  uncertainty r = 0.000016, k = 0.703184
        18        56     1        0.108851   333986.906201    ;  uncertainty r = 0.000010, k = 1.017345
        19        20     1        0.139607   371240.977637    ;  uncertainty r = 0.000016, k = 0.703184
        19        57     1        0.108841   334518.920801    ;  uncertainty r = 0.000012, k = 0.635624
        20        21     1        0.139620   365997.698340    ;  uncertainty r = 0.000023, k = 1.204481
        20        58     1        0.108851   333986.906201    ;  uncertainty r = 0.000010, k = 1.017345
        21        59     1        0.108883   334327.826611    ;  uncertainty r = 0.000023, k = 0.510248
        22        23     1        0.139955   343991.400781    ;  uncertainty r = 0.000126, k = 9.082252
        22        60     1        0.101439   412844.274170    ;  uncertainty r = 0.000047, k = 2.472850
        23        24     1        0.140865   368811.377051    ;  uncertainty r = 0.000044, k = 7.230080
        23        32     1        0.140838   346500.498389    ;  uncertainty r = 0.000177, k = 22.908283
        24        25     1        0.138816   370640.140527    ;  uncertainty r = 0.000068, k = 3.048036
        24        61     1        0.108921   336733.064795    ;  uncertainty r = 0.000029, k = 1.483003
        25        26     1        0.139378   352395.893311    ;  uncertainty r = 0.000125, k = 2.402654
        25        62     1        0.108598   332329.190283    ;  uncertainty r = 0.000022, k = 1.147970
        26        27     1        0.149257   213835.572705    ;  uncertainty r = 0.000082, k = 4.037123
        26        31     1        0.139076   345540.047705    ;  uncertainty r = 0.000116, k = 2.172376
        27        28     1        0.135370   287114.180371    ;  uncertainty r = 0.000024, k = 3.515891
        27        29     1        0.135370   287114.180371    ;  uncertainty r = 0.000024, k = 3.515891
        27        30     1        0.135370   287114.180371    ;  uncertainty r = 0.000024, k = 3.515891
        31        32     1        0.139099   350903.249268    ;  uncertainty r = 0.000165, k = 2.364282
        31        63     1        0.108699   332543.880762    ;  uncertainty r = 0.000028, k = 1.734946
        32        33     1        0.150993   220016.498047    ;  uncertainty r = 0.000073, k = 8.238210
        33        34     1        0.143165   226666.029346    ;  uncertainty r = 0.000172, k = 9.128911
        33        64     1        0.110073   304804.348926    ;  uncertainty r = 0.000100, k = 3.298894

[ angles ]
;       ai        aj        ak funct           theta             cth
         1         2         3     1      111.666161      715.198414    ;  uncertainty theta = 0.000855, k = 0.194493
         1         2         4     1      111.423386      650.502382    ;  uncertainty theta = 0.002105, k = 0.190773
         1         2        65     1      106.428345      460.869426    ;  uncertainty theta = 0.001203, k = 0.196254
         2         1        35     1      107.894325      470.262485    ;  uncertainty theta = 0.002275, k = 0.069546
         2         1        36     1      107.894325      470.262485    ;  uncertainty theta = 0.002275, k = 0.069546
         2         1        37     1      107.894325      470.262485    ;  uncertainty theta = 0.002275, k = 0.069546
         2         3        38     1      107.894325      470.262485    ;  uncertainty theta = 0.002275, k = 0.069546
         2         3        39     1      107.894325      470.262485    ;  uncertainty theta = 0.002275, k = 0.069546
         2         3        40     1      107.894325      470.262485    ;  uncertainty theta = 0.002275, k = 0.069546
         2         4         5     1      110.100327      638.272341    ;  uncertainty theta = 0.003182, k = 0.153042
         2         4        41     1      106.393311      463.381639    ;  uncertainty theta = 0.002532, k = 0.082864
         2         4        42     1      106.393311      463.381639    ;  uncertainty theta = 0.002532, k = 0.082864
         3         2         4     1      111.423386      650.502382    ;  uncertainty theta = 0.002105, k = 0.190773
         3         2        65     1      106.428345      460.869426    ;  uncertainty theta = 0.001203, k = 0.196254
         4         2        65     1      106.301109      445.461356    ;  uncertainty theta = 0.002846, k = 0.123091
         4         5         6     1      110.391708      552.008943    ;  uncertainty theta = 0.006250, k = 0.105904
         4         5        43     1      109.854187      407.465935    ;  uncertainty theta = 0.003022, k = 0.035365
         4         5        44     1      109.854187      407.465935    ;  uncertainty theta = 0.003022, k = 0.035365
         5         4        41     1      109.598183      403.731325    ;  uncertainty theta = 0.003220, k = 0.042810
         5         4        42     1      109.598183      403.731325    ;  uncertainty theta = 0.003220, k = 0.042810
         5         6         7     1      110.411034      512.447109    ;  uncertainty theta = 0.007224, k = 0.282246
         6         5        43     1      106.621704      421.729784    ;  uncertainty theta = 0.003940, k = 0.156020
         6         5        44     1      106.621704      421.729784    ;  uncertainty theta = 0.003940, k = 0.156020
         6         7         8     1      124.549820      628.182438    ;  uncertainty theta = 0.010881, k = 0.179856
         6         7         9     1      113.075829      630.229301    ;  uncertainty theta = 0.011151, k = 0.203044
         7         9        10     1      114.304245      432.409977    ;  uncertainty theta = 0.002516, k = 0.168103
         7         9        45     1      114.408424      365.378513    ;  uncertainty theta = 0.004209, k = 0.151230
         8         7         9     1      127.214798      707.734747    ;  uncertainty theta = 0.004304, k = 0.149634
         9        10        11     1      110.136658      588.381640    ;  uncertainty theta = 0.003325, k = 0.064593
         9        10        46     1      107.373741      452.984748    ;  uncertainty theta = 0.001791, k = 0.051990
         9        10        47     1      107.373741      452.984748    ;  uncertainty theta = 0.001791, k = 0.051990
        10         9        45     1      112.698143      318.479899    ;  uncertainty theta = 0.004365, k = 0.135845
        10        11        12     1      111.564842      554.578359    ;  uncertainty theta = 0.000908, k = 0.125259
        10        11        34     1      106.655563      566.615468    ;  uncertainty theta = 0.002195, k = 0.056059
        10        11        48     1      107.729576      397.212946    ;  uncertainty theta = 0.001755, k = 0.098795
        11        10        46     1      107.998093      393.137063    ;  uncertainty theta = 0.001436, k = 0.042498
        11        10        47     1      107.998093      393.137063    ;  uncertainty theta = 0.001436, k = 0.042498
        11        12        13     1      109.238815      593.742900    ;  uncertainty theta = 0.002347, k = 0.075781
        11        12        49     1      107.711143      382.799833    ;  uncertainty theta = 0.001611, k = 0.075634
        11        12        50     1      107.711143      382.799833    ;  uncertainty theta = 0.001611, k = 0.075634
        11        34        33     1      110.743286      507.064141    ;  uncertainty theta = 0.006597, k = 0.174738
        12        11        34     1      110.352066      683.863040    ;  uncertainty theta = 0.002543, k = 0.156395
        12        11        48     1      109.328934      400.498135    ;  uncertainty theta = 0.001225, k = 0.069818
        12        13        14     1      109.531601      575.016155    ;  uncertainty theta = 0.001887, k = 0.111836
        12        13        51     1      108.687279      404.607695    ;  uncertainty theta = 0.001709, k = 0.090417
        12        13        52     1      108.687279      404.607695    ;  uncertainty theta = 0.001709, k = 0.090417
        13        12        49     1      109.048744      398.454911    ;  uncertainty theta = 0.000871, k = 0.054277
        13        12        50     1      109.048744      398.454911    ;  uncertainty theta = 0.000871, k = 0.054277
        13        14        15     1      110.668663      549.457275    ;  uncertainty theta = 0.001592, k = 0.164942
        13        14        33     1      109.757545      586.243673    ;  uncertainty theta = 0.001743, k = 0.104953
        13        14        53     1      108.033615      400.292593    ;  uncertainty theta = 0.002769, k = 0.102571
        14        13        51     1      108.106873      388.738073    ;  uncertainty theta = 0.001573, k = 0.068099
        14        13        52     1      108.106873      388.738041    ;  uncertainty theta = 0.001573, k = 0.068099
        14        15        16     1      111.667801      538.117586    ;  uncertainty theta = 0.002515, k = 0.172335
        14        15        22     1      108.357506      705.618040    ;  uncertainty theta = 0.004557, k = 0.110168
        14        15        54     1      107.075500      386.196237    ;  uncertainty theta = 0.002778, k = 0.128014
        14        33        32     1      111.625320      556.167789    ;  uncertainty theta = 0.004213, k = 0.223970
        14        33        34     1      110.977501      663.653483    ;  uncertainty theta = 0.005316, k = 0.090230
        14        33        64     1      107.766991      393.384167    ;  uncertainty theta = 0.003517, k = 0.113971
        15        14        33     1      109.545090      552.757117    ;  uncertainty theta = 0.004180, k = 0.136617
        15        14        53     1      105.964149      389.824836    ;  uncertainty theta = 0.001608, k = 0.093762
        15        16        17     1      119.922928      425.651326    ;  uncertainty theta = 0.003113, k = 0.143043
        15        16        21     1      119.922928      425.651326    ;  uncertainty theta = 0.003113, k = 0.143043
        15        22        23     1      114.218895      391.657475    ;  uncertainty theta = 0.007311, k = 0.149022
        15        22        60     1      110.064499      352.462577    ;  uncertainty theta = 0.003551, k = 0.095281
        16        15        22     1      111.031082      663.623221    ;  uncertainty theta = 0.001203, k = 0.168660
        16        15        54     1      106.340919      410.762170    ;  uncertainty theta = 0.002105, k = 0.098132
        16        17        18     1      121.166641      520.323009    ;  uncertainty theta = 0.001889, k = 0.047519
        16        17        55     1      118.895851      266.730000    ;  uncertainty theta = 0.002264, k = 0.064094
        16        21        20     1      121.166641      520.323009    ;  uncertainty theta = 0.001889, k = 0.047519
        16        21        59     1      118.895851      266.730000    ;  uncertainty theta = 0.002264, k = 0.064094
        17        16        21     1      120.206970      460.017476    ;  uncertainty theta = 0.003029, k = 0.098153
        17        18        19     1      119.685776      513.267201    ;  uncertainty theta = 0.000971, k = 0.012607
        17        18        56     1      120.211227      283.897545    ;  uncertainty theta = 0.001315, k = 0.018226
        18        17        55     1      120.235497      292.477280    ;  uncertainty theta = 0.001696, k = 0.031106
        18        19        20     1      118.246803      526.555213    ;  uncertainty theta = 0.000903, k = 0.024013
        18        19        57     1      120.647278      289.320829    ;  uncertainty theta = 0.001403, k = 0.006566
        19        18        56     1      120.620949      287.638764    ;  uncertainty theta = 0.001444, k = 0.012507
        19        20        21     1      119.685776      513.267201    ;  uncertainty theta = 0.000971, k = 0.012607
        19        20        58     1      120.620949      287.638764    ;  uncertainty theta = 0.001444, k = 0.012507
        20        19        57     1      120.647278      289.320829    ;  uncertainty theta = 0.001403, k = 0.006566
        20        21        59     1      120.235497      292.477280    ;  uncertainty theta = 0.001696, k = 0.031106
        21        20        58     1      120.211227      283.897545    ;  uncertainty theta = 0.001315, k = 0.018226
        22        15        54     1      107.894577      455.839254    ;  uncertainty theta = 0.003753, k = 0.115430
        22        23        24     1      123.141701      575.910018    ;  uncertainty theta = 0.003511, k = 0.120934
        22        23        32     1      122.317612      499.033231    ;  uncertainty theta = 0.010194, k = 0.209541
        23        22        60     1      111.105759      386.782760    ;  uncertainty theta = 0.005516, k = 0.186771
        23        24        25     1      120.478416      516.109003    ;  uncertainty theta = 0.002075, k = 0.087339
        23        24        61     1      119.051010      277.924383    ;  uncertainty theta = 0.004177, k = 0.151845
        23        32        31     1      120.424454      453.080097    ;  uncertainty theta = 0.006616, k = 0.179671
        23        32        33     1      120.375427      356.825848    ;  uncertainty theta = 0.009333, k = 0.368707
        24        23        32     1      118.942970      382.845385    ;  uncertainty theta = 0.005312, k = 0.129488
        24        25        26     1      120.981323      513.612814    ;  uncertainty theta = 0.003622, k = 0.061051
        24        25        62     1      120.001465      286.894165    ;  uncertainty theta = 0.002804, k = 0.033751
        25        24        61     1      120.437340      286.262218    ;  uncertainty theta = 0.002252, k = 0.069391
        25        26        27     1      116.839577      343.993737    ;  uncertainty theta = 0.004979, k = 0.130748
        25        26        31     1      121.948021      476.311014    ;  uncertainty theta = 0.002704, k = 0.206185
        26        25        62     1      118.183701      271.648352    ;  uncertainty theta = 0.003054, k = 0.062508
        26        27        28     1      113.129189      665.135146    ;  uncertainty theta = 0.002597, k = 0.018376
        26        27        29     1      113.129189      665.135146    ;  uncertainty theta = 0.002597, k = 0.018376
        26        27        30     1      113.129189      665.135146    ;  uncertainty theta = 0.002597, k = 0.018376
        26        31        32     1      123.128983      512.049432    ;  uncertainty theta = 0.004008, k = 0.124705
        26        31        63     1      117.799782      273.317648    ;  uncertainty theta = 0.004465, k = 0.082060
        27        26        31     1      116.421097      363.451674    ;  uncertainty theta = 0.005624, k = 0.222078
        28        27        29     1      107.629150      789.646430    ;  uncertainty theta = 0.002059, k = 0.013010
        28        27        30     1      107.629150      789.646430    ;  uncertainty theta = 0.002059, k = 0.013010
        29        27        30     1      107.629150      789.646430    ;  uncertainty theta = 0.002059, k = 0.013010
        31        32        33     1      118.950241      402.591572    ;  uncertainty theta = 0.003729, k = 0.167766
        32        31        63     1      118.101120      267.172941    ;  uncertainty theta = 0.003492, k = 0.082588
        32        33        34     1      108.944107      646.378330    ;  uncertainty theta = 0.006702, k = 0.349201
        32        33        64     1      108.297501      391.435015    ;  uncertainty theta = 0.004361, k = 0.086695
        33        14        53     1      106.452866      398.861877    ;  uncertainty theta = 0.002907, k = 0.084787
        34        11        48     1      106.785545      456.491312    ;  uncertainty theta = 0.005316, k = 0.171014
        34        33        64     1      106.278244      449.051937    ;  uncertainty theta = 0.002859, k = 0.164376
        35         1        36     1      108.468872      318.999930    ;  uncertainty theta = 0.003169, k = 0.041529
        35         1        37     1      108.468872      318.999930    ;  uncertainty theta = 0.003169, k = 0.041529
        36         1        37     1      108.468872      318.999930    ;  uncertainty theta = 0.003169, k = 0.041529
        38         3        39     1      108.468872      318.999930    ;  uncertainty theta = 0.003169, k = 0.041529
        38         3        40     1      108.468872      318.999930    ;  uncertainty theta = 0.003169, k = 0.041529
        39         3        40     1      108.468872      318.999930    ;  uncertainty theta = 0.003169, k = 0.041529
        41         4        42     1      108.235817      319.748614    ;  uncertainty theta = 0.004854, k = 0.074570
        43         5        44     1      108.518265      327.960168    ;  uncertainty theta = 0.003270, k = 0.102549
        46        10        47     1      106.259842      322.361444    ;  uncertainty theta = 0.002319, k = 0.027156
        49        12        50     1      105.185684      314.068650    ;  uncertainty theta = 0.000993, k = 0.026189
        51        13        52     1      104.585793      315.268958    ;  uncertainty theta = 0.002093, k = 0.030266

[ dihedrals ] ; propers for gromacs 4.5 or higher, use funct 9
;       ai        aj        ak        al funct           phase               k        pn
         1         2         3        38     9        0.000000       -0.641999         1    ;  uncertainty k = 0.571853
         1         2         3        38     9      180.000000       -0.654577         2    ;  uncertainty k = 0.377378
         1         2         3        38     9        0.000000        1.225739         3    ;  uncertainty k = 0.065459
         1         2         3        38     9      180.000000       -0.019814         4    ;  uncertainty k = 0.120802
         1         2         3        39     9        0.000000       -0.641999         1    ;  uncertainty k = 0.571853
         1         2         3        39     9      180.000000       -0.654577         2    ;  uncertainty k = 0.377378
         1         2         3        39     9        0.000000        1.225739         3    ;  uncertainty k = 0.065459
         1         2         3        39     9      180.000000       -0.019814         4    ;  uncertainty k = 0.120802
         1         2         3        40     9        0.000000       -0.641999         1    ;  uncertainty k = 0.571853
         1         2         3        40     9      180.000000       -0.654577         2    ;  uncertainty k = 0.377378
         1         2         3        40     9        0.000000        1.225739         3    ;  uncertainty k = 0.065459
         1         2         3        40     9      180.000000       -0.019814         4    ;  uncertainty k = 0.120802
         1         2         4         5     9        0.000000       -1.228622         1    ;  uncertainty k = 0.709765
         1         2         4         5     9      180.000000       -0.056277         2    ;  uncertainty k = 0.816191
         1         2         4         5     9        0.000000        0.924441         3    ;  uncertainty k = 0.130932
         1         2         4         5     9      180.000000       -0.142704         4    ;  uncertainty k = 0.086963
         1         2         4        41     9        0.000000       -0.585436         1    ;  uncertainty k = 0.406052
         1         2         4        41     9      180.000000       -0.267782         2    ;  uncertainty k = 0.324729
         1         2         4        41     9        0.000000        0.925153         3    ;  uncertainty k = 0.059736
         1         2         4        41     9      180.000000       -0.009875         4    ;  uncertainty k = 0.158317
         1         2         4        42     9        0.000000       -0.585436         1    ;  uncertainty k = 0.406052
         1         2         4        42     9      180.000000       -0.267782         2    ;  uncertainty k = 0.324729
         1         2         4        42     9        0.000000        0.925153         3    ;  uncertainty k = 0.059736
         1         2         4        42     9      180.000000       -0.009875         4    ;  uncertainty k = 0.158317
         2         4         5         6     9        0.000000        2.536765         1    ;  uncertainty k = 1.021378
         2         4         5         6     9      180.000000       -6.664490         2    ;  uncertainty k = 0.605617
         2         4         5         6     9        0.000000        1.515511         3    ;  uncertainty k = 0.444135
         2         4         5         6     9      180.000000       -0.228087         4    ;  uncertainty k = 0.139444
         2         4         5        43     9        0.000000        0.003709         1    ;  uncertainty k = 0.695259
         2         4         5        43     9      180.000000       -1.425626         2    ;  uncertainty k = 0.587457
         2         4         5        43     9        0.000000        0.879114         3    ;  uncertainty k = 0.265397
         2         4         5        43     9      180.000000       -0.155889         4    ;  uncertainty k = 0.126575
         2         4         5        44     9        0.000000        0.003709         1    ;  uncertainty k = 0.695259
         2         4         5        44     9      180.000000       -1.425626         2    ;  uncertainty k = 0.587457
         2         4         5        44     9        0.000000        0.879114         3    ;  uncertainty k = 0.265397
         2         4         5        44     9      180.000000       -0.155889         4    ;  uncertainty k = 0.126575
         3         2         1        35     9        0.000000       -0.641999         1    ;  uncertainty k = 0.571853
         3         2         1        35     9      180.000000       -0.654577         2    ;  uncertainty k = 0.377378
         3         2         1        35     9        0.000000        1.225739         3    ;  uncertainty k = 0.065459
         3         2         1        35     9      180.000000       -0.019814         4    ;  uncertainty k = 0.120802
         3         2         1        36     9        0.000000       -0.641999         1    ;  uncertainty k = 0.571853
         3         2         1        36     9      180.000000       -0.654577         2    ;  uncertainty k = 0.377378
         3         2         1        36     9        0.000000        1.225739         3    ;  uncertainty k = 0.065459
         3         2         1        36     9      180.000000       -0.019814         4    ;  uncertainty k = 0.120802
         3         2         1        37     9        0.000000       -0.641999         1    ;  uncertainty k = 0.571853
         3         2         1        37     9      180.000000       -0.654577         2    ;  uncertainty k = 0.377378
         3         2         1        37     9        0.000000        1.225739         3    ;  uncertainty k = 0.065459
         3         2         1        37     9      180.000000       -0.019814         4    ;  uncertainty k = 0.120802
         3         2         4         5     9        0.000000       -1.228622         1    ;  uncertainty k = 0.709765
         3         2         4         5     9      180.000000       -0.056277         2    ;  uncertainty k = 0.816191
         3         2         4         5     9        0.000000        0.924441         3    ;  uncertainty k = 0.130932
         3         2         4         5     9      180.000000       -0.142704         4    ;  uncertainty k = 0.086963
         3         2         4        41     9        0.000000       -0.585436         1    ;  uncertainty k = 0.406052
         3         2         4        41     9      180.000000       -0.267782         2    ;  uncertainty k = 0.324729
         3         2         4        41     9        0.000000        0.925153         3    ;  uncertainty k = 0.059736
         3         2         4        41     9      180.000000       -0.009875         4    ;  uncertainty k = 0.158317
         3         2         4        42     9        0.000000       -0.585436         1    ;  uncertainty k = 0.406052
         3         2         4        42     9      180.000000       -0.267782         2    ;  uncertainty k = 0.324729
         3         2         4        42     9        0.000000        0.925153         3    ;  uncertainty k = 0.059736
         3         2         4        42     9      180.000000       -0.009875         4    ;  uncertainty k = 0.158317
         4         2         1        35     9        0.000000       -0.207572         1    ;  uncertainty k = 0.643220
         4         2         1        35     9      180.000000       -1.104123         2    ;  uncertainty k = 0.349506
         4         2         1        35     9        0.000000        1.187104         3    ;  uncertainty k = 0.070553
         4         2         1        35     9      180.000000       -0.030585         4    ;  uncertainty k = 0.095380
         4         2         1        36     9        0.000000       -0.207572         1    ;  uncertainty k = 0.643220
         4         2         1        36     9      180.000000       -1.104123         2    ;  uncertainty k = 0.349506
         4         2         1        36     9        0.000000        1.187104         3    ;  uncertainty k = 0.070553
         4         2         1        36     9      180.000000       -0.030585         4    ;  uncertainty k = 0.095380
         4         2         1        37     9        0.000000       -0.207572         1    ;  uncertainty k = 0.643220
         4         2         1        37     9      180.000000       -1.104123         2    ;  uncertainty k = 0.349506
         4         2         1        37     9        0.000000        1.187104         3    ;  uncertainty k = 0.070553
         4         2         1        37     9      180.000000       -0.030585         4    ;  uncertainty k = 0.095380
         4         2         3        38     9        0.000000       -0.207572         1    ;  uncertainty k = 0.643220
         4         2         3        38     9      180.000000       -1.104123         2    ;  uncertainty k = 0.349506
         4         2         3        38     9        0.000000        1.187104         3    ;  uncertainty k = 0.070553
         4         2         3        38     9      180.000000       -0.030585         4    ;  uncertainty k = 0.095380
         4         2         3        39     9        0.000000       -0.207572         1    ;  uncertainty k = 0.643220
         4         2         3        39     9      180.000000       -1.104123         2    ;  uncertainty k = 0.349506
         4         2         3        39     9        0.000000        1.187104         3    ;  uncertainty k = 0.070553
         4         2         3        39     9      180.000000       -0.030585         4    ;  uncertainty k = 0.095380
         4         2         3        40     9        0.000000       -0.207572         1    ;  uncertainty k = 0.643220
         4         2         3        40     9      180.000000       -1.104123         2    ;  uncertainty k = 0.349506
         4         2         3        40     9        0.000000        1.187104         3    ;  uncertainty k = 0.070553
         4         2         3        40     9      180.000000       -0.030585         4    ;  uncertainty k = 0.095380
         4         5         6         7     9        0.000000        3.552888         1    ;  uncertainty k = 1.116924
         4         5         6         7     9      180.000000        0.867331         2    ;  uncertainty k = 0.399770
         4         5         6         7     9        0.000000       -0.512643         3    ;  uncertainty k = 0.248983
         4         5         6         7     9      180.000000        0.835029         4    ;  uncertainty k = 0.214855
         5         4         2        65     9        0.000000       -0.191660         1    ;  uncertainty k = 0.911166
         5         4         2        65     9      180.000000       -0.864806         2    ;  uncertainty k = 0.397937
         5         4         2        65     9        0.000000        0.319490         3    ;  uncertainty k = 0.207562
         5         4         2        65     9      180.000000       -0.257936         4    ;  uncertainty k = 0.162070
         5         6         7         8     9        0.000000        8.046529         1    ;  uncertainty k = 0.766475
         5         6         7         8     9      180.000000        9.413876         2    ;  uncertainty k = 0.224673
         5         6         7         8     9        0.000000        0.679585         3    ;  uncertainty k = 0.480231
         5         6         7         8     9      180.000000        0.468223         4    ;  uncertainty k = 0.422936
         5         6         7         9     9        0.000000        4.447610         1    ;  uncertainty k = 1.029468
         5         6         7         9     9      180.000000        7.868719         2    ;  uncertainty k = 0.430987
         5         6         7         9     9        0.000000        0.485681         3    ;  uncertainty k = 0.456522
         5         6         7         9     9      180.000000        0.252131         4    ;  uncertainty k = 0.180471
         6         5         4        41     9        0.000000        0.768567         1    ;  uncertainty k = 1.080271
         6         5         4        41     9      180.000000       -1.148488         2    ;  uncertainty k = 0.518109
         6         5         4        41     9        0.000000        0.923406         3    ;  uncertainty k = 0.144697
         6         5         4        41     9      180.000000       -0.015827         4    ;  uncertainty k = 0.226780
         6         5         4        42     9        0.000000        0.768567         1    ;  uncertainty k = 1.080271
         6         5         4        42     9      180.000000       -1.148488         2    ;  uncertainty k = 0.518109
         6         5         4        42     9        0.000000        0.923406         3    ;  uncertainty k = 0.144697
         6         5         4        42     9      180.000000       -0.015827         4    ;  uncertainty k = 0.226780
         6         7         9        10     9        0.000000        8.301798         1    ;  uncertainty k = 1.399344
         6         7         9        10     9      180.000000       11.750021         2    ;  uncertainty k = 0.453776
         6         7         9        10     9        0.000000        1.967846         3    ;  uncertainty k = 0.259085
         6         7         9        10     9      180.000000       -0.526946         4    ;  uncertainty k = 0.253149
         6         7         9        45     9        0.000000        1.250563         1    ;  uncertainty k = 0.854741
         6         7         9        45     9      180.000000        8.246358         2    ;  uncertainty k = 1.153751
         6         7         9        45     9        0.000000        1.626593         3    ;  uncertainty k = 0.557636
         6         7         9        45     9      180.000000       -0.044227         4    ;  uncertainty k = 0.289568
         7         6         5        43     9        0.000000        4.995164         1    ;  uncertainty k = 1.186926
         7         6         5        43     9      180.000000        0.359689         2    ;  uncertainty k = 0.534748
         7         6         5        43     9        0.000000       -0.030006         3    ;  uncertainty k = 0.303022
         7         6         5        43     9      180.000000        0.398354         4    ;  uncertainty k = 0.146023
         7         6         5        44     9        0.000000        4.995164         1    ;  uncertainty k = 1.186926
         7         6         5        44     9      180.000000        0.359689         2    ;  uncertainty k = 0.534748
         7         6         5        44     9        0.000000       -0.030006         3    ;  uncertainty k = 0.303022
         7         6         5        44     9      180.000000        0.398354         4    ;  uncertainty k = 0.146023
         7         9        10        11     9        0.000000       -0.215321         1    ;  uncertainty k = 0.810680
         7         9        10        11     9      180.000000       -0.208867         2    ;  uncertainty k = 0.290693
         7         9        10        11     9        0.000000       -0.132060         3    ;  uncertainty k = 0.192267
         7         9        10        11     9      180.000000        0.575067         4    ;  uncertainty k = 0.114842
         7         9        10        46     9        0.000000        0.910691         1    ;  uncertainty k = 0.529432
         7         9        10        46     9      180.000000       -0.624154         2    ;  uncertainty k = 0.196748
         7         9        10        46     9        0.000000        0.164354         3    ;  uncertainty k = 0.058685
         7         9        10        46     9      180.000000        0.292899         4    ;  uncertainty k = 0.075548
         7         9        10        47     9        0.000000        0.910691         1    ;  uncertainty k = 0.529432
         7         9        10        47     9      180.000000       -0.624154         2    ;  uncertainty k = 0.196748
         7         9        10        47     9        0.000000        0.164354         3    ;  uncertainty k = 0.058685
         7         9        10        47     9      180.000000        0.292899         4    ;  uncertainty k = 0.075548
         8         7         9        10     9        0.000000        7.613561         1    ;  uncertainty k = 1.152127
         8         7         9        10     9      180.000000       12.799343         2    ;  uncertainty k = 0.336762
         8         7         9        10     9        0.000000        1.038489         3    ;  uncertainty k = 0.342996
         8         7         9        10     9      180.000000       -0.623673         4    ;  uncertainty k = 0.290769
         8         7         9        45     9        0.000000        4.118214         1    ;  uncertainty k = 1.077447
         8         7         9        45     9      180.000000       14.405745         2    ;  uncertainty k = 0.320122
         8         7         9        45     9        0.000000        1.245971         3    ;  uncertainty k = 0.346234
         8         7         9        45     9      180.000000       -0.656319         4    ;  uncertainty k = 0.229009
         9        10        11        12     9        0.000000       -1.545650         1    ;  uncertainty k = 0.918962
         9        10        11        12     9      180.000000        0.793554         2    ;  uncertainty k = 0.303567
         9        10        11        12     9        0.000000        1.192908         3    ;  uncertainty k = 0.262691
         9        10        11        12     9      180.000000       -0.267926         4    ;  uncertainty k = 0.264413
         9        10        11        34     9        0.000000       -0.610638         1    ;  uncertainty k = 0.639970
         9        10        11        34     9      180.000000       -2.379823         2    ;  uncertainty k = 0.515625
         9        10        11        34     9        0.000000        1.886832         3    ;  uncertainty k = 0.338394
         9        10        11        34     9      180.000000       -0.270088         4    ;  uncertainty k = 0.056319
         9        10        11        48     9        0.000000       -0.067969         1    ;  uncertainty k = 0.627946
         9        10        11        48     9      180.000000       -0.919681         2    ;  uncertainty k = 0.298283
         9        10        11        48     9        0.000000        0.912232         3    ;  uncertainty k = 0.191999
         9        10        11        48     9      180.000000       -0.115437         4    ;  uncertainty k = 0.056292
        10        11        12        13     9        0.000000       -2.885899         1    ;  uncertainty k = 0.416704
        10        11        12        13     9      180.000000        0.288230         2    ;  uncertainty k = 0.348140
        10        11        12        13     9        0.000000        0.437172         3    ;  uncertainty k = 0.057194
        10        11        12        13     9      180.000000       -0.339719         4    ;  uncertainty k = 0.107286
        10        11        12        49     9        0.000000       -0.740756         1    ;  uncertainty k = 0.321135
        10        11        12        49     9      180.000000       -0.300525         2    ;  uncertainty k = 0.289824
        10        11        12        49     9        0.000000        0.220623         3    ;  uncertainty k = 0.064402
        10        11        12        49     9      180.000000       -0.223835         4    ;  uncertainty k = 0.072157
        10        11        12        50     9        0.000000       -0.740756         1    ;  uncertainty k = 0.321135
        10        11        12        50     9      180.000000       -0.300525         2    ;  uncertainty k = 0.289824
        10        11        12        50     9        0.000000        0.220623         3    ;  uncertainty k = 0.064402
        10        11        12        50     9      180.000000       -0.223835         4    ;  uncertainty k = 0.072157
        10        11        34        33     9        0.000000       -5.005350         1    ;  uncertainty k = 0.933520
        10        11        34        33     9      180.000000        0.178738         2    ;  uncertainty k = 0.307918
        10        11        34        33     9        0.000000        0.561242         3    ;  uncertainty k = 0.371507
        10        11        34        33     9      180.000000       -0.077597         4    ;  uncertainty k = 0.216993
        11        10         9        45     9        0.000000        2.750529         1    ;  uncertainty k = 0.385657
        11        10         9        45     9      180.000000       -2.531663         2    ;  uncertainty k = 0.224403
        11        10         9        45     9        0.000000        0.675325         3    ;  uncertainty k = 0.153561
        11        10         9        45     9      180.000000       -0.017101         4    ;  uncertainty k = 0.135828
        11        12        13        14     9        0.000000       -4.860861         1    ;  uncertainty k = 1.076201
        11        12        13        14     9      180.000000       -0.590629         2    ;  uncertainty k = 0.608539
        11        12        13        14     9        0.000000        1.231148         3    ;  uncertainty k = 0.230475
        11        12        13        14     9      180.000000       -0.965656         4    ;  uncertainty k = 0.186669
        11        12        13        51     9        0.000000       -1.061938         1    ;  uncertainty k = 0.654331
        11        12        13        51     9      180.000000       -0.566320         2    ;  uncertainty k = 0.239438
        11        12        13        51     9        0.000000        0.416928         3    ;  uncertainty k = 0.157574
        11        12        13        51     9      180.000000        0.038492         4    ;  uncertainty k = 0.034871
        11        12        13        52     9        0.000000       -1.061938         1    ;  uncertainty k = 0.654331
        11        12        13        52     9      180.000000       -0.566320         2    ;  uncertainty k = 0.239438
        11        12        13        52     9        0.000000        0.416928         3    ;  uncertainty k = 0.157574
        11        12        13        52     9      180.000000        0.038492         4    ;  uncertainty k = 0.034871
        11        34        33        14     9        0.000000        4.316405         1    ;  uncertainty k = 1.466520
        11        34        33        14     9      180.000000       -1.898668         2    ;  uncertainty k = 1.125818
        11        34        33        14     9        0.000000        0.065586         3    ;  uncertainty k = 0.329059
        11        34        33        14     9      180.000000        0.036681         4    ;  uncertainty k = 0.199345
        11        34        33        32     9        0.000000       -3.224798         1    ;  uncertainty k = 1.626473
        11        34        33        32     9      180.000000       -1.067587         2    ;  uncertainty k = 0.859482
        11        34        33        32     9        0.000000        0.893165         3    ;  uncertainty k = 0.562654
        11        34        33        32     9      180.000000       -0.103508         4    ;  uncertainty k = 0.173329
        11        34        33        64     9        0.000000       -1.683655         1    ;  uncertainty k = 0.487574
        11        34        33        64     9      180.000000       -0.481867         2    ;  uncertainty k = 0.309842
        11        34        33        64     9        0.000000        0.421604         3    ;  uncertainty k = 0.087662
        11        34        33        64     9      180.000000       -0.104442         4    ;  uncertainty k = 0.210229
        12        11        10        46     9        0.000000       -1.034558         1    ;  uncertainty k = 0.363664
        12        11        10        46     9      180.000000       -0.203947         2    ;  uncertainty k = 0.343261
        12        11        10        46     9        0.000000        0.299746         3    ;  uncertainty k = 0.044225
        12        11        10        46     9      180.000000       -0.175906         4    ;  uncertainty k = 0.087598
        12        11        10        47     9        0.000000       -1.034558         1    ;  uncertainty k = 0.363664
        12        11        10        47     9      180.000000       -0.203947         2    ;  uncertainty k = 0.343261
        12        11        10        47     9        0.000000        0.299746         3    ;  uncertainty k = 0.044225
        12        11        10        47     9      180.000000       -0.175906         4    ;  uncertainty k = 0.087598
        12        11        34        33     9        0.000000        2.499392         1    ;  uncertainty k = 2.805284
        12        11        34        33     9      180.000000       -1.329151         2    ;  uncertainty k = 0.483483
        12        11        34        33     9        0.000000       -0.052662         3    ;  uncertainty k = 0.601184
        12        11        34        33     9      180.000000        0.023478         4    ;  uncertainty k = 0.162711
        12        13        14        15     9        0.000000       -3.443880         1    ;  uncertainty k = 0.605593
        12        13        14        15     9      180.000000        0.062544         2    ;  uncertainty k = 0.168825
        12        13        14        15     9        0.000000        1.152455         3    ;  uncertainty k = 0.142781
        12        13        14        15     9      180.000000       -0.543040         4    ;  uncertainty k = 0.159797
        12        13        14        33     9        0.000000       -3.551719         1    ;  uncertainty k = 0.291228
        12        13        14        33     9      180.000000        0.164560         2    ;  uncertainty k = 0.394673
        12        13        14        33     9        0.000000        1.025463         3    ;  uncertainty k = 0.171956
        12        13        14        33     9      180.000000       -0.793434         4    ;  uncertainty k = 0.066548
        12        13        14        53     9        0.000000       -2.393882         1    ;  uncertainty k = 0.521608
        12        13        14        53     9      180.000000        0.121956         2    ;  uncertainty k = 0.258368
        12        13        14        53     9        0.000000        0.024213         3    ;  uncertainty k = 0.078636
        12        13        14        53     9      180.000000       -0.101045         4    ;  uncertainty k = 0.083408
        13        12        11        34     9        0.000000       -2.270035         1    ;  uncertainty k = 0.777088
        13        12        11        34     9      180.000000       -1.051232         2    ;  uncertainty k = 0.570088
        13        12        11        34     9        0.000000        1.427058         3    ;  uncertainty k = 0.428780
        13        12        11        34     9      180.000000       -0.509130         4    ;  uncertainty k = 0.317389
        13        12        11        48     9        0.000000        0.648280         1    ;  uncertainty k = 0.800579
        13        12        11        48     9      180.000000       -1.862932         2    ;  uncertainty k = 0.722775
        13        12        11        48     9        0.000000       -0.281701         3    ;  uncertainty k = 0.147901
        13        12        11        48     9      180.000000        0.139382         4    ;  uncertainty k = 0.079287
        13        14        15        16     9        0.000000       -0.461049         1    ;  uncertainty k = 0.381282
        13        14        15        16     9      180.000000        0.080824         2    ;  uncertainty k = 0.232856
        13        14        15        16     9        0.000000        1.015758         3    ;  uncertainty k = 0.130571
        13        14        15        16     9      180.000000       -0.026766         4    ;  uncertainty k = 0.089496
        13        14        15        22     9        0.000000       -2.649434         1    ;  uncertainty k = 0.376989
        13        14        15        22     9      180.000000        0.575633         2    ;  uncertainty k = 0.355540
        13        14        15        22     9        0.000000        1.148062         3    ;  uncertainty k = 0.198879
        13        14        15        22     9      180.000000       -0.322936         4    ;  uncertainty k = 0.282819
        13        14        15        54     9        0.000000       -0.245811         1    ;  uncertainty k = 0.386688
        13        14        15        54     9      180.000000       -0.315546         2    ;  uncertainty k = 0.172061
        13        14        15        54     9        0.000000        0.086688         3    ;  uncertainty k = 0.150677
        13        14        15        54     9      180.000000       -0.119145         4    ;  uncertainty k = 0.084487
        13        14        33        32     9        0.000000       -1.766780         1    ;  uncertainty k = 0.973514
        13        14        33        32     9      180.000000       -0.718703         2    ;  uncertainty k = 0.145826
        13        14        33        32     9        0.000000        0.620918         3    ;  uncertainty k = 0.188101
        13        14        33        32     9      180.000000       -0.232127         4    ;  uncertainty k = 0.132638
        13        14        33        34     9        0.000000       -1.597476         1    ;  uncertainty k = 0.895505
        13        14        33        34     9      180.000000       -1.463037         2    ;  uncertainty k = 0.974311
        13        14        33        34     9        0.000000        0.895087         3    ;  uncertainty k = 0.269784
        13        14        33        34     9      180.000000       -0.031598         4    ;  uncertainty k = 0.250749
        13        14        33        64     9        0.000000        0.363062         1    ;  uncertainty k = 0.565972
        13        14        33        64     9      180.000000       -0.520923         2    ;  uncertainty k = 0.414610
        13        14        33        64     9        0.000000       -0.168774         3    ;  uncertainty k = 0.117464
        13        14        33        64     9      180.000000       -0.047661         4    ;  uncertainty k = 0.135136
        14        13        12        49     9        0.000000       -0.789552         1    ;  uncertainty k = 0.235030
        14        13        12        49     9      180.000000       -0.691688         2    ;  uncertainty k = 0.213781
        14        13        12        49     9        0.000000        0.412213         3    ;  uncertainty k = 0.128820
        14        13        12        49     9      180.000000       -0.048910         4    ;  uncertainty k = 0.116103
        14        13        12        50     9        0.000000       -0.789552         1    ;  uncertainty k = 0.235030
        14        13        12        50     9      180.000000       -0.691688         2    ;  uncertainty k = 0.213781
        14        13        12        50     9        0.000000        0.412213         3    ;  uncertainty k = 0.128820
        14        13        12        50     9      180.000000       -0.048910         4    ;  uncertainty k = 0.116103
        14        15        16        17     9        0.000000       -0.128230         1    ;  uncertainty k = 0.712209
        14        15        16        17     9      180.000000        1.832448         2    ;  uncertainty k = 0.216281
        14        15        16        17     9        0.000000        0.279323         3    ;  uncertainty k = 0.140015
        14        15        16        17     9      180.000000        0.244071         4    ;  uncertainty k = 0.076874
        14        15        16        21     9        0.000000       -0.128230         1    ;  uncertainty k = 0.712209
        14        15        16        21     9      180.000000        1.832448         2    ;  uncertainty k = 0.216281
        14        15        16        21     9        0.000000        0.279323         3    ;  uncertainty k = 0.140015
        14        15        16        21     9      180.000000        0.244071         4    ;  uncertainty k = 0.076874
        14        15        22        23     9        0.000000        0.719691         1    ;  uncertainty k = 1.244019
        14        15        22        23     9      180.000000        0.209000         2    ;  uncertainty k = 0.601735
        14        15        22        23     9        0.000000        0.378516         3    ;  uncertainty k = 0.264051
        14        15        22        23     9      180.000000        0.142878         4    ;  uncertainty k = 0.153976
        14        15        22        60     9        0.000000        3.620497         1    ;  uncertainty k = 0.960162
        14        15        22        60     9      180.000000       -1.866274         2    ;  uncertainty k = 1.297278
        14        15        22        60     9        0.000000        0.466328         3    ;  uncertainty k = 0.292683
        14        15        22        60     9      180.000000       -0.015212         4    ;  uncertainty k = 0.082183
        14        33        32        23     9        0.000000        0.242411         1    ;  uncertainty k = 2.397408
        14        33        32        23     9      180.000000       -0.318794         2    ;  uncertainty k = 1.365944
        14        33        32        23     9        0.000000        0.084198         3    ;  uncertainty k = 0.707003
        14        33        32        23     9      180.000000        0.713415         4    ;  uncertainty k = 0.239937
        14        33        32        31     9        0.000000       -1.545739         1    ;  uncertainty k = 0.808283
        14        33        32        31     9      180.000000       -0.098598         2    ;  uncertainty k = 0.594677
        14        33        32        31     9        0.000000       -0.228474         3    ;  uncertainty k = 0.118070
        14        33        32        31     9      180.000000        0.425604         4    ;  uncertainty k = 0.113282
        15        14        13        51     9        0.000000        0.094101         1    ;  uncertainty k = 0.301635
        15        14        13        51     9      180.000000       -0.638646         2    ;  uncertainty k = 0.223261
        15        14        13        51     9        0.000000        0.477645         3    ;  uncertainty k = 0.098813
        15        14        13        51     9      180.000000       -0.051282         4    ;  uncertainty k = 0.102093
        15        14        13        52     9        0.000000        0.094101         1    ;  uncertainty k = 0.301635
        15        14        13        52     9      180.000000       -0.638646         2    ;  uncertainty k = 0.223261
        15        14        13        52     9        0.000000        0.477645         3    ;  uncertainty k = 0.098813
        15        14        13        52     9      180.000000       -0.051282         4    ;  uncertainty k = 0.102093
        15        14        33        32     9        0.000000        1.020906         1    ;  uncertainty k = 1.287078
        15        14        33        32     9      180.000000       -2.127650         2    ;  uncertainty k = 0.312599
        15        14        33        32     9        0.000000        0.266223         3    ;  uncertainty k = 0.283237
        15        14        33        32     9      180.000000       -0.130172         4    ;  uncertainty k = 0.142538
        15        14        33        34     9        0.000000       -1.055810         1    ;  uncertainty k = 1.608217
        15        14        33        34     9      180.000000       -3.328518         2    ;  uncertainty k = 1.575305
        15        14        33        34     9        0.000000        0.629326         3    ;  uncertainty k = 0.265986
        15        14        33        34     9      180.000000        0.113381         4    ;  uncertainty k = 0.328890
        15        14        33        64     9        0.000000        0.827756         1    ;  uncertainty k = 0.782493
        15        14        33        64     9      180.000000       -1.073944         2    ;  uncertainty k = 0.477123
        15        14        33        64     9        0.000000       -0.239465         3    ;  uncertainty k = 0.093000
        15        14        33        64     9      180.000000        0.001971         4    ;  uncertainty k = 0.193082
        15        16        17        18     9        0.000000        0.312413         1    ;  uncertainty k = 0.242921
        15        16        17        18     9      180.000000        8.638336         2    ;  uncertainty k = 0.468597
        15        16        17        18     9        0.000000        1.448800         3    ;  uncertainty k = 0.340804
        15        16        17        18     9      180.000000        1.905016         4    ;  uncertainty k = 0.200485
        15        16        17        55     9        0.000000        0.035754         1    ;  uncertainty k = 0.305799
        15        16        17        55     9      180.000000        7.827037         2    ;  uncertainty k = 0.268348
        15        16        17        55     9        0.000000        0.557555         3    ;  uncertainty k = 0.370059
        15        16        17        55     9      180.000000        0.865304         4    ;  uncertainty k = 0.172707
        15        16        21        20     9        0.000000        0.312413         1    ;  uncertainty k = 0.242921
        15        16        21        20     9      180.000000        8.638336         2    ;  uncertainty k = 0.468597
        15        16        21        20     9        0.000000        1.448800         3    ;  uncertainty k = 0.340804
        15        16        21        20     9      180.000000        1.905016         4    ;  uncertainty k = 0.200485
        15        16        21        59     9        0.000000        0.035754         1    ;  uncertainty k = 0.305799
        15        16        21        59     9      180.000000        7.827037         2    ;  uncertainty k = 0.268348
        15        16        21        59     9        0.000000        0.557555         3    ;  uncertainty k = 0.370059
        15        16        21        59     9      180.000000        0.865304         4    ;  uncertainty k = 0.172707
        15        22        23        24     9        0.000000        0.472911         1    ;  uncertainty k = 0.815219
        15        22        23        24     9      180.000000        4.888524         2    ;  uncertainty k = 0.752070
        15        22        23        24     9        0.000000        0.397595         3    ;  uncertainty k = 0.545066
        15        22        23        24     9      180.000000        0.383807         4    ;  uncertainty k = 0.280593
        15        22        23        32     9        0.000000        4.144111         1    ;  uncertainty k = 2.103608
        15        22        23        32     9      180.000000        2.453509         2    ;  uncertainty k = 0.610742
        15        22        23        32     9        0.000000        0.023719         3    ;  uncertainty k = 0.473401
        15        22        23        32     9      180.000000        0.682039         4    ;  uncertainty k = 0.226903
        16        15        14        33     9        0.000000       -0.717354         1    ;  uncertainty k = 0.748357
        16        15        14        33     9      180.000000       -0.367660         2    ;  uncertainty k = 0.370216
        16        15        14        33     9        0.000000        0.397290         3    ;  uncertainty k = 0.216596
        16        15        14        33     9      180.000000       -0.018207         4    ;  uncertainty k = 0.136272
        16        15        14        53     9        0.000000        0.530296         1    ;  uncertainty k = 0.246709
        16        15        14        53     9      180.000000        0.121251         2    ;  uncertainty k = 0.617133
        16        15        14        53     9        0.000000        0.451811         3    ;  uncertainty k = 0.081496
        16        15        14        53     9      180.000000       -0.031873         4    ;  uncertainty k = 0.108858
        16        15        22        23     9        0.000000       -1.240811         1    ;  uncertainty k = 0.913861
        16        15        22        23     9      180.000000        0.100980         2    ;  uncertainty k = 0.285956
        16        15        22        23     9        0.000000        1.048824         3    ;  uncertainty k = 0.262246
        16        15        22        23     9      180.000000        0.199554         4    ;  uncertainty k = 0.098576
        16        15        22        60     9        0.000000        4.878357         1    ;  uncertainty k = 0.569248
        16        15        22        60     9      180.000000       -1.058871         2    ;  uncertainty k = 0.283860
        16        15        22        60     9        0.000000        0.413857         3    ;  uncertainty k = 0.297007
        16        15        22        60     9      180.000000       -0.032689         4    ;  uncertainty k = 0.182555
        16        17        18        19     9        0.000000       -0.073185         1    ;  uncertainty k = 0.135861
        16        17        18        19     9      180.000000       13.840581         2    ;  uncertainty k = 0.218469
        16        17        18        19     9        0.000000       -0.942123         3    ;  uncertainty k = 0.500158
        16        17        18        19     9      180.000000        0.720226         4    ;  uncertainty k = 0.249573
        16        17        18        56     9        0.000000        0.078938         1    ;  uncertainty k = 0.238409
        16        17        18        56     9      180.000000        7.523903         2    ;  uncertainty k = 0.411010
        16        17        18        56     9        0.000000        1.486223         3    ;  uncertainty k = 0.266909
        16        17        18        56     9      180.000000        1.791253         4    ;  uncertainty k = 0.130361
        16        21        20        19     9        0.000000       -0.073185         1    ;  uncertainty k = 0.135861
        16        21        20        19     9      180.000000       13.840581         2    ;  uncertainty k = 0.218469
        16        21        20        19     9        0.000000       -0.942123         3    ;  uncertainty k = 0.500158
        16        21        20        19     9      180.000000        0.720226         4    ;  uncertainty k = 0.249573
        16        21        20        58     9        0.000000        0.078938         1    ;  uncertainty k = 0.238409
        16        21        20        58     9      180.000000        7.523903         2    ;  uncertainty k = 0.411010
        16        21        20        58     9        0.000000        1.486223         3    ;  uncertainty k = 0.266909
        16        21        20        58     9      180.000000        1.791253         4    ;  uncertainty k = 0.130361
        17        16        15        22     9        0.000000       -0.590756         1    ;  uncertainty k = 0.525590
        17        16        15        22     9      180.000000        2.732820         2    ;  uncertainty k = 0.257489
        17        16        15        22     9        0.000000        0.629229         3    ;  uncertainty k = 0.228491
        17        16        15        22     9      180.000000        0.435377         4    ;  uncertainty k = 0.023802
        17        16        15        54     9        0.000000       -0.618195         1    ;  uncertainty k = 0.243533
        17        16        15        54     9      180.000000        2.285546         2    ;  uncertainty k = 0.337301
        17        16        15        54     9        0.000000        0.482603         3    ;  uncertainty k = 0.112818
        17        16        15        54     9      180.000000        0.236140         4    ;  uncertainty k = 0.049741
        17        16        21        20     9        0.000000       -0.244750         1    ;  uncertainty k = 0.085029
        17        16        21        20     9      180.000000       11.550237         2    ;  uncertainty k = 0.281781
        17        16        21        20     9        0.000000       -0.471965         3    ;  uncertainty k = 0.307308
        17        16        21        20     9      180.000000        0.819629         4    ;  uncertainty k = 0.339588
        17        16        21        59     9        0.000000        0.103785         1    ;  uncertainty k = 0.115164
        17        16        21        59     9      180.000000        7.232563         2    ;  uncertainty k = 0.479326
        17        16        21        59     9        0.000000        1.441610         3    ;  uncertainty k = 0.358040
        17        16        21        59     9      180.000000        1.626932         4    ;  uncertainty k = 0.180626
        17        18        19        20     9        0.000000        0.003336         1    ;  uncertainty k = 0.036527
        17        18        19        20     9      180.000000       15.061872         2    ;  uncertainty k = 0.266782
        17        18        19        20     9        0.000000       -1.241530         3    ;  uncertainty k = 0.510934
        17        18        19        20     9      180.000000        0.486540         4    ;  uncertainty k = 0.300058
        17        18        19        57     9        0.000000        0.055741         1    ;  uncertainty k = 0.094832
        17        18        19        57     9      180.000000        7.490470         2    ;  uncertainty k = 0.333391
        17        18        19        57     9        0.000000        1.467122         3    ;  uncertainty k = 0.292764
        17        18        19        57     9      180.000000        1.797081         4    ;  uncertainty k = 0.179699
        18        17        16        21     9        0.000000       -0.244750         1    ;  uncertainty k = 0.085029
        18        17        16        21     9      180.000000       11.550237         2    ;  uncertainty k = 0.281781
        18        17        16        21     9        0.000000       -0.471965         3    ;  uncertainty k = 0.307308
        18        17        16        21     9      180.000000        0.819629         4    ;  uncertainty k = 0.339588
        18        19        20        21     9        0.000000        0.003336         1    ;  uncertainty k = 0.036527
        18        19        20        21     9      180.000000       15.061872         2    ;  uncertainty k = 0.266782
        18        19        20        21     9        0.000000       -1.241530         3    ;  uncertainty k = 0.510934
        18        19        20        21     9      180.000000        0.486540         4    ;  uncertainty k = 0.300058
        18        19        20        58     9        0.000000        0.045944         1    ;  uncertainty k = 0.040455
        18        19        20        58     9      180.000000        7.527538         2    ;  uncertainty k = 0.325492
        18        19        20        58     9        0.000000        1.433628         3    ;  uncertainty k = 0.327115
        18        19        20        58     9      180.000000        1.790207         4    ;  uncertainty k = 0.158460
        19        18        17        55     9        0.000000        0.053110         1    ;  uncertainty k = 0.076538
        19        18        17        55     9      180.000000        7.946076         2    ;  uncertainty k = 0.338882
        19        18        17        55     9        0.000000        1.427769         3    ;  uncertainty k = 0.326160
        19        18        17        55     9      180.000000        1.836126         4    ;  uncertainty k = 0.159402
        19        20        21        59     9        0.000000        0.053110         1    ;  uncertainty k = 0.076538
        19        20        21        59     9      180.000000        7.946076         2    ;  uncertainty k = 0.338882
        19        20        21        59     9        0.000000        1.427769         3    ;  uncertainty k = 0.326160
        19        20        21        59     9      180.000000        1.836126         4    ;  uncertainty k = 0.159402
        20        19        18        56     9        0.000000        0.045944         1    ;  uncertainty k = 0.040455
        20        19        18        56     9      180.000000        7.527538         2    ;  uncertainty k = 0.325492
        20        19        18        56     9        0.000000        1.433628         3    ;  uncertainty k = 0.327115
        20        19        18        56     9      180.000000        1.790207         4    ;  uncertainty k = 0.158460
        21        16        15        22     9        0.000000       -0.590756         1    ;  uncertainty k = 0.525590
        21        16        15        22     9      180.000000        2.732820         2    ;  uncertainty k = 0.257489
        21        16        15        22     9        0.000000        0.629229         3    ;  uncertainty k = 0.228491
        21        16        15        22     9      180.000000        0.435377         4    ;  uncertainty k = 0.023802
        21        16        15        54     9        0.000000       -0.618195         1    ;  uncertainty k = 0.243533
        21        16        15        54     9      180.000000        2.285546         2    ;  uncertainty k = 0.337301
        21        16        15        54     9        0.000000        0.482603         3    ;  uncertainty k = 0.112818
        21        16        15        54     9      180.000000        0.236140         4    ;  uncertainty k = 0.049741
        21        16        17        55     9        0.000000        0.103785         1    ;  uncertainty k = 0.115164
        21        16        17        55     9      180.000000        7.232563         2    ;  uncertainty k = 0.479326
        21        16        17        55     9        0.000000        1.441610         3    ;  uncertainty k = 0.358040
        21        16        17        55     9      180.000000        1.626932         4    ;  uncertainty k = 0.180626
        21        20        19        57     9        0.000000        0.055741         1    ;  uncertainty k = 0.094832
        21        20        19        57     9      180.000000        7.490470         2    ;  uncertainty k = 0.333391
        21        20        19        57     9        0.000000        1.467122         3    ;  uncertainty k = 0.292764
        21        20        19        57     9      180.000000        1.797081         4    ;  uncertainty k = 0.179699
        22        15        14        33     9        0.000000       -0.007594         1    ;  uncertainty k = 2.197311
        22        15        14        33     9      180.000000       -1.143082         2    ;  uncertainty k = 0.276445
        22        15        14        33     9        0.000000        0.537168         3    ;  uncertainty k = 0.459074
        22        15        14        33     9      180.000000       -0.178266         4    ;  uncertainty k = 0.357380
        22        15        14        53     9        0.000000       -0.947833         1    ;  uncertainty k = 0.627969
        22        15        14        53     9      180.000000        0.170574         2    ;  uncertainty k = 0.410475
        22        15        14        53     9        0.000000        0.627907         3    ;  uncertainty k = 0.278857
        22        15        14        53     9      180.000000        0.059564         4    ;  uncertainty k = 0.093137
        22        23        24        25     9        0.000000        0.231429         1    ;  uncertainty k = 0.389795
        22        23        24        25     9      180.000000       10.238476         2    ;  uncertainty k = 0.466629
        22        23        24        25     9        0.000000        1.246350         3    ;  uncertainty k = 0.222856
        22        23        24        25     9      180.000000        1.655065         4    ;  uncertainty k = 0.267772
        22        23        24        61     9        0.000000       -0.252322         1    ;  uncertainty k = 0.534722
        22        23        24        61     9      180.000000        8.173632         2    ;  uncertainty k = 0.357488
        22        23        24        61     9        0.000000        1.005199         3    ;  uncertainty k = 0.139230
        22        23        24        61     9      180.000000        1.186392         4    ;  uncertainty k = 0.335076
        22        23        32        31     9        0.000000        0.514706         1    ;  uncertainty k = 0.664255
        22        23        32        31     9      180.000000        7.605363         2    ;  uncertainty k = 0.362138
        22        23        32        31     9        0.000000        0.991340         3    ;  uncertainty k = 0.193914
        22        23        32        31     9      180.000000        1.359285         4    ;  uncertainty k = 0.393670
        22        23        32        33     9        0.000000        0.052004         1    ;  uncertainty k = 0.599855
        22        23        32        33     9      180.000000        7.581846         2    ;  uncertainty k = 1.015596
        22        23        32        33     9        0.000000        0.683693         3    ;  uncertainty k = 0.579944
        22        23        32        33     9      180.000000        1.194810         4    ;  uncertainty k = 0.485141
        23        22        15        54     9        0.000000       -0.859913         1    ;  uncertainty k = 0.376971
        23        22        15        54     9      180.000000       -0.534873         2    ;  uncertainty k = 0.442169
        23        22        15        54     9        0.000000        0.715681         3    ;  uncertainty k = 0.162008
        23        22        15        54     9      180.000000        0.204030         4    ;  uncertainty k = 0.096027
        23        24        25        26     9        0.000000       -0.182689         1    ;  uncertainty k = 0.192397
        23        24        25        26     9      180.000000       13.581553         2    ;  uncertainty k = 0.317227
        23        24        25        26     9        0.000000       -0.529046         3    ;  uncertainty k = 0.592314
        23        24        25        26     9      180.000000        0.815071         4    ;  uncertainty k = 0.353192
        23        24        25        62     9        0.000000        0.317053         1    ;  uncertainty k = 0.513036
        23        24        25        62     9      180.000000        9.069730         2    ;  uncertainty k = 0.572383
        23        24        25        62     9        0.000000        1.256166         3    ;  uncertainty k = 0.254022
        23        24        25        62     9      180.000000        1.555766         4    ;  uncertainty k = 0.257996
        23        32        31        26     9        0.000000       -0.267304         1    ;  uncertainty k = 0.412366
        23        32        31        26     9      180.000000       11.752076         2    ;  uncertainty k = 0.425099
        23        32        31        26     9        0.000000       -0.315775         3    ;  uncertainty k = 0.520190
        23        32        31        26     9      180.000000        0.915764         4    ;  uncertainty k = 0.515936
        23        32        31        63     9        0.000000        0.324811         1    ;  uncertainty k = 0.368050
        23        32        31        63     9      180.000000        8.288329         2    ;  uncertainty k = 0.526603
        23        32        31        63     9        0.000000        1.376752         3    ;  uncertainty k = 0.326266
        23        32        31        63     9      180.000000        1.578090         4    ;  uncertainty k = 0.187003
        23        32        33        34     9        0.000000       -2.580743         1    ;  uncertainty k = 2.728079
        23        32        33        34     9      180.000000        0.502449         2    ;  uncertainty k = 1.155667
        23        32        33        34     9        0.000000        1.521884         3    ;  uncertainty k = 0.325628
        23        32        33        34     9      180.000000       -0.020565         4    ;  uncertainty k = 0.177459
        23        32        33        64     9        0.000000       -0.390474         1    ;  uncertainty k = 0.832622
        23        32        33        64     9      180.000000        2.111781         2    ;  uncertainty k = 0.240300
        23        32        33        64     9        0.000000        0.472394         3    ;  uncertainty k = 0.238680
        23        32        33        64     9      180.000000       -0.194062         4    ;  uncertainty k = 0.147186
        24        23        22        60     9        0.000000        1.644529         1    ;  uncertainty k = 0.671485
        24        23        22        60     9      180.000000        5.648101         2    ;  uncertainty k = 0.263410
        24        23        22        60     9        0.000000        0.887669         3    ;  uncertainty k = 0.335481
        24        23        22        60     9      180.000000       -0.022901         4    ;  uncertainty k = 0.180172
        24        23        32        31     9        0.000000        0.317715         1    ;  uncertainty k = 0.350190
        24        23        32        31     9      180.000000        5.948735         2    ;  uncertainty k = 0.533572
        24        23        32        31     9        0.000000        0.392054         3    ;  uncertainty k = 0.350698
        24        23        32        31     9      180.000000        1.333497         4    ;  uncertainty k = 0.239548
        24        23        32        33     9        0.000000        0.610301         1    ;  uncertainty k = 0.604383
        24        23        32        33     9      180.000000        5.675482         2    ;  uncertainty k = 0.460551
        24        23        32        33     9        0.000000        1.309673         3    ;  uncertainty k = 0.239002
        24        23        32        33     9      180.000000        1.601892         4    ;  uncertainty k = 0.271408
        24        25        26        27     9        0.000000        0.110284         1    ;  uncertainty k = 0.167157
        24        25        26        27     9      180.000000        9.822616         2    ;  uncertainty k = 0.704573
        24        25        26        27     9        0.000000        1.387104         3    ;  uncertainty k = 0.349698
        24        25        26        27     9      180.000000        1.947235         4    ;  uncertainty k = 0.332595
        24        25        26        31     9        0.000000       -0.034672         1    ;  uncertainty k = 0.203903
        24        25        26        31     9      180.000000       12.012213         2    ;  uncertainty k = 0.382685
        24        25        26        31     9        0.000000       -0.709598         3    ;  uncertainty k = 0.306768
        24        25        26        31     9      180.000000        0.893584         4    ;  uncertainty k = 0.295329
        25        24        23        32     9        0.000000        0.306570         1    ;  uncertainty k = 0.425942
        25        24        23        32     9      180.000000        7.300329         2    ;  uncertainty k = 0.363062
        25        24        23        32     9        0.000000        0.474891         3    ;  uncertainty k = 0.421537
        25        24        23        32     9      180.000000        1.413924         4    ;  uncertainty k = 0.213424
        25        26        27        28     9        0.000000       -0.682420         1    ;  uncertainty k = 0.249405
        25        26        27        28     9      180.000000        2.604905         2    ;  uncertainty k = 0.094363
        25        26        27        28     9        0.000000        0.754799         3    ;  uncertainty k = 0.077531
        25        26        27        28     9      180.000000        0.158520         4    ;  uncertainty k = 0.059056
        25        26        27        29     9        0.000000       -0.682420         1    ;  uncertainty k = 0.249405
        25        26        27        29     9      180.000000        2.604905         2    ;  uncertainty k = 0.094363
        25        26        27        29     9        0.000000        0.754799         3    ;  uncertainty k = 0.077531
        25        26        27        29     9      180.000000        0.158520         4    ;  uncertainty k = 0.059056
        25        26        27        30     9        0.000000       -0.682420         1    ;  uncertainty k = 0.249405
        25        26        27        30     9      180.000000        2.604905         2    ;  uncertainty k = 0.094363
        25        26        27        30     9        0.000000        0.754799         3    ;  uncertainty k = 0.077531
        25        26        27        30     9      180.000000        0.158520         4    ;  uncertainty k = 0.059056
        25        26        31        32     9        0.000000        0.036149         1    ;  uncertainty k = 0.285337
        25        26        31        32     9      180.000000       11.001544         2    ;  uncertainty k = 0.517109
        25        26        31        32     9        0.000000       -0.397288         3    ;  uncertainty k = 0.757389
        25        26        31        32     9      180.000000        1.041673         4    ;  uncertainty k = 0.528914
        25        26        31        63     9        0.000000        0.167489         1    ;  uncertainty k = 0.232761
        25        26        31        63     9      180.000000        7.759392         2    ;  uncertainty k = 0.302342
        25        26        31        63     9        0.000000        1.300806         3    ;  uncertainty k = 0.409955
        25        26        31        63     9      180.000000        1.640924         4    ;  uncertainty k = 0.190721
        26        25        24        61     9        0.000000        0.175559         1    ;  uncertainty k = 0.194210
        26        25        24        61     9      180.000000        8.463923         2    ;  uncertainty k = 0.413468
        26        25        24        61     9        0.000000        1.526974         3    ;  uncertainty k = 0.227748
        26        25        24        61     9      180.000000        1.855719         4    ;  uncertainty k = 0.242608
        26        31        32        33     9        0.000000       -0.052406         1    ;  uncertainty k = 0.525899
        26        31        32        33     9      180.000000       10.535435         2    ;  uncertainty k = 0.438629
        26        31        32        33     9        0.000000        1.345859         3    ;  uncertainty k = 0.153632
        26        31        32        33     9      180.000000        1.746173         4    ;  uncertainty k = 0.503262
        27        26        25        62     9        0.000000       -0.108566         1    ;  uncertainty k = 0.468395
        27        26        25        62     9      180.000000        8.611636         2    ;  uncertainty k = 0.510216
        27        26        25        62     9        0.000000        0.670475         3    ;  uncertainty k = 0.276177
        27        26        25        62     9      180.000000        1.004020         4    ;  uncertainty k = 0.160388
        27        26        31        32     9        0.000000        0.184112         1    ;  uncertainty k = 0.430341
        27        26        31        32     9      180.000000       10.236153         2    ;  uncertainty k = 0.564350
        27        26        31        32     9        0.000000        1.596328         3    ;  uncertainty k = 0.294702
        27        26        31        32     9      180.000000        1.951289         4    ;  uncertainty k = 0.285583
        27        26        31        63     9        0.000000        0.104723         1    ;  uncertainty k = 0.367022
        27        26        31        63     9      180.000000        8.817674         2    ;  uncertainty k = 0.477947
        27        26        31        63     9        0.000000        0.711159         3    ;  uncertainty k = 0.170461
        27        26        31        63     9      180.000000        1.070202         4    ;  uncertainty k = 0.164773
        28        27        26        31     9        0.000000       -0.574436         1    ;  uncertainty k = 0.288119
        28        27        26        31     9      180.000000        2.562506         2    ;  uncertainty k = 0.201571
        28        27        26        31     9        0.000000        0.701170         3    ;  uncertainty k = 0.104983
        28        27        26        31     9      180.000000        0.155920         4    ;  uncertainty k = 0.065716
        29        27        26        31     9        0.000000       -0.574436         1    ;  uncertainty k = 0.288119
        29        27        26        31     9      180.000000        2.562506         2    ;  uncertainty k = 0.201571
        29        27        26        31     9        0.000000        0.701170         3    ;  uncertainty k = 0.104983
        29        27        26        31     9      180.000000        0.155920         4    ;  uncertainty k = 0.065716
        30        27        26        31     9        0.000000       -0.574436         1    ;  uncertainty k = 0.288119
        30        27        26        31     9      180.000000        2.562506         2    ;  uncertainty k = 0.201571
        30        27        26        31     9        0.000000        0.701170         3    ;  uncertainty k = 0.104983
        30        27        26        31     9      180.000000        0.155920         4    ;  uncertainty k = 0.065716
        31        26        25        62     9        0.000000        0.213863         1    ;  uncertainty k = 0.199739
        31        26        25        62     9      180.000000        7.175611         2    ;  uncertainty k = 0.543777
        31        26        25        62     9        0.000000        1.246727         3    ;  uncertainty k = 0.361361
        31        26        25        62     9      180.000000        1.612477         4    ;  uncertainty k = 0.317210
        31        32        33        34     9        0.000000        0.054933         1    ;  uncertainty k = 0.538481
        31        32        33        34     9      180.000000        1.515124         2    ;  uncertainty k = 0.655023
        31        32        33        34     9        0.000000       -0.286982         3    ;  uncertainty k = 0.358624
        31        32        33        34     9      180.000000        0.140251         4    ;  uncertainty k = 0.131040
        31        32        33        64     9        0.000000        0.534070         1    ;  uncertainty k = 0.956167
        31        32        33        64     9      180.000000        1.860060         2    ;  uncertainty k = 0.352982
        31        32        33        64     9        0.000000        0.077794         3    ;  uncertainty k = 0.149453
        31        32        33        64     9      180.000000        0.005636         4    ;  uncertainty k = 0.143229
        32        23        22        60     9        0.000000       11.680210         1    ;  uncertainty k = 0.714263
        32        23        22        60     9      180.000000        5.639670         2    ;  uncertainty k = 0.496849
        32        23        22        60     9        0.000000        0.337104         3    ;  uncertainty k = 0.311468
        32        23        22        60     9      180.000000        0.199068         4    ;  uncertainty k = 0.154313
        32        23        24        61     9        0.000000        0.270042         1    ;  uncertainty k = 0.888279
        32        23        24        61     9      180.000000        6.341358         2    ;  uncertainty k = 0.647731
        32        23        24        61     9        0.000000        1.346205         3    ;  uncertainty k = 0.254113
        32        23        24        61     9      180.000000        1.274156         4    ;  uncertainty k = 0.236801
        32        33        14        53     9        0.000000       -0.495261         1    ;  uncertainty k = 0.912545
        32        33        14        53     9      180.000000        0.758394         2    ;  uncertainty k = 0.524829
        32        33        14        53     9        0.000000       -0.006710         3    ;  uncertainty k = 0.120103
        32        33        14        53     9      180.000000       -0.064125         4    ;  uncertainty k = 0.105449
        33        14        13        51     9        0.000000       -0.375195         1    ;  uncertainty k = 0.393019
        33        14        13        51     9      180.000000       -0.656805         2    ;  uncertainty k = 0.132762
        33        14        13        51     9        0.000000        0.281688         3    ;  uncertainty k = 0.117471
        33        14        13        51     9      180.000000       -0.009048         4    ;  uncertainty k = 0.054184
        33        14        13        52     9        0.000000       -0.375195         1    ;  uncertainty k = 0.393019
        33        14        13        52     9      180.000000       -0.656805         2    ;  uncertainty k = 0.132762
        33        14        13        52     9        0.000000        0.281688         3    ;  uncertainty k = 0.117471
        33        14        13        52     9      180.000000       -0.009048         4    ;  uncertainty k = 0.054184
        33        14        15        54     9        0.000000        0.737392         1    ;  uncertainty k = 0.719923
        33        14        15        54     9      180.000000       -1.388403         2    ;  uncertainty k = 0.748966
        33        14        15        54     9        0.000000       -0.423795         3    ;  uncertainty k = 0.141734
        33        14        15        54     9      180.000000        0.029718         4    ;  uncertainty k = 0.147484
        33        32        31        63     9        0.000000       -0.276769         1    ;  uncertainty k = 0.530614
        33        32        31        63     9      180.000000        8.412442         2    ;  uncertainty k = 0.745644
        33        32        31        63     9        0.000000        0.824115         3    ;  uncertainty k = 0.310579
        33        32        31        63     9      180.000000        1.104340         4    ;  uncertainty k = 0.412602
        33        34        11        48     9        0.000000       -2.044441         1    ;  uncertainty k = 1.234650
        33        34        11        48     9      180.000000       -0.697382         2    ;  uncertainty k = 0.342744
        33        34        11        48     9        0.000000        0.132124         3    ;  uncertainty k = 0.089698
        33        34        11        48     9      180.000000       -0.062594         4    ;  uncertainty k = 0.129556
        34        11        10        46     9        0.000000        0.302734         1    ;  uncertainty k = 0.342032
        34        11        10        46     9      180.000000       -1.258480         2    ;  uncertainty k = 0.205284
        34        11        10        46     9        0.000000        0.321915         3    ;  uncertainty k = 0.147770
        34        11        10        46     9      180.000000       -0.043043         4    ;  uncertainty k = 0.100997
        34        11        10        47     9        0.000000        0.302734         1    ;  uncertainty k = 0.342032
        34        11        10        47     9      180.000000       -1.258480         2    ;  uncertainty k = 0.205284
        34        11        10        47     9        0.000000        0.321915         3    ;  uncertainty k = 0.147770
        34        11        10        47     9      180.000000       -0.043043         4    ;  uncertainty k = 0.100997
        34        11        12        49     9        0.000000       -1.259015         1    ;  uncertainty k = 0.343405
        34        11        12        49     9      180.000000       -1.050103         2    ;  uncertainty k = 0.093056
        34        11        12        49     9        0.000000        0.864692         3    ;  uncertainty k = 0.160741
        34        11        12        49     9      180.000000       -0.136904         4    ;  uncertainty k = 0.094857
        34        11        12        50     9        0.000000       -1.259015         1    ;  uncertainty k = 0.343405
        34        11        12        50     9      180.000000       -1.050103         2    ;  uncertainty k = 0.093056
        34        11        12        50     9        0.000000        0.864692         3    ;  uncertainty k = 0.160741
        34        11        12        50     9      180.000000       -0.136904         4    ;  uncertainty k = 0.094857
        34        33        14        53     9        0.000000       -0.645216         1    ;  uncertainty k = 0.299701
        34        33        14        53     9      180.000000        0.602671         2    ;  uncertainty k = 0.506004
        34        33        14        53     9        0.000000        0.085887         3    ;  uncertainty k = 0.296122
        34        33        14        53     9      180.000000       -0.145951         4    ;  uncertainty k = 0.127878
        35         1         2        65     9        0.000000        0.055303         1    ;  uncertainty k = 0.515940
        35         1         2        65     9      180.000000       -0.558455         2    ;  uncertainty k = 0.412430
        35         1         2        65     9        0.000000        0.380229         3    ;  uncertainty k = 0.058335
        35         1         2        65     9      180.000000        0.075983         4    ;  uncertainty k = 0.107482
        36         1         2        65     9        0.000000        0.055303         1    ;  uncertainty k = 0.515940
        36         1         2        65     9      180.000000       -0.558455         2    ;  uncertainty k = 0.412430
        36         1         2        65     9        0.000000        0.380229         3    ;  uncertainty k = 0.058335
        36         1         2        65     9      180.000000        0.075983         4    ;  uncertainty k = 0.107482
        37         1         2        65     9        0.000000        0.055303         1    ;  uncertainty k = 0.515940
        37         1         2        65     9      180.000000       -0.558455         2    ;  uncertainty k = 0.412430
        37         1         2        65     9        0.000000        0.380229         3    ;  uncertainty k = 0.058335
        37         1         2        65     9      180.000000        0.075983         4    ;  uncertainty k = 0.107482
        38         3         2        65     9        0.000000        0.055303         1    ;  uncertainty k = 0.515940
        38         3         2        65     9      180.000000       -0.558455         2    ;  uncertainty k = 0.412430
        38         3         2        65     9        0.000000        0.380229         3    ;  uncertainty k = 0.058335
        38         3         2        65     9      180.000000        0.075983         4    ;  uncertainty k = 0.107482
        39         3         2        65     9        0.000000        0.055303         1    ;  uncertainty k = 0.515940
        39         3         2        65     9      180.000000       -0.558455         2    ;  uncertainty k = 0.412430
        39         3         2        65     9        0.000000        0.380229         3    ;  uncertainty k = 0.058335
        39         3         2        65     9      180.000000        0.075983         4    ;  uncertainty k = 0.107482
        40         3         2        65     9        0.000000        0.055303         1    ;  uncertainty k = 0.515940
        40         3         2        65     9      180.000000       -0.558455         2    ;  uncertainty k = 0.412430
        40         3         2        65     9        0.000000        0.380229         3    ;  uncertainty k = 0.058335
        40         3         2        65     9      180.000000        0.075983         4    ;  uncertainty k = 0.107482
        41         4         2        65     9        0.000000        0.771405         1    ;  uncertainty k = 0.672467
        41         4         2        65     9      180.000000       -0.527451         2    ;  uncertainty k = 0.328594
        41         4         2        65     9        0.000000       -0.025147         3    ;  uncertainty k = 0.215743
        41         4         2        65     9      180.000000       -0.025149         4    ;  uncertainty k = 0.111759
        41         4         5        43     9        0.000000       -0.236854         1    ;  uncertainty k = 0.255144
        41         4         5        43     9      180.000000       -0.068763         2    ;  uncertainty k = 0.275473
        41         4         5        43     9        0.000000        0.331264         3    ;  uncertainty k = 0.110632
        41         4         5        43     9      180.000000        0.089957         4    ;  uncertainty k = 0.042219
        41         4         5        44     9        0.000000       -0.236854         1    ;  uncertainty k = 0.255144
        41         4         5        44     9      180.000000       -0.068763         2    ;  uncertainty k = 0.275473
        41         4         5        44     9        0.000000        0.331264         3    ;  uncertainty k = 0.110632
        41         4         5        44     9      180.000000        0.089957         4    ;  uncertainty k = 0.042219
        42         4         2        65     9        0.000000        0.771405         1    ;  uncertainty k = 0.672467
        42         4         2        65     9      180.000000       -0.527451         2    ;  uncertainty k = 0.328594
        42         4         2        65     9        0.000000       -0.025147         3    ;  uncertainty k = 0.215743
        42         4         2        65     9      180.000000       -0.025149         4    ;  uncertainty k = 0.111759
        42         4         5        43     9        0.000000       -0.236854         1    ;  uncertainty k = 0.255144
        42         4         5        43     9      180.000000       -0.068763         2    ;  uncertainty k = 0.275473
        42         4         5        43     9        0.000000        0.331264         3    ;  uncertainty k = 0.110632
        42         4         5        43     9      180.000000        0.089957         4    ;  uncertainty k = 0.042219
        42         4         5        44     9        0.000000       -0.236854         1    ;  uncertainty k = 0.255144
        42         4         5        44     9      180.000000       -0.068763         2    ;  uncertainty k = 0.275473
        42         4         5        44     9        0.000000        0.331264         3    ;  uncertainty k = 0.110632
        42         4         5        44     9      180.000000        0.089957         4    ;  uncertainty k = 0.042219
        45         9        10        46     9        0.000000        0.727777         1    ;  uncertainty k = 0.370554
        45         9        10        46     9      180.000000       -1.003530         2    ;  uncertainty k = 0.192276
        45         9        10        46     9        0.000000        0.300184         3    ;  uncertainty k = 0.076960
        45         9        10        46     9      180.000000        0.169725         4    ;  uncertainty k = 0.045450
        45         9        10        47     9        0.000000        0.727777         1    ;  uncertainty k = 0.370554
        45         9        10        47     9      180.000000       -1.003530         2    ;  uncertainty k = 0.192276
        45         9        10        47     9        0.000000        0.300184         3    ;  uncertainty k = 0.076960
        45         9        10        47     9      180.000000        0.169725         4    ;  uncertainty k = 0.045450
        46        10        11        48     9        0.000000        0.058202         1    ;  uncertainty k = 0.214842
        46        10        11        48     9      180.000000       -0.158805         2    ;  uncertainty k = 0.218349
        46        10        11        48     9        0.000000        0.076958         3    ;  uncertainty k = 0.050799
        46        10        11        48     9      180.000000       -0.073923         4    ;  uncertainty k = 0.089096
        47        10        11        48     9        0.000000        0.058202         1    ;  uncertainty k = 0.214842
        47        10        11        48     9      180.000000       -0.158805         2    ;  uncertainty k = 0.218349
        47        10        11        48     9        0.000000        0.076958         3    ;  uncertainty k = 0.050799
        47        10        11        48     9      180.000000       -0.073923         4    ;  uncertainty k = 0.089096
        48        11        12        49     9        0.000000        0.254134         1    ;  uncertainty k = 0.260234
        48        11        12        49     9      180.000000        0.170799         2    ;  uncertainty k = 0.392553
        48        11        12        49     9        0.000000       -0.048010         3    ;  uncertainty k = 0.080561
        48        11        12        49     9      180.000000       -0.202000         4    ;  uncertainty k = 0.104531
        48        11        12        50     9        0.000000        0.254134         1    ;  uncertainty k = 0.260234
        48        11        12        50     9      180.000000        0.170799         2    ;  uncertainty k = 0.392553
        48        11        12        50     9        0.000000       -0.048010         3    ;  uncertainty k = 0.080561
        48        11        12        50     9      180.000000       -0.202000         4    ;  uncertainty k = 0.104531
        49        12        13        51     9        0.000000        1.668534         1    ;  uncertainty k = 0.432976
        49        12        13        51     9      180.000000        0.114741         2    ;  uncertainty k = 0.247988
        49        12        13        51     9        0.000000        0.345276         3    ;  uncertainty k = 0.102093
        49        12        13        51     9      180.000000        0.074717         4    ;  uncertainty k = 0.026488
        49        12        13        52     9        0.000000        1.668534         1    ;  uncertainty k = 0.432976
        49        12        13        52     9      180.000000        0.114741         2    ;  uncertainty k = 0.247988
        49        12        13        52     9        0.000000        0.345276         3    ;  uncertainty k = 0.102093
        49        12        13        52     9      180.000000        0.074717         4    ;  uncertainty k = 0.026488
        50        12        13        51     9        0.000000        1.668534         1    ;  uncertainty k = 0.432976
        50        12        13        51     9      180.000000        0.114741         2    ;  uncertainty k = 0.247988
        50        12        13        51     9        0.000000        0.345276         3    ;  uncertainty k = 0.102093
        50        12        13        51     9      180.000000        0.074717         4    ;  uncertainty k = 0.026488
        50        12        13        52     9        0.000000        1.668534         1    ;  uncertainty k = 0.432976
        50        12        13        52     9      180.000000        0.114741         2    ;  uncertainty k = 0.247988
        50        12        13        52     9        0.000000        0.345276         3    ;  uncertainty k = 0.102093
        50        12        13        52     9      180.000000        0.074717         4    ;  uncertainty k = 0.026488
        51        13        14        53     9        0.000000        1.545255         1    ;  uncertainty k = 0.344376
        51        13        14        53     9      180.000000       -0.020692         2    ;  uncertainty k = 0.342601
        51        13        14        53     9        0.000000       -0.070632         3    ;  uncertainty k = 0.119714
        51        13        14        53     9      180.000000        0.013810         4    ;  uncertainty k = 0.071778
        52        13        14        53     9        0.000000        1.545255         1    ;  uncertainty k = 0.344376
        52        13        14        53     9      180.000000       -0.020692         2    ;  uncertainty k = 0.342601
        52        13        14        53     9        0.000000       -0.070632         3    ;  uncertainty k = 0.119714
        52        13        14        53     9      180.000000        0.013810         4    ;  uncertainty k = 0.071778
        53        14        15        54     9        0.000000        1.077534         1    ;  uncertainty k = 0.458223
        53        14        15        54     9      180.000000       -0.042492         2    ;  uncertainty k = 0.250347
        53        14        15        54     9        0.000000       -0.346964         3    ;  uncertainty k = 0.176981
        53        14        15        54     9      180.000000       -0.270511         4    ;  uncertainty k = 0.102482
        53        14        33        64     9        0.000000        2.052517         1    ;  uncertainty k = 0.492056
        53        14        33        64     9      180.000000        0.874633         2    ;  uncertainty k = 0.464313
        53        14        33        64     9        0.000000       -0.485357         3    ;  uncertainty k = 0.218178
        53        14        33        64     9      180.000000       -0.175318         4    ;  uncertainty k = 0.074235
        54        15        22        60     9        0.000000        0.468542         1    ;  uncertainty k = 0.563664
        54        15        22        60     9      180.000000       -0.983993         2    ;  uncertainty k = 0.285944
        54        15        22        60     9        0.000000        0.482175         3    ;  uncertainty k = 0.277173
        54        15        22        60     9      180.000000        0.028441         4    ;  uncertainty k = 0.127509
        55        17        18        56     9        0.000000       -0.038400         1    ;  uncertainty k = 0.034128
        55        17        18        56     9      180.000000        7.644156         2    ;  uncertainty k = 0.255449
        55        17        18        56     9        0.000000       -0.470076         3    ;  uncertainty k = 0.270053
        55        17        18        56     9      180.000000        0.106023         4    ;  uncertainty k = 0.117777
        56        18        19        57     9        0.000000       -0.016279         1    ;  uncertainty k = 0.090334
        56        18        19        57     9      180.000000        7.510682         2    ;  uncertainty k = 0.369436
        56        18        19        57     9        0.000000       -0.422665         3    ;  uncertainty k = 0.276612
        56        18        19        57     9      180.000000        0.041075         4    ;  uncertainty k = 0.155578
        57        19        20        58     9        0.000000       -0.016279         1    ;  uncertainty k = 0.090334
        57        19        20        58     9      180.000000        7.510682         2    ;  uncertainty k = 0.369436
        57        19        20        58     9        0.000000       -0.422665         3    ;  uncertainty k = 0.276612
        57        19        20        58     9      180.000000        0.041075         4    ;  uncertainty k = 0.155578
        58        20        21        59     9        0.000000       -0.038400         1    ;  uncertainty k = 0.034128
        58        20        21        59     9      180.000000        7.644156         2    ;  uncertainty k = 0.255449
        58        20        21        59     9        0.000000       -0.470076         3    ;  uncertainty k = 0.270053
        58        20        21        59     9      180.000000        0.106023         4    ;  uncertainty k = 0.117777
        61        24        25        62     9        0.000000        0.247012         1    ;  uncertainty k = 0.623701
        61        24        25        62     9      180.000000        7.829037         2    ;  uncertainty k = 0.394731
        61        24        25        62     9        0.000000       -0.335446         3    ;  uncertainty k = 0.271687
        61        24        25        62     9      180.000000        0.202601         4    ;  uncertainty k = 0.180743

[ dihedrals ] ; impropers
;       ai        aj        ak        al funct           phase               k        pn
         7         6         8         9     4      180.000000       59.224930         2    ;  uncertainty k = 0.046560
         7         8         9         6     4      180.000000       59.224930         2    ;  uncertainty k = 0.046560
         7         9         6         8     4      180.000000       59.224930         2    ;  uncertainty k = 0.046560
         9         7        10        45     4      180.000000        0.166852         2    ;  uncertainty k = 0.373092
         9        10        45         7     4      180.000000        0.166852         2    ;  uncertainty k = 0.373092
         9        45         7        10     4      180.000000        0.166852         2    ;  uncertainty k = 0.373092
        16        15        17        21     4      180.000000       12.903617         2    ;  uncertainty k = 0.121797
        16        17        21        15     4      180.000000       12.903617         2    ;  uncertainty k = 0.121797
        16        21        15        17     4      180.000000       12.903617         2    ;  uncertainty k = 0.121797
        17        16        18        55     4      180.000000        4.073199         2    ;  uncertainty k = 0.089532
        17        18        55        16     4      180.000000        4.073199         2    ;  uncertainty k = 0.089532
        17        55        16        18     4      180.000000        4.073199         2    ;  uncertainty k = 0.089532
        18        17        19        56     4      180.000000        4.075590         2    ;  uncertainty k = 0.076310
        18        19        56        17     4      180.000000        4.075590         2    ;  uncertainty k = 0.076310
        18        56        17        19     4      180.000000        4.075590         2    ;  uncertainty k = 0.076310
        19        18        20        57     4      180.000000        4.286749         2    ;  uncertainty k = 0.163795
        19        20        57        18     4      180.000000        4.286749         2    ;  uncertainty k = 0.163795
        19        57        18        20     4      180.000000        4.286749         2    ;  uncertainty k = 0.163795
        20        19        21        58     4      180.000000        4.075590         2    ;  uncertainty k = 0.076310
        20        21        58        19     4      180.000000        4.075590         2    ;  uncertainty k = 0.076310
        20        58        19        21     4      180.000000        4.075590         2    ;  uncertainty k = 0.076310
        21        16        20        59     4      180.000000        4.073199         2    ;  uncertainty k = 0.089532
        21        20        59        16     4      180.000000        4.073199         2    ;  uncertainty k = 0.089532
        21        59        16        20     4      180.000000        4.073199         2    ;  uncertainty k = 0.089532
        23        22        24        32     4      180.000000       21.979198         2    ;  uncertainty k = 0.135021
        23        24        32        22     4      180.000000       21.979198         2    ;  uncertainty k = 0.135021
        23        32        22        24     4      180.000000       21.979198         2    ;  uncertainty k = 0.135021
        24        23        25        61     4      180.000000        1.846543         2    ;  uncertainty k = 0.425682
        24        25        61        23     4      180.000000        1.846543         2    ;  uncertainty k = 0.425682
        24        61        23        25     4      180.000000        1.846543         2    ;  uncertainty k = 0.425682
        25        24        26        62     4      180.000000        4.856163         2    ;  uncertainty k = 0.148466
        25        26        62        24     4      180.000000        4.856163         2    ;  uncertainty k = 0.148466
        25        62        24        26     4      180.000000        4.856163         2    ;  uncertainty k = 0.148466
        26        25        27        31     4      180.000000        6.209820         2    ;  uncertainty k = 0.262054
        26        27        31        25     4      180.000000        6.209820         2    ;  uncertainty k = 0.262054
        26        31        25        27     4      180.000000        6.209820         2    ;  uncertainty k = 0.262054
        31        26        32        63     4      180.000000        4.574180         2    ;  uncertainty k = 0.267402
        31        32        63        26     4      180.000000        4.574180         2    ;  uncertainty k = 0.267402
        31        63        26        32     4      180.000000        4.574180         2    ;  uncertainty k = 0.267402
        32        23        31        33     4      180.000000       10.550445         2    ;  uncertainty k = 0.189413
        32        31        33        23     4      180.000000       10.550445         2    ;  uncertainty k = 0.189413
        32        33        23        31     4      180.000000       10.550445         2    ;  uncertainty k = 0.189413

[ pairs ]
;       ai        aj funct
         1         5     1
         1        38     1
         1        39     1
         1        40     1
         1        41     1
         1        42     1
         2         6     1
         2        43     1
         2        44     1
         3         5     1
         3        35     1
         3        36     1
         3        37     1
         3        41     1
         3        42     1
         4         7     1
         4        35     1
         4        36     1
         4        37     1
         4        38     1
         4        39     1
         4        40     1
         5         8     1
         5         9     1
         5        65     1
         6        10     1
         6        41     1
         6        42     1
         6        45     1
         7        11     1
         7        43     1
         7        44     1
         7        46     1
         7        47     1
         8        10     1
         8        45     1
         9        12     1
         9        34     1
         9        48     1
        10        13     1
        10        33     1
        10        49     1
        10        50     1
        11        14     1
        11        32     1
        11        45     1
        11        51     1
        11        52     1
        11        64     1
        12        15     1
        12        33     1
        12        46     1
        12        47     1
        12        53     1
        13        16     1
        13        22     1
        13        32     1
        13        34     1
        13        48     1
        13        54     1
        13        64     1
        14        17     1
        14        21     1
        14        23     1
        14        31     1
        14        49     1
        14        50     1
        14        60     1
        15        18     1
        15        20     1
        15        24     1
        15        32     1
        15        34     1
        15        51     1
        15        52     1
        15        55     1
        15        59     1
        15        64     1
        16        19     1
        16        23     1
        16        33     1
        16        53     1
        16        56     1
        16        58     1
        16        60     1
        17        20     1
        17        22     1
        17        54     1
        17        57     1
        17        59     1
        18        21     1
        18        58     1
        19        55     1
        19        59     1
        20        56     1
        21        22     1
        21        54     1
        21        55     1
        21        57     1
        22        25     1
        22        31     1
        22        33     1
        22        53     1
        22        61     1
        23        26     1
        23        34     1
        23        54     1
        23        62     1
        23        63     1
        23        64     1
        24        27     1
        24        31     1
        24        33     1
        24        60     1
        25        28     1
        25        29     1
        25        30     1
        25        32     1
        25        63     1
        26        33     1
        26        61     1
        27        32     1
        27        62     1
        27        63     1
        28        31     1
        29        31     1
        30        31     1
        31        34     1
        31        62     1
        31        64     1
        32        53     1
        32        60     1
        32        61     1
        33        48     1
        33        51     1
        33        52     1
        33        54     1
        33        63     1
        34        46     1
        34        47     1
        34        49     1
        34        50     1
        34        53     1
        35        65     1
        36        65     1
        37        65     1
        38        65     1
        39        65     1
        40        65     1
        41        43     1
        41        44     1
        41        65     1
        42        43     1
        42        44     1
        42        65     1
        45        46     1
        45        47     1
        46        48     1
        47        48     1
        48        49     1
        48        50     1
        49        51     1
        49        52     1
        50        51     1
        50        52     1
        51        53     1
        52        53     1
        53        54     1
        53        64     1
        54        60     1
        55        56     1
        56        57     1
        57        58     1
        58        59     1
        61        62     1
