; ITP file created by ByteFF-joint-25, 2026-02-17 09:13:23.645356

[ atomtypes ]
;name           bonded.type        at.num        mass        charge   ptype           sigma         epsilon
 f0bf                                   9      0.0000       0.00000       A     3.03451e-01     3.47806e-01    ;  uncertainty sigma = 0.000008, epsilon = 0.001323
 c1bf                                   6      0.0000       0.00000       A     3.39792e-01     4.50242e-01    ;  uncertainty sigma = 0.000013, epsilon = 0.000578
 f2bf                                   9      0.0000       0.00000       A     3.03451e-01     3.47806e-01    ;  uncertainty sigma = 0.000008, epsilon = 0.001323
 f3bf                                   9      0.0000       0.00000       A     3.03451e-01     3.47806e-01    ;  uncertainty sigma = 0.000008, epsilon = 0.001323
 c4bf                                   6      0.0000       0.00000       A     3.31517e-01     4.13262e-01    ;  uncertainty sigma = 0.000010, epsilon = 0.000628
 c5bf                                   6      0.0000       0.00000       A     3.31512e-01     4.13402e-01    ;  uncertainty sigma = 0.000007, epsilon = 0.000559
 c6bf                                   6      0.0000       0.00000       A     3.31520e-01     4.13421e-01    ;  uncertainty sigma = 0.000010, epsilon = 0.000475
 c7bf                                   6      0.0000       0.00000       A     3.31548e-01     4.13221e-01    ;  uncertainty sigma = 0.000016, epsilon = 0.001142
 c8bf                                   6      0.0000       0.00000       A     3.31540e-01     4.13240e-01    ;  uncertainty sigma = 0.000019, epsilon = 0.000618
 c9bf                                   6      0.0000       0.00000       A     3.31532e-01     4.13181e-01    ;  uncertainty sigma = 0.000009, epsilon = 0.000749
 c10bf                                  6      0.0000       0.00000       A     3.39758e-01     4.50770e-01    ;  uncertainty sigma = 0.000017, epsilon = 0.001640
 o11bf                                  8      0.0000       0.00000       A     3.15662e-01     3.03390e-01    ;  uncertainty sigma = 0.000033, epsilon = 0.001447
 c12bf                                  6      0.0000       0.00000       A     3.39773e-01     4.51255e-01    ;  uncertainty sigma = 0.000005, epsilon = 0.001274
 c13bf                                  6      0.0000       0.00000       A     3.39766e-01     4.51175e-01    ;  uncertainty sigma = 0.000004, epsilon = 0.001045
 n14bf                                  7      0.0000       0.00000       A     3.20633e-01     8.54108e-01    ;  uncertainty sigma = 0.000022, epsilon = 0.001262
 c15bf                                  6      0.0000       0.00000       A     3.31520e-01     4.12611e-01    ;  uncertainty sigma = 0.000011, epsilon = 0.001337
 n16bf                                  7      0.0000       0.00000       A     3.38380e-01     3.93842e-01    ;  uncertainty sigma = 0.000009, epsilon = 0.000506
 c17bf                                  6      0.0000       0.00000       A     3.31496e-01     4.13805e-01    ;  uncertainty sigma = 0.000014, epsilon = 0.000503
 n18bf                                  7      0.0000       0.00000       A     3.38424e-01     3.93517e-01    ;  uncertainty sigma = 0.000014, epsilon = 0.000603
 c19bf                                  6      0.0000       0.00000       A     3.39787e-01     4.50750e-01    ;  uncertainty sigma = 0.000007, epsilon = 0.000751
 c20bf                                  6      0.0000       0.00000       A     3.39750e-01     4.51140e-01    ;  uncertainty sigma = 0.000011, epsilon = 0.000676
 c21bf                                  6      0.0000       0.00000       A     3.39755e-01     4.50973e-01    ;  uncertainty sigma = 0.000035, epsilon = 0.000615
 c22bf                                  6      0.0000       0.00000       A     3.39774e-01     4.51693e-01    ;  uncertainty sigma = 0.000009, epsilon = 0.001676
 c23bf                                  6      0.0000       0.00000       A     3.31532e-01     4.13295e-01    ;  uncertainty sigma = 0.000012, epsilon = 0.000849
 c24bf                                  6      0.0000       0.00000       A     3.31519e-01     4.13329e-01    ;  uncertainty sigma = 0.000002, epsilon = 0.000632
 c25bf                                  6      0.0000       0.00000       A     3.31520e-01     4.13328e-01    ;  uncertainty sigma = 0.000003, epsilon = 0.000582
 c26bf                                  6      0.0000       0.00000       A     3.31518e-01     4.13340e-01    ;  uncertainty sigma = 0.000003, epsilon = 0.000580
 c27bf                                  6      0.0000       0.00000       A     3.31520e-01     4.13328e-01    ;  uncertainty sigma = 0.000003, epsilon = 0.000582
 c28bf                                  6      0.0000       0.00000       A     3.31519e-01     4.13329e-01    ;  uncertainty sigma = 0.000002, epsilon = 0.000632
 n29bf                                  7      0.0000       0.00000       A     3.27909e-01     6.44315e-01    ;  uncertainty sigma = 0.000015, epsilon = 0.004120
 h30bf                                  1      0.0000       0.00000       A     2.62556e-01     6.71145e-02    ;  uncertainty sigma = 0.000013, epsilon = 0.000508
 h31bf                                  1      0.0000       0.00000       A     2.62577e-01     6.70680e-02    ;  uncertainty sigma = 0.000013, epsilon = 0.000535
 h32bf                                  1      0.0000       0.00000       A     2.62531e-01     6.70778e-02    ;  uncertainty sigma = 0.000022, epsilon = 0.000511
 h33bf                                  1      0.0000       0.00000       A     2.42239e-01     8.76590e-02    ;  uncertainty sigma = 0.000274, epsilon = 0.002165
 h34bf                                  1      0.0000       0.00000       A     2.42236e-01     8.71419e-02    ;  uncertainty sigma = 0.000052, epsilon = 0.001029
 h35bf                                  1      0.0000       0.00000       A     2.42223e-01     8.64171e-02    ;  uncertainty sigma = 0.000032, epsilon = 0.000301
 h36bf                                  1      0.0000       0.00000       A     2.42223e-01     8.64171e-02    ;  uncertainty sigma = 0.000032, epsilon = 0.000301
 h37bf                                  1      0.0000       0.00000       A     2.44703e-01     6.71938e-02    ;  uncertainty sigma = 0.000038, epsilon = 0.000943
 h38bf                                  1      0.0000       0.00000       A     2.44771e-01     6.66642e-02    ;  uncertainty sigma = 0.000035, epsilon = 0.000714
 h39bf                                  1      0.0000       0.00000       A     2.60025e-01     8.66902e-02    ;  uncertainty sigma = 0.000012, epsilon = 0.000668
 h40bf                                  1      0.0000       0.00000       A     2.60025e-01     8.66902e-02    ;  uncertainty sigma = 0.000012, epsilon = 0.000668
 h41bf                                  1      0.0000       0.00000       A     2.60028e-01     8.66831e-02    ;  uncertainty sigma = 0.000010, epsilon = 0.000720
 h42bf                                  1      0.0000       0.00000       A     2.60028e-01     8.66831e-02    ;  uncertainty sigma = 0.000010, epsilon = 0.000720
 h43bf                                  1      0.0000       0.00000       A     2.59938e-01     8.64077e-02    ;  uncertainty sigma = 0.000052, epsilon = 0.000980
 h44bf                                  1      0.0000       0.00000       A     2.42303e-01     8.69598e-02    ;  uncertainty sigma = 0.000074, epsilon = 0.001557
 h45bf                                  1      0.0000       0.00000       A     2.62560e-01     6.70315e-02    ;  uncertainty sigma = 0.000006, epsilon = 0.000529
 h46bf                                  1      0.0000       0.00000       A     2.62559e-01     6.70249e-02    ;  uncertainty sigma = 0.000010, epsilon = 0.000440
 h47bf                                  1      0.0000       0.00000       A     2.62552e-01     6.70647e-02    ;  uncertainty sigma = 0.000011, epsilon = 0.000453
 h48bf                                  1      0.0000       0.00000       A     2.62559e-01     6.70249e-02    ;  uncertainty sigma = 0.000010, epsilon = 0.000440
 h49bf                                  1      0.0000       0.00000       A     2.62560e-01     6.70314e-02    ;  uncertainty sigma = 0.000006, epsilon = 0.000529
 h50bf                                  1      0.0000       0.00000       A     1.10675e-01     4.07502e-02    ;  uncertainty sigma = 0.000109, epsilon = 0.000764

[ moleculetype ]
;name             nrexcl
 MOL                   3

[ atoms ]
;       nr            type      resi   res      atom      cgnr      charge          mass ; qtot
         1            f0bf         1   UNL        f0         1    -0.22895       18.9980 ; qtot   -0.229
         2            c1bf         1   UNL        c1         2     0.71240       12.0110 ; qtot    0.483
         3            f2bf         1   UNL        f2         3    -0.22895       18.9980 ; qtot    0.255
         4            f3bf         1   UNL        f3         4    -0.22895       18.9980 ; qtot    0.026
         5            c4bf         1   UNL        c4         5    -0.22948       12.0110 ; qtot   -0.204
         6            c5bf         1   UNL        c5         6    -0.02807       12.0110 ; qtot   -0.232
         7            c6bf         1   UNL        c6         7    -0.20421       12.0110 ; qtot   -0.436
         8            c7bf         1   UNL        c7         8     0.18349       12.0110 ; qtot   -0.253
         9            c8bf         1   UNL        c8         9    -0.15484       12.0110 ; qtot   -0.408
        10            c9bf         1   UNL        c9        10    -0.01242       12.0110 ; qtot   -0.420
        11           c10bf         1   UNL       c10        11     0.20128       12.0110 ; qtot   -0.219
        12           o11bf         1   UNL       o11        12    -0.41601       15.9990 ; qtot   -0.635
        13           c12bf         1   UNL       c12        13     0.12678       12.0110 ; qtot   -0.508
        14           c13bf         1   UNL       c13        14     0.05468       12.0110 ; qtot   -0.453
        15           n14bf         1   UNL       n14        15    -0.05188       14.0070 ; qtot   -0.505
        16           c15bf         1   UNL       c15        16     0.42834       12.0110 ; qtot   -0.077
        17           n16bf         1   UNL       n16        17    -0.69615       14.0070 ; qtot   -0.773
        18           c17bf         1   UNL       c17        18     0.52072       12.0110 ; qtot   -0.252
        19           n18bf         1   UNL       n18        19    -0.53900       14.0070 ; qtot   -0.791
        20           c19bf         1   UNL       c19        20    -0.10345       12.0110 ; qtot   -0.895
        21           c20bf         1   UNL       c20        21    -0.06759       12.0110 ; qtot   -0.962
        22           c21bf         1   UNL       c21        22    -0.09471       12.0110 ; qtot   -1.057
        23           c22bf         1   UNL       c22        23     0.25867       12.0110 ; qtot   -0.798
        24           c23bf         1   UNL       c23        24    -0.10560       12.0110 ; qtot   -0.904
        25           c24bf         1   UNL       c24        25    -0.11888       12.0110 ; qtot   -1.023
        26           c25bf         1   UNL       c25        26    -0.13078       12.0110 ; qtot   -1.154
        27           c26bf         1   UNL       c26        27    -0.12452       12.0110 ; qtot   -1.278
        28           c27bf         1   UNL       c27        28    -0.13078       12.0110 ; qtot   -1.409
        29           c28bf         1   UNL       c28        29    -0.11888       12.0110 ; qtot   -1.528
        30           n29bf         1   UNL       n29        30    -0.73726       14.0070 ; qtot   -2.265
        31           h30bf         1   UNL       h30        31     0.15124        1.0080 ; qtot   -2.114
        32           h31bf         1   UNL       h31        32     0.13718        1.0080 ; qtot   -1.977
        33           h32bf         1   UNL       h32        33     0.15267        1.0080 ; qtot   -1.824
        34           h33bf         1   UNL       h33        34     0.05824        1.0080 ; qtot   -1.766
        35           h34bf         1   UNL       h34        35     0.05964        1.0080 ; qtot   -1.706
        36           h35bf         1   UNL       h35        36     0.08007        1.0080 ; qtot   -1.626
        37           h36bf         1   UNL       h36        37     0.08007        1.0080 ; qtot   -1.546
        38           h37bf         1   UNL       h37        38     0.06887        1.0080 ; qtot   -1.477
        39           h38bf         1   UNL       h38        39     0.06463        1.0080 ; qtot   -1.412
        40           h39bf         1   UNL       h39        40     0.05648        1.0080 ; qtot   -1.356
        41           h40bf         1   UNL       h40        41     0.05648        1.0080 ; qtot   -1.299
        42           h41bf         1   UNL       h41        42     0.05025        1.0080 ; qtot   -1.249
        43           h42bf         1   UNL       h42        43     0.05025        1.0080 ; qtot   -1.199
        44           h43bf         1   UNL       h43        44     0.06904        1.0080 ; qtot   -1.130
        45           h44bf         1   UNL       h44        45     0.05360        1.0080 ; qtot   -1.076
        46           h45bf         1   UNL       h45        46     0.13512        1.0080 ; qtot   -0.941
        47           h46bf         1   UNL       h46        47     0.13172        1.0080 ; qtot   -0.809
        48           h47bf         1   UNL       h47        48     0.13373        1.0080 ; qtot   -0.676
        49           h48bf         1   UNL       h48        49     0.13172        1.0080 ; qtot   -0.544
        50           h49bf         1   UNL       h49        50     0.13512        1.0080 ; qtot   -0.409
        51           h50bf         1   UNL       h50        51     0.40888        1.0080 ; qtot   -0.000

[ bonds ]
;       ai        aj funct               r               k
         1         2     1        0.135370   287114.180371    ;  uncertainty r = 0.000024, k = 3.515897
         2         3     1        0.135370   287114.180371    ;  uncertainty r = 0.000024, k = 3.515897
         2         4     1        0.135370   287114.180371    ;  uncertainty r = 0.000024, k = 3.515897
         2         5     1        0.149257   213835.572705    ;  uncertainty r = 0.000082, k = 4.037129
         5         6     1        0.139378   352395.893311    ;  uncertainty r = 0.000125, k = 2.402621
         5        10     1        0.139076   345540.098779    ;  uncertainty r = 0.000116, k = 2.172397
         6         7     1        0.138816   370640.140527    ;  uncertainty r = 0.000068, k = 3.048080
         6        31     1        0.108598   332329.164746    ;  uncertainty r = 0.000022, k = 1.147951
         7         8     1        0.140865   368811.377051    ;  uncertainty r = 0.000044, k = 7.230055
         7        32     1        0.108921   336733.064795    ;  uncertainty r = 0.000029, k = 1.482999
         8         9     1        0.140838   346500.523926    ;  uncertainty r = 0.000177, k = 22.908324
         8        30     1        0.139955   343991.477393    ;  uncertainty r = 0.000126, k = 9.082298
         9        10     1        0.139099   350903.249268    ;  uncertainty r = 0.000165, k = 2.364290
         9        11     1        0.150986   220052.403223    ;  uncertainty r = 0.000071, k = 8.191130
        10        33     1        0.108699   332543.906299    ;  uncertainty r = 0.000028, k = 1.734932
        11        12     1        0.143243   225779.125537    ;  uncertainty r = 0.000180, k = 9.124075
        11        22     1        0.153397   194595.390991    ;  uncertainty r = 0.000157, k = 12.104386
        11        34     1        0.110070   304839.232617    ;  uncertainty r = 0.000099, k = 3.337768
        12        13     1        0.142596   240363.189941    ;  uncertainty r = 0.000153, k = 12.135822
        13        14     1        0.152929   200420.750391    ;  uncertainty r = 0.000093, k = 4.308818
        13        20     1        0.152806   206033.628271    ;  uncertainty r = 0.000045, k = 6.536807
        13        35     1        0.109987   305337.333936    ;  uncertainty r = 0.000066, k = 3.437566
        14        15     1        0.144971   239884.445752    ;  uncertainty r = 0.000067, k = 5.165821
        14        36     1        0.109432   311198.253760    ;  uncertainty r = 0.000016, k = 2.601074
        14        37     1        0.109432   311198.253760    ;  uncertainty r = 0.000016, k = 2.601074
        15        16     1        0.135639   279983.581006    ;  uncertainty r = 0.000036, k = 14.015443
        15        19     1        0.136297   310078.630273    ;  uncertainty r = 0.000067, k = 9.308534
        16        17     1        0.132564   484085.939844    ;  uncertainty r = 0.000042, k = 5.040825
        16        38     1        0.108274   340791.805273    ;  uncertainty r = 0.000027, k = 1.980747
        17        18     1        0.136778   280053.578223    ;  uncertainty r = 0.000057, k = 8.805133
        18        19     1        0.132893   465696.463086    ;  uncertainty r = 0.000039, k = 5.499033
        18        39     1        0.108324   339380.547998    ;  uncertainty r = 0.000041, k = 2.000115
        20        21     1        0.153359   213899.364404    ;  uncertainty r = 0.000061, k = 3.792608
        20        40     1        0.109658   309848.285547    ;  uncertainty r = 0.000022, k = 0.887625
        20        41     1        0.109658   309848.285547    ;  uncertainty r = 0.000022, k = 0.887625
        21        22     1        0.153246   204578.906836    ;  uncertainty r = 0.000106, k = 8.336812
        21        42     1        0.109599   307714.787744    ;  uncertainty r = 0.000022, k = 1.052231
        21        43     1        0.109599   307714.787744    ;  uncertainty r = 0.000022, k = 1.052231
        22        23     1        0.153739   194039.843945    ;  uncertainty r = 0.000049, k = 9.258937
        22        44     1        0.109712   307584.676172    ;  uncertainty r = 0.000061, k = 3.997494
        23        24     1        0.151697   221951.776807    ;  uncertainty r = 0.000088, k = 6.014281
        23        30     1        0.146438   246437.344629    ;  uncertainty r = 0.000120, k = 17.715113
        23        45     1        0.110060   298327.090967    ;  uncertainty r = 0.000134, k = 4.183505
        24        25     1        0.139859   350947.632764    ;  uncertainty r = 0.000040, k = 0.862432
        24        29     1        0.139859   350947.632764    ;  uncertainty r = 0.000040, k = 0.862464
        25        26     1        0.139620   365997.723877    ;  uncertainty r = 0.000023, k = 1.204495
        25        46     1        0.108883   334327.826611    ;  uncertainty r = 0.000023, k = 0.510261
        26        27     1        0.139607   371240.977637    ;  uncertainty r = 0.000016, k = 0.703171
        26        47     1        0.108851   333986.931738    ;  uncertainty r = 0.000010, k = 1.017342
        27        28     1        0.139607   371240.977637    ;  uncertainty r = 0.000016, k = 0.703176
        27        48     1        0.108841   334518.895264    ;  uncertainty r = 0.000012, k = 0.635570
        28        29     1        0.139620   365997.698340    ;  uncertainty r = 0.000023, k = 1.204469
        28        49     1        0.108851   333986.931738    ;  uncertainty r = 0.000010, k = 1.017343
        29        50     1        0.108883   334327.801074    ;  uncertainty r = 0.000023, k = 0.510252
        30        51     1        0.101439   412844.299707    ;  uncertainty r = 0.000047, k = 2.472854

[ angles ]
;       ai        aj        ak funct           theta             cth
         1         2         3     1      107.629150      789.646366    ;  uncertainty theta = 0.002059, k = 0.013009
         1         2         4     1      107.629150      789.646366    ;  uncertainty theta = 0.002059, k = 0.013009
         1         2         5     1      113.129189      665.135146    ;  uncertainty theta = 0.002597, k = 0.018377
         2         5         6     1      116.839577      343.993737    ;  uncertainty theta = 0.004979, k = 0.130748
         2         5        10     1      116.421097      363.451642    ;  uncertainty theta = 0.005624, k = 0.222078
         3         2         4     1      107.629150      789.646366    ;  uncertainty theta = 0.002059, k = 0.013009
         3         2         5     1      113.129189      665.135146    ;  uncertainty theta = 0.002597, k = 0.018377
         4         2         5     1      113.129189      665.135146    ;  uncertainty theta = 0.002597, k = 0.018377
         5         6         7     1      120.981323      513.612750    ;  uncertainty theta = 0.003622, k = 0.061051
         5         6        31     1      118.183693      271.648288    ;  uncertainty theta = 0.003054, k = 0.062508
         5        10         9     1      123.128990      512.049368    ;  uncertainty theta = 0.004008, k = 0.124704
         5        10        33     1      117.799782      273.317712    ;  uncertainty theta = 0.004465, k = 0.082060
         6         5        10     1      121.948021      476.311014    ;  uncertainty theta = 0.002704, k = 0.206186
         6         7         8     1      120.478416      516.109003    ;  uncertainty theta = 0.002075, k = 0.087339
         6         7        32     1      120.437355      286.262250    ;  uncertainty theta = 0.002252, k = 0.069391
         7         6        31     1      120.001465      286.894165    ;  uncertainty theta = 0.002804, k = 0.033752
         7         8         9     1      118.942970      382.845385    ;  uncertainty theta = 0.005312, k = 0.129488
         7         8        30     1      123.141701      575.910018    ;  uncertainty theta = 0.003511, k = 0.120934
         8         7        32     1      119.051010      277.924383    ;  uncertainty theta = 0.004177, k = 0.151845
         8         9        10     1      120.424454      453.080224    ;  uncertainty theta = 0.006616, k = 0.179671
         8         9        11     1      120.369385      357.135549    ;  uncertainty theta = 0.009212, k = 0.362536
         8        30        23     1      114.218895      391.657507    ;  uncertainty theta = 0.007311, k = 0.149022
         8        30        51     1      111.105759      386.782824    ;  uncertainty theta = 0.005516, k = 0.186771
         9         8        30     1      122.317627      499.033231    ;  uncertainty theta = 0.010194, k = 0.209541
         9        10        33     1      118.101120      267.172989    ;  uncertainty theta = 0.003492, k = 0.082588
         9        11        12     1      108.896805      646.082419    ;  uncertainty theta = 0.006624, k = 0.338730
         9        11        22     1      111.645630      556.114991    ;  uncertainty theta = 0.004183, k = 0.222133
         9        11        34     1      108.316772      391.253734    ;  uncertainty theta = 0.004419, k = 0.085979
        10         9        11     1      118.933754      402.582474    ;  uncertainty theta = 0.003828, k = 0.167190
        11        12        13     1      110.633530      508.504977    ;  uncertainty theta = 0.005456, k = 0.189207
        11        22        21     1      109.763870      586.438202    ;  uncertainty theta = 0.001754, k = 0.108024
        11        22        23     1      109.540359      552.892016    ;  uncertainty theta = 0.004201, k = 0.138755
        11        22        44     1      106.440834      398.827497    ;  uncertainty theta = 0.002959, k = 0.085307
        12        11        22     1      110.976547      663.994850    ;  uncertainty theta = 0.005078, k = 0.082914
        12        11        34     1      106.222206      449.206852    ;  uncertainty theta = 0.003137, k = 0.171337
        12        13        14     1      106.520775      565.386813    ;  uncertainty theta = 0.001720, k = 0.107308
        12        13        20     1      110.501114      682.069633    ;  uncertainty theta = 0.002500, k = 0.136771
        12        13        35     1      107.008995      459.018209    ;  uncertainty theta = 0.004964, k = 0.185389
        13        14        15     1      109.658829      606.178962    ;  uncertainty theta = 0.001480, k = 0.125720
        13        14        36     1      108.635086      390.368649    ;  uncertainty theta = 0.000680, k = 0.105210
        13        14        37     1      108.635086      390.368649    ;  uncertainty theta = 0.000680, k = 0.105210
        13        20        21     1      109.123703      592.221527    ;  uncertainty theta = 0.003120, k = 0.075422
        13        20        40     1      107.619095      383.515989    ;  uncertainty theta = 0.001832, k = 0.080798
        13        20        41     1      107.619095      383.515989    ;  uncertainty theta = 0.001832, k = 0.080798
        14        13        20     1      111.109818      551.628504    ;  uncertainty theta = 0.002058, k = 0.104055
        14        13        35     1      107.331093      395.792412    ;  uncertainty theta = 0.003081, k = 0.043491
        14        15        16     1      123.260788      378.871683    ;  uncertainty theta = 0.002992, k = 0.119993
        14        15        19     1      116.621849      453.312899    ;  uncertainty theta = 0.003324, k = 0.174447
        15        14        36     1      106.542679      462.961681    ;  uncertainty theta = 0.001891, k = 0.052274
        15        14        37     1      106.542679      462.961681    ;  uncertainty theta = 0.001891, k = 0.052274
        15        16        17     1      111.373352      907.130029    ;  uncertainty theta = 0.003349, k = 0.127382
        15        16        38     1      119.418373      252.766564    ;  uncertainty theta = 0.003108, k = 0.191792
        15        19        18     1      104.648766      933.119656    ;  uncertainty theta = 0.004775, k = 0.052235
        16        15        19     1      107.718399      999.488241    ;  uncertainty theta = 0.003846, k = 0.127843
        16        17        18     1      103.199989      825.413897    ;  uncertainty theta = 0.004656, k = 0.042374
        17        16        38     1      125.370316      263.161987    ;  uncertainty theta = 0.001921, k = 0.150685
        17        18        19     1      114.952965     1012.651600    ;  uncertainty theta = 0.003906, k = 0.101564
        17        18        39     1      121.445908      275.150287    ;  uncertainty theta = 0.005429, k = 0.085132
        19        18        39     1      120.669922      266.680538    ;  uncertainty theta = 0.006076, k = 0.068992
        20        13        35     1      109.435097      400.279346    ;  uncertainty theta = 0.001479, k = 0.053096
        20        21        22     1      109.560692      575.780481    ;  uncertainty theta = 0.001900, k = 0.110161
        20        21        42     1      108.654358      404.567505    ;  uncertainty theta = 0.001729, k = 0.089167
        20        21        43     1      108.654358      404.567505    ;  uncertainty theta = 0.001729, k = 0.089167
        21        20        40     1      109.083984      398.358030    ;  uncertainty theta = 0.000769, k = 0.055869
        21        20        41     1      109.083984      398.358030    ;  uncertainty theta = 0.000769, k = 0.055869
        21        22        23     1      110.665382      549.645228    ;  uncertainty theta = 0.001577, k = 0.165967
        21        22        44     1      108.029175      400.384782    ;  uncertainty theta = 0.002783, k = 0.102850
        22        11        34     1      107.784607      393.340626    ;  uncertainty theta = 0.003585, k = 0.113834
        22        21        42     1      108.110977      388.744553    ;  uncertainty theta = 0.001581, k = 0.068367
        22        21        43     1      108.110977      388.744553    ;  uncertainty theta = 0.001581, k = 0.068367
        22        23        24     1      111.667801      538.117458    ;  uncertainty theta = 0.002515, k = 0.172335
        22        23        30     1      108.357506      705.618040    ;  uncertainty theta = 0.004557, k = 0.110168
        22        23        45     1      107.075500      386.196237    ;  uncertainty theta = 0.002778, k = 0.128014
        23        22        44     1      105.964149      389.824836    ;  uncertainty theta = 0.001608, k = 0.093762
        23        24        25     1      119.922928      425.651262    ;  uncertainty theta = 0.003113, k = 0.143043
        23        24        29     1      119.922928      425.651326    ;  uncertainty theta = 0.003113, k = 0.143043
        23        30        51     1      110.064499      352.462577    ;  uncertainty theta = 0.003551, k = 0.095281
        24        23        30     1      111.031082      663.623285    ;  uncertainty theta = 0.001203, k = 0.168660
        24        23        45     1      106.340919      410.762138    ;  uncertainty theta = 0.002105, k = 0.098132
        24        25        26     1      121.166641      520.322945    ;  uncertainty theta = 0.001889, k = 0.047519
        24        25        46     1      118.895851      266.730000    ;  uncertainty theta = 0.002264, k = 0.064094
        24        29        28     1      121.166641      520.322945    ;  uncertainty theta = 0.001889, k = 0.047519
        24        29        50     1      118.895851      266.730000    ;  uncertainty theta = 0.002264, k = 0.064094
        25        24        29     1      120.206970      460.017412    ;  uncertainty theta = 0.003029, k = 0.098153
        25        26        27     1      119.685776      513.267201    ;  uncertainty theta = 0.000971, k = 0.012607
        25        26        47     1      120.211227      283.897577    ;  uncertainty theta = 0.001315, k = 0.018226
        26        25        46     1      120.235497      292.477280    ;  uncertainty theta = 0.001696, k = 0.031107
        26        27        28     1      118.246803      526.555213    ;  uncertainty theta = 0.000903, k = 0.024014
        26        27        48     1      120.647278      289.320829    ;  uncertainty theta = 0.001403, k = 0.006566
        27        26        47     1      120.620949      287.638764    ;  uncertainty theta = 0.001444, k = 0.012507
        27        28        29     1      119.685776      513.267201    ;  uncertainty theta = 0.000971, k = 0.012607
        27        28        49     1      120.620949      287.638764    ;  uncertainty theta = 0.001444, k = 0.012507
        28        27        48     1      120.647278      289.320861    ;  uncertainty theta = 0.001403, k = 0.006566
        28        29        50     1      120.235497      292.477280    ;  uncertainty theta = 0.001696, k = 0.031107
        29        28        49     1      120.211227      283.897577    ;  uncertainty theta = 0.001314, k = 0.018227
        30        23        45     1      107.894577      455.839254    ;  uncertainty theta = 0.003753, k = 0.115430
        36        14        37     1      106.783508      316.154075    ;  uncertainty theta = 0.001847, k = 0.039113
        40        20        41     1      105.217361      313.567357    ;  uncertainty theta = 0.001018, k = 0.023692
        42        21        43     1      104.584641      315.343718    ;  uncertainty theta = 0.002158, k = 0.029946

[ dihedrals ] ; propers for gromacs 4.5 or higher, use funct 9
;       ai        aj        ak        al funct           phase               k        pn
         1         2         5         6     9        0.000000       -0.682418         1    ;  uncertainty k = 0.249406
         1         2         5         6     9      180.000000        2.604904         2    ;  uncertainty k = 0.094363
         1         2         5         6     9        0.000000        0.754798         3    ;  uncertainty k = 0.077531
         1         2         5         6     9      180.000000        0.158520         4    ;  uncertainty k = 0.059056
         1         2         5        10     9        0.000000       -0.574436         1    ;  uncertainty k = 0.288118
         1         2         5        10     9      180.000000        2.562507         2    ;  uncertainty k = 0.201570
         1         2         5        10     9        0.000000        0.701170         3    ;  uncertainty k = 0.104983
         1         2         5        10     9      180.000000        0.155921         4    ;  uncertainty k = 0.065715
         2         5         6         7     9        0.000000        0.110285         1    ;  uncertainty k = 0.167159
         2         5         6         7     9      180.000000        9.822617         2    ;  uncertainty k = 0.704574
         2         5         6         7     9        0.000000        1.387103         3    ;  uncertainty k = 0.349697
         2         5         6         7     9      180.000000        1.947235         4    ;  uncertainty k = 0.332596
         2         5         6        31     9        0.000000       -0.108565         1    ;  uncertainty k = 0.468397
         2         5         6        31     9      180.000000        8.611635         2    ;  uncertainty k = 0.510214
         2         5         6        31     9        0.000000        0.670474         3    ;  uncertainty k = 0.276177
         2         5         6        31     9      180.000000        1.004019         4    ;  uncertainty k = 0.160387
         2         5        10         9     9        0.000000        0.184111         1    ;  uncertainty k = 0.430343
         2         5        10         9     9      180.000000       10.236153         2    ;  uncertainty k = 0.564349
         2         5        10         9     9        0.000000        1.596329         3    ;  uncertainty k = 0.294702
         2         5        10         9     9      180.000000        1.951289         4    ;  uncertainty k = 0.285584
         2         5        10        33     9        0.000000        0.104723         1    ;  uncertainty k = 0.367022
         2         5        10        33     9      180.000000        8.817676         2    ;  uncertainty k = 0.477947
         2         5        10        33     9        0.000000        0.711157         3    ;  uncertainty k = 0.170461
         2         5        10        33     9      180.000000        1.070202         4    ;  uncertainty k = 0.164773
         3         2         5         6     9        0.000000       -0.682418         1    ;  uncertainty k = 0.249406
         3         2         5         6     9      180.000000        2.604904         2    ;  uncertainty k = 0.094363
         3         2         5         6     9        0.000000        0.754798         3    ;  uncertainty k = 0.077531
         3         2         5         6     9      180.000000        0.158520         4    ;  uncertainty k = 0.059056
         3         2         5        10     9        0.000000       -0.574436         1    ;  uncertainty k = 0.288118
         3         2         5        10     9      180.000000        2.562507         2    ;  uncertainty k = 0.201570
         3         2         5        10     9        0.000000        0.701170         3    ;  uncertainty k = 0.104983
         3         2         5        10     9      180.000000        0.155921         4    ;  uncertainty k = 0.065715
         4         2         5         6     9        0.000000       -0.682418         1    ;  uncertainty k = 0.249406
         4         2         5         6     9      180.000000        2.604904         2    ;  uncertainty k = 0.094363
         4         2         5         6     9        0.000000        0.754798         3    ;  uncertainty k = 0.077531
         4         2         5         6     9      180.000000        0.158520         4    ;  uncertainty k = 0.059056
         4         2         5        10     9        0.000000       -0.574436         1    ;  uncertainty k = 0.288118
         4         2         5        10     9      180.000000        2.562507         2    ;  uncertainty k = 0.201570
         4         2         5        10     9        0.000000        0.701170         3    ;  uncertainty k = 0.104983
         4         2         5        10     9      180.000000        0.155921         4    ;  uncertainty k = 0.065715
         5         6         7         8     9        0.000000       -0.182690         1    ;  uncertainty k = 0.192396
         5         6         7         8     9      180.000000       13.581555         2    ;  uncertainty k = 0.317226
         5         6         7         8     9        0.000000       -0.529047         3    ;  uncertainty k = 0.592315
         5         6         7         8     9      180.000000        0.815070         4    ;  uncertainty k = 0.353192
         5         6         7        32     9        0.000000        0.175558         1    ;  uncertainty k = 0.194208
         5         6         7        32     9      180.000000        8.463922         2    ;  uncertainty k = 0.413468
         5         6         7        32     9        0.000000        1.526973         3    ;  uncertainty k = 0.227749
         5         6         7        32     9      180.000000        1.855720         4    ;  uncertainty k = 0.242609
         5        10         9         8     9        0.000000       -0.267304         1    ;  uncertainty k = 0.412366
         5        10         9         8     9      180.000000       11.752078         2    ;  uncertainty k = 0.425098
         5        10         9         8     9        0.000000       -0.315775         3    ;  uncertainty k = 0.520189
         5        10         9         8     9      180.000000        0.915764         4    ;  uncertainty k = 0.515936
         5        10         9        11     9        0.000000       -0.050378         1    ;  uncertainty k = 0.525802
         5        10         9        11     9      180.000000       10.539668         2    ;  uncertainty k = 0.436435
         5        10         9        11     9        0.000000        1.345832         3    ;  uncertainty k = 0.152095
         5        10         9        11     9      180.000000        1.745228         4    ;  uncertainty k = 0.504580
         6         5        10         9     9        0.000000        0.036150         1    ;  uncertainty k = 0.285337
         6         5        10         9     9      180.000000       11.001543         2    ;  uncertainty k = 0.517108
         6         5        10         9     9        0.000000       -0.397287         3    ;  uncertainty k = 0.757389
         6         5        10         9     9      180.000000        1.041674         4    ;  uncertainty k = 0.528914
         6         5        10        33     9        0.000000        0.167489         1    ;  uncertainty k = 0.232761
         6         5        10        33     9      180.000000        7.759392         2    ;  uncertainty k = 0.302343
         6         5        10        33     9        0.000000        1.300805         3    ;  uncertainty k = 0.409955
         6         5        10        33     9      180.000000        1.640925         4    ;  uncertainty k = 0.190722
         6         7         8         9     9        0.000000        0.306570         1    ;  uncertainty k = 0.425942
         6         7         8         9     9      180.000000        7.300331         2    ;  uncertainty k = 0.363064
         6         7         8         9     9        0.000000        0.474892         3    ;  uncertainty k = 0.421538
         6         7         8         9     9      180.000000        1.413924         4    ;  uncertainty k = 0.213424
         6         7         8        30     9        0.000000        0.231429         1    ;  uncertainty k = 0.389797
         6         7         8        30     9      180.000000       10.238478         2    ;  uncertainty k = 0.466628
         6         7         8        30     9        0.000000        1.246349         3    ;  uncertainty k = 0.222856
         6         7         8        30     9      180.000000        1.655065         4    ;  uncertainty k = 0.267773
         7         6         5        10     9        0.000000       -0.034673         1    ;  uncertainty k = 0.203902
         7         6         5        10     9      180.000000       12.012211         2    ;  uncertainty k = 0.382685
         7         6         5        10     9        0.000000       -0.709598         3    ;  uncertainty k = 0.306769
         7         6         5        10     9      180.000000        0.893584         4    ;  uncertainty k = 0.295330
         7         8         9        10     9        0.000000        0.317716         1    ;  uncertainty k = 0.350191
         7         8         9        10     9      180.000000        5.948735         2    ;  uncertainty k = 0.533574
         7         8         9        10     9        0.000000        0.392054         3    ;  uncertainty k = 0.350697
         7         8         9        10     9      180.000000        1.333497         4    ;  uncertainty k = 0.239548
         7         8         9        11     9        0.000000        0.610911         1    ;  uncertainty k = 0.603353
         7         8         9        11     9      180.000000        5.680930         2    ;  uncertainty k = 0.456863
         7         8         9        11     9        0.000000        1.309552         3    ;  uncertainty k = 0.239103
         7         8         9        11     9      180.000000        1.600298         4    ;  uncertainty k = 0.272494
         7         8        30        23     9        0.000000        0.472911         1    ;  uncertainty k = 0.815219
         7         8        30        23     9      180.000000        4.888521         2    ;  uncertainty k = 0.752071
         7         8        30        23     9        0.000000        0.397595         3    ;  uncertainty k = 0.545065
         7         8        30        23     9      180.000000        0.383807         4    ;  uncertainty k = 0.280594
         7         8        30        51     9        0.000000        1.644529         1    ;  uncertainty k = 0.671488
         7         8        30        51     9      180.000000        5.648102         2    ;  uncertainty k = 0.263411
         7         8        30        51     9        0.000000        0.887669         3    ;  uncertainty k = 0.335481
         7         8        30        51     9      180.000000       -0.022902         4    ;  uncertainty k = 0.180172
         8         7         6        31     9        0.000000        0.317053         1    ;  uncertainty k = 0.513037
         8         7         6        31     9      180.000000        9.069727         2    ;  uncertainty k = 0.572385
         8         7         6        31     9        0.000000        1.256166         3    ;  uncertainty k = 0.254023
         8         7         6        31     9      180.000000        1.555765         4    ;  uncertainty k = 0.257997
         8         9        10        33     9        0.000000        0.324811         1    ;  uncertainty k = 0.368049
         8         9        10        33     9      180.000000        8.288324         2    ;  uncertainty k = 0.526602
         8         9        10        33     9        0.000000        1.376752         3    ;  uncertainty k = 0.326265
         8         9        10        33     9      180.000000        1.578090         4    ;  uncertainty k = 0.187003
         8         9        11        12     9        0.000000       -2.572178         1    ;  uncertainty k = 2.617315
         8         9        11        12     9      180.000000        0.485510         2    ;  uncertainty k = 1.140152
         8         9        11        12     9        0.000000        1.516715         3    ;  uncertainty k = 0.350312
         8         9        11        12     9      180.000000       -0.023281         4    ;  uncertainty k = 0.178414
         8         9        11        22     9        0.000000        0.235943         1    ;  uncertainty k = 2.397069
         8         9        11        22     9      180.000000       -0.322416         2    ;  uncertainty k = 1.347026
         8         9        11        22     9        0.000000        0.083021         3    ;  uncertainty k = 0.710421
         8         9        11        22     9      180.000000        0.713737         4    ;  uncertainty k = 0.237522
         8         9        11        34     9        0.000000       -0.394047         1    ;  uncertainty k = 0.829801
         8         9        11        34     9      180.000000        2.111492         2    ;  uncertainty k = 0.240552
         8         9        11        34     9        0.000000        0.474561         3    ;  uncertainty k = 0.238662
         8         9        11        34     9      180.000000       -0.193566         4    ;  uncertainty k = 0.145047
         8        30        23        22     9        0.000000        0.719687         1    ;  uncertainty k = 1.244016
         8        30        23        22     9      180.000000        0.208999         2    ;  uncertainty k = 0.601733
         8        30        23        22     9        0.000000        0.378517         3    ;  uncertainty k = 0.264052
         8        30        23        22     9      180.000000        0.142878         4    ;  uncertainty k = 0.153977
         8        30        23        24     9        0.000000       -1.240811         1    ;  uncertainty k = 0.913862
         8        30        23        24     9      180.000000        0.100980         2    ;  uncertainty k = 0.285956
         8        30        23        24     9        0.000000        1.048825         3    ;  uncertainty k = 0.262246
         8        30        23        24     9      180.000000        0.199554         4    ;  uncertainty k = 0.098576
         8        30        23        45     9        0.000000       -0.859913         1    ;  uncertainty k = 0.376969
         8        30        23        45     9      180.000000       -0.534874         2    ;  uncertainty k = 0.442171
         8        30        23        45     9        0.000000        0.715680         3    ;  uncertainty k = 0.162008
         8        30        23        45     9      180.000000        0.204030         4    ;  uncertainty k = 0.096027
         9         8         7        32     9        0.000000        0.270043         1    ;  uncertainty k = 0.888278
         9         8         7        32     9      180.000000        6.341358         2    ;  uncertainty k = 0.647732
         9         8         7        32     9        0.000000        1.346205         3    ;  uncertainty k = 0.254113
         9         8         7        32     9      180.000000        1.274157         4    ;  uncertainty k = 0.236800
         9         8        30        23     9        0.000000        4.144113         1    ;  uncertainty k = 2.103608
         9         8        30        23     9      180.000000        2.453508         2    ;  uncertainty k = 0.610741
         9         8        30        23     9        0.000000        0.023720         3    ;  uncertainty k = 0.473400
         9         8        30        23     9      180.000000        0.682039         4    ;  uncertainty k = 0.226903
         9         8        30        51     9        0.000000       11.680208         1    ;  uncertainty k = 0.714261
         9         8        30        51     9      180.000000        5.639668         2    ;  uncertainty k = 0.496850
         9         8        30        51     9        0.000000        0.337103         3    ;  uncertainty k = 0.311467
         9         8        30        51     9      180.000000        0.199069         4    ;  uncertainty k = 0.154313
         9        11        12        13     9        0.000000       -3.072323         1    ;  uncertainty k = 1.665257
         9        11        12        13     9      180.000000       -1.102699         2    ;  uncertainty k = 0.809648
         9        11        12        13     9        0.000000        0.896462         3    ;  uncertainty k = 0.543738
         9        11        12        13     9      180.000000       -0.118751         4    ;  uncertainty k = 0.162848
         9        11        22        21     9        0.000000       -1.736661         1    ;  uncertainty k = 0.969989
         9        11        22        21     9      180.000000       -0.722115         2    ;  uncertainty k = 0.137413
         9        11        22        21     9        0.000000        0.621964         3    ;  uncertainty k = 0.186328
         9        11        22        21     9      180.000000       -0.230073         4    ;  uncertainty k = 0.135767
         9        11        22        23     9        0.000000        1.023632         1    ;  uncertainty k = 1.289310
         9        11        22        23     9      180.000000       -2.122103         2    ;  uncertainty k = 0.330731
         9        11        22        23     9        0.000000        0.267350         3    ;  uncertainty k = 0.284625
         9        11        22        23     9      180.000000       -0.129773         4    ;  uncertainty k = 0.144631
         9        11        22        44     9        0.000000       -0.491964         1    ;  uncertainty k = 0.908152
         9        11        22        44     9      180.000000        0.757764         2    ;  uncertainty k = 0.521129
         9        11        22        44     9        0.000000       -0.006614         3    ;  uncertainty k = 0.119328
         9        11        22        44     9      180.000000       -0.064272         4    ;  uncertainty k = 0.105518
        10         5         6        31     9        0.000000        0.213863         1    ;  uncertainty k = 0.199737
        10         5         6        31     9      180.000000        7.175611         2    ;  uncertainty k = 0.543778
        10         5         6        31     9        0.000000        1.246727         3    ;  uncertainty k = 0.361361
        10         5         6        31     9      180.000000        1.612477         4    ;  uncertainty k = 0.317210
        10         9         8        30     9        0.000000        0.514706         1    ;  uncertainty k = 0.664256
        10         9         8        30     9      180.000000        7.605363         2    ;  uncertainty k = 0.362140
        10         9         8        30     9        0.000000        0.991340         3    ;  uncertainty k = 0.193914
        10         9         8        30     9      180.000000        1.359286         4    ;  uncertainty k = 0.393670
        10         9        11        12     9        0.000000        0.064047         1    ;  uncertainty k = 0.524783
        10         9        11        12     9      180.000000        1.508433         2    ;  uncertainty k = 0.650610
        10         9        11        12     9        0.000000       -0.283285         3    ;  uncertainty k = 0.369021
        10         9        11        12     9      180.000000        0.133394         4    ;  uncertainty k = 0.133609
        10         9        11        22     9        0.000000       -1.547684         1    ;  uncertainty k = 0.793453
        10         9        11        22     9      180.000000       -0.096084         2    ;  uncertainty k = 0.593988
        10         9        11        22     9        0.000000       -0.226381         3    ;  uncertainty k = 0.116196
        10         9        11        22     9      180.000000        0.424988         4    ;  uncertainty k = 0.113227
        10         9        11        34     9        0.000000        0.534665         1    ;  uncertainty k = 0.956403
        10         9        11        34     9      180.000000        1.860208         2    ;  uncertainty k = 0.350249
        10         9        11        34     9        0.000000        0.079284         3    ;  uncertainty k = 0.150329
        10         9        11        34     9      180.000000        0.006281         4    ;  uncertainty k = 0.142032
        11         9         8        30     9        0.000000        0.048090         1    ;  uncertainty k = 0.594403
        11         9         8        30     9      180.000000        7.569252         2    ;  uncertainty k = 1.008937
        11         9         8        30     9        0.000000        0.688034         3    ;  uncertainty k = 0.575475
        11         9         8        30     9      180.000000        1.197341         4    ;  uncertainty k = 0.484629
        11         9        10        33     9        0.000000       -0.277644         1    ;  uncertainty k = 0.526920
        11         9        10        33     9      180.000000        8.407935         2    ;  uncertainty k = 0.751162
        11         9        10        33     9        0.000000        0.822349         3    ;  uncertainty k = 0.311138
        11         9        10        33     9      180.000000        1.103709         4    ;  uncertainty k = 0.414781
        11        12        13        14     9        0.000000       -5.491866         1    ;  uncertainty k = 0.668792
        11        12        13        14     9      180.000000       -0.243490         2    ;  uncertainty k = 0.246261
        11        12        13        14     9        0.000000        0.527738         3    ;  uncertainty k = 0.407672
        11        12        13        14     9      180.000000       -0.033496         4    ;  uncertainty k = 0.195456
        11        12        13        20     9        0.000000        2.333248         1    ;  uncertainty k = 2.810997
        11        12        13        20     9      180.000000       -1.339875         2    ;  uncertainty k = 0.413465
        11        12        13        20     9        0.000000       -0.055928         3    ;  uncertainty k = 0.579452
        11        12        13        20     9      180.000000        0.012689         4    ;  uncertainty k = 0.165419
        11        12        13        35     9        0.000000       -1.969753         1    ;  uncertainty k = 1.182927
        11        12        13        35     9      180.000000       -0.627837         2    ;  uncertainty k = 0.309219
        11        12        13        35     9        0.000000        0.151732         3    ;  uncertainty k = 0.077495
        11        12        13        35     9      180.000000       -0.063828         4    ;  uncertainty k = 0.143228
        11        22        21        20     9        0.000000       -3.534745         1    ;  uncertainty k = 0.261736
        11        22        21        20     9      180.000000        0.163373         2    ;  uncertainty k = 0.373105
        11        22        21        20     9        0.000000        1.019261         3    ;  uncertainty k = 0.170442
        11        22        21        20     9      180.000000       -0.782797         4    ;  uncertainty k = 0.075731
        11        22        21        42     9        0.000000       -0.378822         1    ;  uncertainty k = 0.393371
        11        22        21        42     9      180.000000       -0.654646         2    ;  uncertainty k = 0.132852
        11        22        21        42     9        0.000000        0.283885         3    ;  uncertainty k = 0.118202
        11        22        21        42     9      180.000000       -0.008848         4    ;  uncertainty k = 0.053927
        11        22        21        43     9        0.000000       -0.378822         1    ;  uncertainty k = 0.393371
        11        22        21        43     9      180.000000       -0.654646         2    ;  uncertainty k = 0.132852
        11        22        21        43     9        0.000000        0.283885         3    ;  uncertainty k = 0.118202
        11        22        21        43     9      180.000000       -0.008848         4    ;  uncertainty k = 0.053927
        11        22        23        24     9        0.000000       -0.706339         1    ;  uncertainty k = 0.753341
        11        22        23        24     9      180.000000       -0.369412         2    ;  uncertainty k = 0.371345
        11        22        23        24     9        0.000000        0.398659         3    ;  uncertainty k = 0.216269
        11        22        23        24     9      180.000000       -0.019343         4    ;  uncertainty k = 0.136818
        11        22        23        30     9        0.000000        0.004870         1    ;  uncertainty k = 2.200548
        11        22        23        30     9      180.000000       -1.151405         2    ;  uncertainty k = 0.281473
        11        22        23        30     9        0.000000        0.537528         3    ;  uncertainty k = 0.460302
        11        22        23        30     9      180.000000       -0.178669         4    ;  uncertainty k = 0.359587
        11        22        23        45     9        0.000000        0.728646         1    ;  uncertainty k = 0.724933
        11        22        23        45     9      180.000000       -1.387651         2    ;  uncertainty k = 0.743991
        11        22        23        45     9        0.000000       -0.421282         3    ;  uncertainty k = 0.140879
        11        22        23        45     9      180.000000        0.028801         4    ;  uncertainty k = 0.147726
        12        11        22        21     9        0.000000       -1.571852         1    ;  uncertainty k = 0.840366
        12        11        22        21     9      180.000000       -1.510486         2    ;  uncertainty k = 0.989340
        12        11        22        21     9        0.000000        0.895889         3    ;  uncertainty k = 0.276797
        12        11        22        21     9      180.000000       -0.034016         4    ;  uncertainty k = 0.255125
        12        11        22        23     9        0.000000       -1.067973         1    ;  uncertainty k = 1.597617
        12        11        22        23     9      180.000000       -3.360579         2    ;  uncertainty k = 1.609113
        12        11        22        23     9        0.000000        0.638190         3    ;  uncertainty k = 0.274195
        12        11        22        23     9      180.000000        0.113397         4    ;  uncertainty k = 0.331187
        12        11        22        44     9        0.000000       -0.652436         1    ;  uncertainty k = 0.277504
        12        11        22        44     9      180.000000        0.570195         2    ;  uncertainty k = 0.504844
        12        11        22        44     9        0.000000        0.078699         3    ;  uncertainty k = 0.304226
        12        11        22        44     9      180.000000       -0.148396         4    ;  uncertainty k = 0.126224
        12        13        14        15     9        0.000000       -2.925458         1    ;  uncertainty k = 0.340806
        12        13        14        15     9      180.000000       -2.381415         2    ;  uncertainty k = 0.217120
        12        13        14        15     9        0.000000        1.574470         3    ;  uncertainty k = 0.419792
        12        13        14        15     9      180.000000        0.040684         4    ;  uncertainty k = 0.073988
        12        13        14        36     9        0.000000        0.294747         1    ;  uncertainty k = 0.371646
        12        13        14        36     9      180.000000       -1.130842         2    ;  uncertainty k = 0.315027
        12        13        14        36     9        0.000000        0.350533         3    ;  uncertainty k = 0.155905
        12        13        14        36     9      180.000000       -0.028005         4    ;  uncertainty k = 0.140962
        12        13        14        37     9        0.000000        0.294747         1    ;  uncertainty k = 0.371646
        12        13        14        37     9      180.000000       -1.130842         2    ;  uncertainty k = 0.315027
        12        13        14        37     9        0.000000        0.350533         3    ;  uncertainty k = 0.155905
        12        13        14        37     9      180.000000       -0.028005         4    ;  uncertainty k = 0.140962
        12        13        20        21     9        0.000000       -2.308195         1    ;  uncertainty k = 0.711062
        12        13        20        21     9      180.000000       -0.986514         2    ;  uncertainty k = 0.627667
        12        13        20        21     9        0.000000        1.429562         3    ;  uncertainty k = 0.434333
        12        13        20        21     9      180.000000       -0.488319         4    ;  uncertainty k = 0.327745
        12        13        20        40     9        0.000000       -1.216523         1    ;  uncertainty k = 0.389897
        12        13        20        40     9      180.000000       -1.028879         2    ;  uncertainty k = 0.097548
        12        13        20        40     9        0.000000        0.880083         3    ;  uncertainty k = 0.176604
        12        13        20        40     9      180.000000       -0.127701         4    ;  uncertainty k = 0.111506
        12        13        20        41     9        0.000000       -1.216523         1    ;  uncertainty k = 0.389897
        12        13        20        41     9      180.000000       -1.028879         2    ;  uncertainty k = 0.097548
        12        13        20        41     9        0.000000        0.880083         3    ;  uncertainty k = 0.176604
        12        13        20        41     9      180.000000       -0.127701         4    ;  uncertainty k = 0.111506
        13        12        11        22     9        0.000000        4.144411         1    ;  uncertainty k = 1.666010
        13        12        11        22     9      180.000000       -1.926651         2    ;  uncertainty k = 1.128886
        13        12        11        22     9        0.000000        0.077412         3    ;  uncertainty k = 0.324022
        13        12        11        22     9      180.000000        0.075947         4    ;  uncertainty k = 0.237437
        13        12        11        34     9        0.000000       -1.767736         1    ;  uncertainty k = 0.589743
        13        12        11        34     9      180.000000       -0.656171         2    ;  uncertainty k = 0.353368
        13        12        11        34     9        0.000000        0.423821         3    ;  uncertainty k = 0.073037
        13        12        11        34     9      180.000000       -0.104930         4    ;  uncertainty k = 0.198569
        13        14        15        16     9        0.000000        0.766918         1    ;  uncertainty k = 0.375713
        13        14        15        16     9      180.000000       -1.132555         2    ;  uncertainty k = 0.615879
        13        14        15        16     9        0.000000        0.524685         3    ;  uncertainty k = 0.306407
        13        14        15        16     9      180.000000        0.171402         4    ;  uncertainty k = 0.083654
        13        14        15        19     9        0.000000       -0.895419         1    ;  uncertainty k = 0.464672
        13        14        15        19     9      180.000000       -1.256510         2    ;  uncertainty k = 0.219761
        13        14        15        19     9        0.000000        0.703441         3    ;  uncertainty k = 0.170643
        13        14        15        19     9      180.000000        0.186568         4    ;  uncertainty k = 0.133935
        13        20        21        22     9        0.000000       -4.801065         1    ;  uncertainty k = 1.123251
        13        20        21        22     9      180.000000       -0.668005         2    ;  uncertainty k = 0.623174
        13        20        21        22     9        0.000000        1.198468         3    ;  uncertainty k = 0.232517
        13        20        21        22     9      180.000000       -0.943226         4    ;  uncertainty k = 0.179564
        13        20        21        42     9        0.000000       -1.049938         1    ;  uncertainty k = 0.660770
        13        20        21        42     9      180.000000       -0.598229         2    ;  uncertainty k = 0.200554
        13        20        21        42     9        0.000000        0.413316         3    ;  uncertainty k = 0.148303
        13        20        21        42     9      180.000000        0.039099         4    ;  uncertainty k = 0.045961
        13        20        21        43     9        0.000000       -1.049938         1    ;  uncertainty k = 0.660770
        13        20        21        43     9      180.000000       -0.598229         2    ;  uncertainty k = 0.200554
        13        20        21        43     9        0.000000        0.413316         3    ;  uncertainty k = 0.148303
        13        20        21        43     9      180.000000        0.039099         4    ;  uncertainty k = 0.045961
        14        13        20        21     9        0.000000       -2.884124         1    ;  uncertainty k = 0.379177
        14        13        20        21     9      180.000000        0.104236         2    ;  uncertainty k = 0.375734
        14        13        20        21     9        0.000000        0.466689         3    ;  uncertainty k = 0.099166
        14        13        20        21     9      180.000000       -0.316723         4    ;  uncertainty k = 0.102671
        14        13        20        40     9        0.000000       -0.609364         1    ;  uncertainty k = 0.463920
        14        13        20        40     9      180.000000       -0.433289         2    ;  uncertainty k = 0.317343
        14        13        20        40     9        0.000000        0.294936         3    ;  uncertainty k = 0.071735
        14        13        20        40     9      180.000000       -0.249982         4    ;  uncertainty k = 0.133351
        14        13        20        41     9        0.000000       -0.609364         1    ;  uncertainty k = 0.463920
        14        13        20        41     9      180.000000       -0.433289         2    ;  uncertainty k = 0.317343
        14        13        20        41     9        0.000000        0.294936         3    ;  uncertainty k = 0.071735
        14        13        20        41     9      180.000000       -0.249982         4    ;  uncertainty k = 0.133351
        14        15        16        17     9        0.000000        2.301729         1    ;  uncertainty k = 0.986746
        14        15        16        17     9      180.000000       13.505817         2    ;  uncertainty k = 0.410369
        14        15        16        17     9        0.000000        2.061032         3    ;  uncertainty k = 0.771688
        14        15        16        17     9      180.000000       -0.017748         4    ;  uncertainty k = 0.109977
        14        15        16        38     9        0.000000       -0.518001         1    ;  uncertainty k = 0.929029
        14        15        16        38     9      180.000000        2.477685         2    ;  uncertainty k = 0.979485
        14        15        16        38     9        0.000000        1.082160         3    ;  uncertainty k = 0.394792
        14        15        16        38     9      180.000000        0.013750         4    ;  uncertainty k = 0.211302
        14        15        19        18     9        0.000000        1.239027         1    ;  uncertainty k = 1.691381
        14        15        19        18     9      180.000000       11.748917         2    ;  uncertainty k = 0.411284
        14        15        19        18     9        0.000000        1.802558         3    ;  uncertainty k = 0.552111
        14        15        19        18     9      180.000000       -0.005702         4    ;  uncertainty k = 0.214642
        15        14        13        20     9        0.000000       -2.623150         1    ;  uncertainty k = 0.695100
        15        14        13        20     9      180.000000        0.463068         2    ;  uncertainty k = 0.099546
        15        14        13        20     9        0.000000        1.152079         3    ;  uncertainty k = 0.122785
        15        14        13        20     9      180.000000       -0.136465         4    ;  uncertainty k = 0.123802
        15        14        13        35     9        0.000000        2.299154         1    ;  uncertainty k = 0.284602
        15        14        13        35     9      180.000000       -0.954900         2    ;  uncertainty k = 0.116074
        15        14        13        35     9        0.000000        0.650911         3    ;  uncertainty k = 0.178973
        15        14        13        35     9      180.000000        0.038832         4    ;  uncertainty k = 0.164247
        15        16        17        18     9        0.000000       -0.123404         1    ;  uncertainty k = 0.400421
        15        16        17        18     9      180.000000       22.849444         2    ;  uncertainty k = 0.334019
        15        16        17        18     9        0.000000      -10.620555         3    ;  uncertainty k = 0.651197
        15        16        17        18     9      180.000000        2.253106         4    ;  uncertainty k = 0.590032
        15        19        18        17     9        0.000000        0.287897         1    ;  uncertainty k = 0.646261
        15        19        18        17     9      180.000000       28.106755         2    ;  uncertainty k = 0.301825
        15        19        18        17     9        0.000000      -10.355774         3    ;  uncertainty k = 0.575815
        15        19        18        17     9      180.000000        2.128011         4    ;  uncertainty k = 0.595166
        15        19        18        39     9        0.000000        0.263040         1    ;  uncertainty k = 0.856140
        15        19        18        39     9      180.000000       20.678247         2    ;  uncertainty k = 0.486011
        15        19        18        39     9        0.000000        1.077117         3    ;  uncertainty k = 0.624110
        15        19        18        39     9      180.000000        1.268360         4    ;  uncertainty k = 0.631305
        16        15        14        36     9        0.000000       -0.936820         1    ;  uncertainty k = 0.337277
        16        15        14        36     9      180.000000       -0.170767         2    ;  uncertainty k = 0.246894
        16        15        14        36     9        0.000000        0.495153         3    ;  uncertainty k = 0.083004
        16        15        14        36     9      180.000000        0.089694         4    ;  uncertainty k = 0.043486
        16        15        14        37     9        0.000000       -0.936820         1    ;  uncertainty k = 0.337277
        16        15        14        37     9      180.000000       -0.170767         2    ;  uncertainty k = 0.246894
        16        15        14        37     9        0.000000        0.495153         3    ;  uncertainty k = 0.083004
        16        15        14        37     9      180.000000        0.089694         4    ;  uncertainty k = 0.043486
        16        15        19        18     9        0.000000        0.073631         1    ;  uncertainty k = 1.344795
        16        15        19        18     9      180.000000       14.643622         2    ;  uncertainty k = 0.667471
        16        15        19        18     9        0.000000       -7.546660         3    ;  uncertainty k = 1.357338
        16        15        19        18     9      180.000000        1.659298         4    ;  uncertainty k = 0.384727
        16        17        18        19     9        0.000000       -0.097805         1    ;  uncertainty k = 0.615735
        16        17        18        19     9      180.000000       18.051273         2    ;  uncertainty k = 0.573053
        16        17        18        19     9        0.000000       -9.117381         3    ;  uncertainty k = 1.606560
        16        17        18        19     9      180.000000        2.092935         4    ;  uncertainty k = 0.297986
        16        17        18        39     9        0.000000        0.508745         1    ;  uncertainty k = 1.183426
        16        17        18        39     9      180.000000       13.782364         2    ;  uncertainty k = 0.392468
        16        17        18        39     9        0.000000        0.979680         3    ;  uncertainty k = 0.359802
        16        17        18        39     9      180.000000        0.688120         4    ;  uncertainty k = 0.268332
        17        16        15        19     9        0.000000       -0.435414         1    ;  uncertainty k = 1.637322
        17        16        15        19     9      180.000000       20.474122         2    ;  uncertainty k = 0.631688
        17        16        15        19     9        0.000000      -11.928712         3    ;  uncertainty k = 1.605896
        17        16        15        19     9      180.000000        1.230304         4    ;  uncertainty k = 0.516616
        18        17        16        38     9        0.000000        0.439132         1    ;  uncertainty k = 1.067792
        18        17        16        38     9      180.000000       18.537705         2    ;  uncertainty k = 0.496530
        18        17        16        38     9        0.000000        0.815947         3    ;  uncertainty k = 0.637758
        18        17        16        38     9      180.000000        1.104577         4    ;  uncertainty k = 0.337256
        19        15        14        36     9        0.000000        1.595232         1    ;  uncertainty k = 0.770417
        19        15        14        36     9      180.000000       -0.501564         2    ;  uncertainty k = 0.289093
        19        15        14        36     9        0.000000        0.739970         3    ;  uncertainty k = 0.116537
        19        15        14        36     9      180.000000        0.189302         4    ;  uncertainty k = 0.056087
        19        15        14        37     9        0.000000        1.595232         1    ;  uncertainty k = 0.770417
        19        15        14        37     9      180.000000       -0.501564         2    ;  uncertainty k = 0.289093
        19        15        14        37     9        0.000000        0.739970         3    ;  uncertainty k = 0.116537
        19        15        14        37     9      180.000000        0.189302         4    ;  uncertainty k = 0.056087
        19        15        16        38     9        0.000000        0.695817         1    ;  uncertainty k = 0.704851
        19        15        16        38     9      180.000000       12.207816         2    ;  uncertainty k = 0.520634
        19        15        16        38     9        0.000000        1.541503         3    ;  uncertainty k = 0.287941
        19        15        16        38     9      180.000000        0.071763         4    ;  uncertainty k = 0.273199
        20        13        14        36     9        0.000000       -1.197691         1    ;  uncertainty k = 0.524705
        20        13        14        36     9      180.000000        0.035400         2    ;  uncertainty k = 0.363416
        20        13        14        36     9        0.000000        0.375113         3    ;  uncertainty k = 0.096432
        20        13        14        36     9      180.000000       -0.219148         4    ;  uncertainty k = 0.079458
        20        13        14        37     9        0.000000       -1.197691         1    ;  uncertainty k = 0.524705
        20        13        14        37     9      180.000000        0.035400         2    ;  uncertainty k = 0.363416
        20        13        14        37     9        0.000000        0.375113         3    ;  uncertainty k = 0.096432
        20        13        14        37     9      180.000000       -0.219148         4    ;  uncertainty k = 0.079458
        20        21        22        23     9        0.000000       -3.441842         1    ;  uncertainty k = 0.594910
        20        21        22        23     9      180.000000        0.063155         2    ;  uncertainty k = 0.165493
        20        21        22        23     9        0.000000        1.146187         3    ;  uncertainty k = 0.146477
        20        21        22        23     9      180.000000       -0.537042         4    ;  uncertainty k = 0.161665
        20        21        22        44     9        0.000000       -2.386817         1    ;  uncertainty k = 0.522969
        20        21        22        44     9      180.000000        0.121174         2    ;  uncertainty k = 0.262352
        20        21        22        44     9        0.000000        0.030014         3    ;  uncertainty k = 0.071609
        20        21        22        44     9      180.000000       -0.101338         4    ;  uncertainty k = 0.083927
        21        20        13        35     9        0.000000        0.512038         1    ;  uncertainty k = 0.663018
        21        20        13        35     9      180.000000       -1.771970         2    ;  uncertainty k = 0.602780
        21        20        13        35     9        0.000000       -0.270277         3    ;  uncertainty k = 0.157442
        21        20        13        35     9      180.000000        0.128659         4    ;  uncertainty k = 0.086515
        21        22        11        34     9        0.000000        0.357503         1    ;  uncertainty k = 0.556590
        21        22        11        34     9      180.000000       -0.514985         2    ;  uncertainty k = 0.417233
        21        22        11        34     9        0.000000       -0.167575         3    ;  uncertainty k = 0.117937
        21        22        11        34     9      180.000000       -0.047374         4    ;  uncertainty k = 0.134711
        21        22        23        24     9        0.000000       -0.456729         1    ;  uncertainty k = 0.383847
        21        22        23        24     9      180.000000        0.080756         2    ;  uncertainty k = 0.230344
        21        22        23        24     9        0.000000        1.016566         3    ;  uncertainty k = 0.130911
        21        22        23        24     9      180.000000       -0.027923         4    ;  uncertainty k = 0.089691
        21        22        23        30     9        0.000000       -2.648779         1    ;  uncertainty k = 0.379832
        21        22        23        30     9      180.000000        0.575995         2    ;  uncertainty k = 0.355957
        21        22        23        30     9        0.000000        1.150141         3    ;  uncertainty k = 0.197304
        21        22        23        30     9      180.000000       -0.324234         4    ;  uncertainty k = 0.282536
        21        22        23        45     9        0.000000       -0.252627         1    ;  uncertainty k = 0.390309
        21        22        23        45     9      180.000000       -0.316588         2    ;  uncertainty k = 0.172434
        21        22        23        45     9        0.000000        0.087196         3    ;  uncertainty k = 0.151889
        21        22        23        45     9      180.000000       -0.118598         4    ;  uncertainty k = 0.085047
        22        21        20        40     9        0.000000       -0.787986         1    ;  uncertainty k = 0.240015
        22        21        20        40     9      180.000000       -0.677436         2    ;  uncertainty k = 0.218629
        22        21        20        40     9        0.000000        0.410566         3    ;  uncertainty k = 0.125285
        22        21        20        40     9      180.000000       -0.048180         4    ;  uncertainty k = 0.114351
        22        21        20        41     9        0.000000       -0.787986         1    ;  uncertainty k = 0.240015
        22        21        20        41     9      180.000000       -0.677436         2    ;  uncertainty k = 0.218629
        22        21        20        41     9        0.000000        0.410566         3    ;  uncertainty k = 0.125285
        22        21        20        41     9      180.000000       -0.048180         4    ;  uncertainty k = 0.114351
        22        23        24        25     9        0.000000       -0.128230         1    ;  uncertainty k = 0.712208
        22        23        24        25     9      180.000000        1.832447         2    ;  uncertainty k = 0.216281
        22        23        24        25     9        0.000000        0.279323         3    ;  uncertainty k = 0.140015
        22        23        24        25     9      180.000000        0.244071         4    ;  uncertainty k = 0.076873
        22        23        24        29     9        0.000000       -0.128230         1    ;  uncertainty k = 0.712207
        22        23        24        29     9      180.000000        1.832448         2    ;  uncertainty k = 0.216282
        22        23        24        29     9        0.000000        0.279323         3    ;  uncertainty k = 0.140015
        22        23        24        29     9      180.000000        0.244071         4    ;  uncertainty k = 0.076873
        22        23        30        51     9        0.000000        3.620494         1    ;  uncertainty k = 0.960158
        22        23        30        51     9      180.000000       -1.866275         2    ;  uncertainty k = 1.297276
        22        23        30        51     9        0.000000        0.466328         3    ;  uncertainty k = 0.292683
        22        23        30        51     9      180.000000       -0.015212         4    ;  uncertainty k = 0.082184
        23        22        11        34     9        0.000000        0.826267         1    ;  uncertainty k = 0.777607
        23        22        11        34     9      180.000000       -1.068611         2    ;  uncertainty k = 0.481826
        23        22        11        34     9        0.000000       -0.239086         3    ;  uncertainty k = 0.090803
        23        22        11        34     9      180.000000        0.001533         4    ;  uncertainty k = 0.192667
        23        22        21        42     9        0.000000        0.091060         1    ;  uncertainty k = 0.300956
        23        22        21        42     9      180.000000       -0.633900         2    ;  uncertainty k = 0.222586
        23        22        21        42     9        0.000000        0.479934         3    ;  uncertainty k = 0.097940
        23        22        21        42     9      180.000000       -0.050834         4    ;  uncertainty k = 0.101194
        23        22        21        43     9        0.000000        0.091060         1    ;  uncertainty k = 0.300956
        23        22        21        43     9      180.000000       -0.633900         2    ;  uncertainty k = 0.222586
        23        22        21        43     9        0.000000        0.479934         3    ;  uncertainty k = 0.097940
        23        22        21        43     9      180.000000       -0.050834         4    ;  uncertainty k = 0.101194
        23        24        25        26     9        0.000000        0.312413         1    ;  uncertainty k = 0.242920
        23        24        25        26     9      180.000000        8.638335         2    ;  uncertainty k = 0.468597
        23        24        25        26     9        0.000000        1.448800         3    ;  uncertainty k = 0.340804
        23        24        25        26     9      180.000000        1.905016         4    ;  uncertainty k = 0.200484
        23        24        25        46     9        0.000000        0.035753         1    ;  uncertainty k = 0.305799
        23        24        25        46     9      180.000000        7.827037         2    ;  uncertainty k = 0.268347
        23        24        25        46     9        0.000000        0.557555         3    ;  uncertainty k = 0.370060
        23        24        25        46     9      180.000000        0.865304         4    ;  uncertainty k = 0.172707
        23        24        29        28     9        0.000000        0.312414         1    ;  uncertainty k = 0.242920
        23        24        29        28     9      180.000000        8.638336         2    ;  uncertainty k = 0.468597
        23        24        29        28     9        0.000000        1.448800         3    ;  uncertainty k = 0.340804
        23        24        29        28     9      180.000000        1.905015         4    ;  uncertainty k = 0.200485
        23        24        29        50     9        0.000000        0.035754         1    ;  uncertainty k = 0.305799
        23        24        29        50     9      180.000000        7.827039         2    ;  uncertainty k = 0.268347
        23        24        29        50     9        0.000000        0.557555         3    ;  uncertainty k = 0.370060
        23        24        29        50     9      180.000000        0.865304         4    ;  uncertainty k = 0.172707
        24        23        22        44     9        0.000000        0.530296         1    ;  uncertainty k = 0.246708
        24        23        22        44     9      180.000000        0.121251         2    ;  uncertainty k = 0.617132
        24        23        22        44     9        0.000000        0.451811         3    ;  uncertainty k = 0.081496
        24        23        22        44     9      180.000000       -0.031873         4    ;  uncertainty k = 0.108858
        24        23        30        51     9        0.000000        4.878358         1    ;  uncertainty k = 0.569249
        24        23        30        51     9      180.000000       -1.058871         2    ;  uncertainty k = 0.283858
        24        23        30        51     9        0.000000        0.413857         3    ;  uncertainty k = 0.297007
        24        23        30        51     9      180.000000       -0.032689         4    ;  uncertainty k = 0.182555
        24        25        26        27     9        0.000000       -0.073184         1    ;  uncertainty k = 0.135860
        24        25        26        27     9      180.000000       13.840579         2    ;  uncertainty k = 0.218470
        24        25        26        27     9        0.000000       -0.942124         3    ;  uncertainty k = 0.500158
        24        25        26        27     9      180.000000        0.720227         4    ;  uncertainty k = 0.249573
        24        25        26        47     9        0.000000        0.078938         1    ;  uncertainty k = 0.238410
        24        25        26        47     9      180.000000        7.523902         2    ;  uncertainty k = 0.411008
        24        25        26        47     9        0.000000        1.486224         3    ;  uncertainty k = 0.266910
        24        25        26        47     9      180.000000        1.791253         4    ;  uncertainty k = 0.130361
        24        29        28        27     9        0.000000       -0.073185         1    ;  uncertainty k = 0.135860
        24        29        28        27     9      180.000000       13.840581         2    ;  uncertainty k = 0.218469
        24        29        28        27     9        0.000000       -0.942123         3    ;  uncertainty k = 0.500158
        24        29        28        27     9      180.000000        0.720227         4    ;  uncertainty k = 0.249573
        24        29        28        49     9        0.000000        0.078937         1    ;  uncertainty k = 0.238411
        24        29        28        49     9      180.000000        7.523903         2    ;  uncertainty k = 0.411008
        24        29        28        49     9        0.000000        1.486224         3    ;  uncertainty k = 0.266909
        24        29        28        49     9      180.000000        1.791253         4    ;  uncertainty k = 0.130361
        25        24        23        30     9        0.000000       -0.590755         1    ;  uncertainty k = 0.525590
        25        24        23        30     9      180.000000        2.732821         2    ;  uncertainty k = 0.257489
        25        24        23        30     9        0.000000        0.629230         3    ;  uncertainty k = 0.228491
        25        24        23        30     9      180.000000        0.435377         4    ;  uncertainty k = 0.023802
        25        24        23        45     9        0.000000       -0.618196         1    ;  uncertainty k = 0.243533
        25        24        23        45     9      180.000000        2.285546         2    ;  uncertainty k = 0.337301
        25        24        23        45     9        0.000000        0.482603         3    ;  uncertainty k = 0.112819
        25        24        23        45     9      180.000000        0.236140         4    ;  uncertainty k = 0.049741
        25        24        29        28     9        0.000000       -0.244749         1    ;  uncertainty k = 0.085031
        25        24        29        28     9      180.000000       11.550238         2    ;  uncertainty k = 0.281782
        25        24        29        28     9        0.000000       -0.471965         3    ;  uncertainty k = 0.307307
        25        24        29        28     9      180.000000        0.819629         4    ;  uncertainty k = 0.339588
        25        24        29        50     9        0.000000        0.103786         1    ;  uncertainty k = 0.115163
        25        24        29        50     9      180.000000        7.232564         2    ;  uncertainty k = 0.479326
        25        24        29        50     9        0.000000        1.441610         3    ;  uncertainty k = 0.358039
        25        24        29        50     9      180.000000        1.626932         4    ;  uncertainty k = 0.180626
        25        26        27        28     9        0.000000        0.003337         1    ;  uncertainty k = 0.036527
        25        26        27        28     9      180.000000       15.061873         2    ;  uncertainty k = 0.266781
        25        26        27        28     9        0.000000       -1.241530         3    ;  uncertainty k = 0.510934
        25        26        27        28     9      180.000000        0.486540         4    ;  uncertainty k = 0.300058
        25        26        27        48     9        0.000000        0.055743         1    ;  uncertainty k = 0.094833
        25        26        27        48     9      180.000000        7.490469         2    ;  uncertainty k = 0.333391
        25        26        27        48     9        0.000000        1.467121         3    ;  uncertainty k = 0.292765
        25        26        27        48     9      180.000000        1.797081         4    ;  uncertainty k = 0.179699
        26        25        24        29     9        0.000000       -0.244750         1    ;  uncertainty k = 0.085030
        26        25        24        29     9      180.000000       11.550240         2    ;  uncertainty k = 0.281782
        26        25        24        29     9        0.000000       -0.471965         3    ;  uncertainty k = 0.307308
        26        25        24        29     9      180.000000        0.819629         4    ;  uncertainty k = 0.339588
        26        27        28        29     9        0.000000        0.003337         1    ;  uncertainty k = 0.036528
        26        27        28        29     9      180.000000       15.061870         2    ;  uncertainty k = 0.266781
        26        27        28        29     9        0.000000       -1.241530         3    ;  uncertainty k = 0.510934
        26        27        28        29     9      180.000000        0.486539         4    ;  uncertainty k = 0.300058
        26        27        28        49     9        0.000000        0.045945         1    ;  uncertainty k = 0.040455
        26        27        28        49     9      180.000000        7.527539         2    ;  uncertainty k = 0.325491
        26        27        28        49     9        0.000000        1.433627         3    ;  uncertainty k = 0.327116
        26        27        28        49     9      180.000000        1.790207         4    ;  uncertainty k = 0.158460
        27        26        25        46     9        0.000000        0.053109         1    ;  uncertainty k = 0.076537
        27        26        25        46     9      180.000000        7.946078         2    ;  uncertainty k = 0.338884
        27        26        25        46     9        0.000000        1.427770         3    ;  uncertainty k = 0.326160
        27        26        25        46     9      180.000000        1.836125         4    ;  uncertainty k = 0.159403
        27        28        29        50     9        0.000000        0.053111         1    ;  uncertainty k = 0.076539
        27        28        29        50     9      180.000000        7.946077         2    ;  uncertainty k = 0.338882
        27        28        29        50     9        0.000000        1.427769         3    ;  uncertainty k = 0.326160
        27        28        29        50     9      180.000000        1.836126         4    ;  uncertainty k = 0.159402
        28        27        26        47     9        0.000000        0.045943         1    ;  uncertainty k = 0.040454
        28        27        26        47     9      180.000000        7.527538         2    ;  uncertainty k = 0.325491
        28        27        26        47     9        0.000000        1.433627         3    ;  uncertainty k = 0.327115
        28        27        26        47     9      180.000000        1.790207         4    ;  uncertainty k = 0.158460
        29        24        23        30     9        0.000000       -0.590755         1    ;  uncertainty k = 0.525591
        29        24        23        30     9      180.000000        2.732819         2    ;  uncertainty k = 0.257489
        29        24        23        30     9        0.000000        0.629230         3    ;  uncertainty k = 0.228491
        29        24        23        30     9      180.000000        0.435378         4    ;  uncertainty k = 0.023802
        29        24        23        45     9        0.000000       -0.618195         1    ;  uncertainty k = 0.243534
        29        24        23        45     9      180.000000        2.285546         2    ;  uncertainty k = 0.337301
        29        24        23        45     9        0.000000        0.482603         3    ;  uncertainty k = 0.112819
        29        24        23        45     9      180.000000        0.236140         4    ;  uncertainty k = 0.049741
        29        24        25        46     9        0.000000        0.103786         1    ;  uncertainty k = 0.115163
        29        24        25        46     9      180.000000        7.232565         2    ;  uncertainty k = 0.479326
        29        24        25        46     9        0.000000        1.441610         3    ;  uncertainty k = 0.358039
        29        24        25        46     9      180.000000        1.626931         4    ;  uncertainty k = 0.180626
        29        28        27        48     9        0.000000        0.055742         1    ;  uncertainty k = 0.094832
        29        28        27        48     9      180.000000        7.490469         2    ;  uncertainty k = 0.333390
        29        28        27        48     9        0.000000        1.467122         3    ;  uncertainty k = 0.292764
        29        28        27        48     9      180.000000        1.797081         4    ;  uncertainty k = 0.179699
        30         8         7        32     9        0.000000       -0.252323         1    ;  uncertainty k = 0.534719
        30         8         7        32     9      180.000000        8.173632         2    ;  uncertainty k = 0.357488
        30         8         7        32     9        0.000000        1.005199         3    ;  uncertainty k = 0.139229
        30         8         7        32     9      180.000000        1.186391         4    ;  uncertainty k = 0.335076
        30        23        22        44     9        0.000000       -0.947832         1    ;  uncertainty k = 0.627969
        30        23        22        44     9      180.000000        0.170574         2    ;  uncertainty k = 0.410475
        30        23        22        44     9        0.000000        0.627907         3    ;  uncertainty k = 0.278858
        30        23        22        44     9      180.000000        0.059564         4    ;  uncertainty k = 0.093137
        31         6         7        32     9        0.000000        0.247013         1    ;  uncertainty k = 0.623701
        31         6         7        32     9      180.000000        7.829037         2    ;  uncertainty k = 0.394733
        31         6         7        32     9        0.000000       -0.335446         3    ;  uncertainty k = 0.271687
        31         6         7        32     9      180.000000        0.202602         4    ;  uncertainty k = 0.180743
        34        11        22        44     9        0.000000        2.047548         1    ;  uncertainty k = 0.489727
        34        11        22        44     9      180.000000        0.876286         2    ;  uncertainty k = 0.462878
        34        11        22        44     9        0.000000       -0.484493         3    ;  uncertainty k = 0.218378
        34        11        22        44     9      180.000000       -0.174304         4    ;  uncertainty k = 0.073663
        35        13        14        36     9        0.000000        0.045411         1    ;  uncertainty k = 0.254030
        35        13        14        36     9      180.000000       -0.332912         2    ;  uncertainty k = 0.214394
        35        13        14        36     9        0.000000        0.136262         3    ;  uncertainty k = 0.077202
        35        13        14        36     9      180.000000       -0.013856         4    ;  uncertainty k = 0.064296
        35        13        14        37     9        0.000000        0.045411         1    ;  uncertainty k = 0.254030
        35        13        14        37     9      180.000000       -0.332912         2    ;  uncertainty k = 0.214394
        35        13        14        37     9        0.000000        0.136262         3    ;  uncertainty k = 0.077202
        35        13        14        37     9      180.000000       -0.013856         4    ;  uncertainty k = 0.064296
        35        13        20        40     9        0.000000        0.269182         1    ;  uncertainty k = 0.247605
        35        13        20        40     9      180.000000        0.156895         2    ;  uncertainty k = 0.383748
        35        13        20        40     9        0.000000       -0.037547         3    ;  uncertainty k = 0.063775
        35        13        20        40     9      180.000000       -0.179053         4    ;  uncertainty k = 0.088580
        35        13        20        41     9        0.000000        0.269182         1    ;  uncertainty k = 0.247605
        35        13        20        41     9      180.000000        0.156895         2    ;  uncertainty k = 0.383748
        35        13        20        41     9        0.000000       -0.037547         3    ;  uncertainty k = 0.063775
        35        13        20        41     9      180.000000       -0.179053         4    ;  uncertainty k = 0.088580
        40        20        21        42     9        0.000000        1.666353         1    ;  uncertainty k = 0.454819
        40        20        21        42     9      180.000000        0.124613         2    ;  uncertainty k = 0.260376
        40        20        21        42     9        0.000000        0.346714         3    ;  uncertainty k = 0.103102
        40        20        21        42     9      180.000000        0.073708         4    ;  uncertainty k = 0.022679
        40        20        21        43     9        0.000000        1.666353         1    ;  uncertainty k = 0.454819
        40        20        21        43     9      180.000000        0.124613         2    ;  uncertainty k = 0.260376
        40        20        21        43     9        0.000000        0.346714         3    ;  uncertainty k = 0.103102
        40        20        21        43     9      180.000000        0.073708         4    ;  uncertainty k = 0.022679
        41        20        21        42     9        0.000000        1.666353         1    ;  uncertainty k = 0.454819
        41        20        21        42     9      180.000000        0.124613         2    ;  uncertainty k = 0.260376
        41        20        21        42     9        0.000000        0.346714         3    ;  uncertainty k = 0.103102
        41        20        21        42     9      180.000000        0.073708         4    ;  uncertainty k = 0.022679
        41        20        21        43     9        0.000000        1.666353         1    ;  uncertainty k = 0.454819
        41        20        21        43     9      180.000000        0.124613         2    ;  uncertainty k = 0.260376
        41        20        21        43     9        0.000000        0.346714         3    ;  uncertainty k = 0.103102
        41        20        21        43     9      180.000000        0.073708         4    ;  uncertainty k = 0.022679
        42        21        22        44     9        0.000000        1.542669         1    ;  uncertainty k = 0.345017
        42        21        22        44     9      180.000000       -0.019889         2    ;  uncertainty k = 0.340909
        42        21        22        44     9        0.000000       -0.070784         3    ;  uncertainty k = 0.120115
        42        21        22        44     9      180.000000        0.014356         4    ;  uncertainty k = 0.071349
        43        21        22        44     9        0.000000        1.542669         1    ;  uncertainty k = 0.345017
        43        21        22        44     9      180.000000       -0.019889         2    ;  uncertainty k = 0.340909
        43        21        22        44     9        0.000000       -0.070784         3    ;  uncertainty k = 0.120115
        43        21        22        44     9      180.000000        0.014356         4    ;  uncertainty k = 0.071349
        44        22        23        45     9        0.000000        1.077534         1    ;  uncertainty k = 0.458221
        44        22        23        45     9      180.000000       -0.042491         2    ;  uncertainty k = 0.250349
        44        22        23        45     9        0.000000       -0.346965         3    ;  uncertainty k = 0.176981
        44        22        23        45     9      180.000000       -0.270511         4    ;  uncertainty k = 0.102482
        45        23        30        51     9        0.000000        0.468543         1    ;  uncertainty k = 0.563666
        45        23        30        51     9      180.000000       -0.983992         2    ;  uncertainty k = 0.285945
        45        23        30        51     9        0.000000        0.482175         3    ;  uncertainty k = 0.277173
        45        23        30        51     9      180.000000        0.028441         4    ;  uncertainty k = 0.127509
        46        25        26        47     9        0.000000       -0.038400         1    ;  uncertainty k = 0.034128
        46        25        26        47     9      180.000000        7.644156         2    ;  uncertainty k = 0.255447
        46        25        26        47     9        0.000000       -0.470076         3    ;  uncertainty k = 0.270053
        46        25        26        47     9      180.000000        0.106023         4    ;  uncertainty k = 0.117776
        47        26        27        48     9        0.000000       -0.016280         1    ;  uncertainty k = 0.090334
        47        26        27        48     9      180.000000        7.510682         2    ;  uncertainty k = 0.369435
        47        26        27        48     9        0.000000       -0.422665         3    ;  uncertainty k = 0.276612
        47        26        27        48     9      180.000000        0.041076         4    ;  uncertainty k = 0.155578
        48        27        28        49     9        0.000000       -0.016280         1    ;  uncertainty k = 0.090335
        48        27        28        49     9      180.000000        7.510681         2    ;  uncertainty k = 0.369436
        48        27        28        49     9        0.000000       -0.422665         3    ;  uncertainty k = 0.276611
        48        27        28        49     9      180.000000        0.041075         4    ;  uncertainty k = 0.155578
        49        28        29        50     9        0.000000       -0.038401         1    ;  uncertainty k = 0.034127
        49        28        29        50     9      180.000000        7.644157         2    ;  uncertainty k = 0.255448
        49        28        29        50     9        0.000000       -0.470075         3    ;  uncertainty k = 0.270052
        49        28        29        50     9      180.000000        0.106023         4    ;  uncertainty k = 0.117776

[ dihedrals ] ; impropers
;       ai        aj        ak        al funct           phase               k        pn
         5         2         6        10     4      180.000000        6.209818         2    ;  uncertainty k = 0.262055
         5         6        10         2     4      180.000000        6.209818         2    ;  uncertainty k = 0.262055
         5        10         2         6     4      180.000000        6.209818         2    ;  uncertainty k = 0.262055
         6         5         7        31     4      180.000000        4.856161         2    ;  uncertainty k = 0.148465
         6         7        31         5     4      180.000000        4.856161         2    ;  uncertainty k = 0.148465
         6        31         5         7     4      180.000000        4.856161         2    ;  uncertainty k = 0.148465
         7         6         8        32     4      180.000000        1.846536         2    ;  uncertainty k = 0.425681
         7         8        32         6     4      180.000000        1.846536         2    ;  uncertainty k = 0.425681
         7        32         6         8     4      180.000000        1.846536         2    ;  uncertainty k = 0.425681
         8         7         9        30     4      180.000000       21.979192         2    ;  uncertainty k = 0.135021
         8         9        30         7     4      180.000000       21.979192         2    ;  uncertainty k = 0.135021
         8        30         7         9     4      180.000000       21.979192         2    ;  uncertainty k = 0.135021
         9         8        10        11     4      180.000000       10.551824         2    ;  uncertainty k = 0.189438
         9        10        11         8     4      180.000000       10.551824         2    ;  uncertainty k = 0.189438
         9        11         8        10     4      180.000000       10.551824         2    ;  uncertainty k = 0.189438
        10         5         9        33     4      180.000000        4.574176         2    ;  uncertainty k = 0.267399
        10         9        33         5     4      180.000000        4.574176         2    ;  uncertainty k = 0.267399
        10        33         5         9     4      180.000000        4.574176         2    ;  uncertainty k = 0.267399
        16        15        17        38     4      180.000000        3.811253         2    ;  uncertainty k = 0.296960
        16        17        38        15     4      180.000000        3.811253         2    ;  uncertainty k = 0.296960
        16        38        15        17     4      180.000000        3.811253         2    ;  uncertainty k = 0.296960
        18        17        19        39     4      180.000000        4.232122         2    ;  uncertainty k = 0.364552
        18        19        39        17     4      180.000000        4.232122         2    ;  uncertainty k = 0.364552
        18        39        17        19     4      180.000000        4.232122         2    ;  uncertainty k = 0.364552
        24        23        25        29     4      180.000000       12.903617         2    ;  uncertainty k = 0.121797
        24        25        29        23     4      180.000000       12.903617         2    ;  uncertainty k = 0.121797
        24        29        23        25     4      180.000000       12.903617         2    ;  uncertainty k = 0.121797
        25        24        26        46     4      180.000000        4.073199         2    ;  uncertainty k = 0.089532
        25        26        46        24     4      180.000000        4.073199         2    ;  uncertainty k = 0.089532
        25        46        24        26     4      180.000000        4.073199         2    ;  uncertainty k = 0.089532
        26        25        27        47     4      180.000000        4.075590         2    ;  uncertainty k = 0.076310
        26        27        47        25     4      180.000000        4.075590         2    ;  uncertainty k = 0.076310
        26        47        25        27     4      180.000000        4.075590         2    ;  uncertainty k = 0.076310
        27        26        28        48     4      180.000000        4.286748         2    ;  uncertainty k = 0.163795
        27        28        48        26     4      180.000000        4.286748         2    ;  uncertainty k = 0.163795
        27        48        26        28     4      180.000000        4.286748         2    ;  uncertainty k = 0.163795
        28        27        29        49     4      180.000000        4.075596         2    ;  uncertainty k = 0.076312
        28        29        49        27     4      180.000000        4.075596         2    ;  uncertainty k = 0.076312
        28        49        27        29     4      180.000000        4.075596         2    ;  uncertainty k = 0.076312
        29        24        28        50     4      180.000000        4.073199         2    ;  uncertainty k = 0.089532
        29        28        50        24     4      180.000000        4.073199         2    ;  uncertainty k = 0.089532
        29        50        24        28     4      180.000000        4.073199         2    ;  uncertainty k = 0.089532

[ pairs ]
;       ai        aj funct
         1         6     1
         1        10     1
         2         7     1
         2         9     1
         2        31     1
         2        33     1
         3         6     1
         3        10     1
         4         6     1
         4        10     1
         5         8     1
         5        11     1
         5        32     1
         6         9     1
         6        30     1
         6        33     1
         7        10     1
         7        11     1
         7        23     1
         7        51     1
         8        12     1
         8        22     1
         8        24     1
         8        31     1
         8        33     1
         8        34     1
         8        45     1
         9        13     1
         9        21     1
         9        23     1
         9        32     1
         9        44     1
         9        51     1
        10        12     1
        10        22     1
        10        30     1
        10        31     1
        10        34     1
        11        14     1
        11        20     1
        11        24     1
        11        30     1
        11        33     1
        11        35     1
        11        42     1
        11        43     1
        11        45     1
        12        15     1
        12        21     1
        12        23     1
        12        36     1
        12        37     1
        12        40     1
        12        41     1
        12        44     1
        13        16     1
        13        19     1
        13        22     1
        13        34     1
        13        42     1
        13        43     1
        14        17     1
        14        18     1
        14        21     1
        14        38     1
        14        40     1
        14        41     1
        15        20     1
        15        35     1
        15        39     1
        16        36     1
        16        37     1
        16        39     1
        18        38     1
        19        36     1
        19        37     1
        19        38     1
        20        23     1
        20        36     1
        20        37     1
        20        44     1
        21        24     1
        21        30     1
        21        34     1
        21        35     1
        21        45     1
        22        25     1
        22        29     1
        22        40     1
        22        41     1
        22        51     1
        23        26     1
        23        28     1
        23        34     1
        23        42     1
        23        43     1
        23        46     1
        23        50     1
        24        27     1
        24        44     1
        24        47     1
        24        49     1
        24        51     1
        25        28     1
        25        30     1
        25        45     1
        25        48     1
        25        50     1
        26        29     1
        26        49     1
        27        46     1
        27        50     1
        28        47     1
        29        30     1
        29        45     1
        29        46     1
        29        48     1
        30        32     1
        30        44     1
        31        32     1
        34        44     1
        35        36     1
        35        37     1
        35        40     1
        35        41     1
        40        42     1
        40        43     1
        41        42     1
        41        43     1
        42        44     1
        43        44     1
        44        45     1
        45        51     1
        46        47     1
        47        48     1
        48        49     1
        49        50     1
