; ITP file created by ByteFF-joint-25, 2026-02-17 09:14:19.551906

[ atomtypes ]
;name           bonded.type        at.num        mass        charge   ptype           sigma         epsilon
 c0bf                                   6      0.0000       0.00000       A     3.39768e-01     4.51334e-01    ;  uncertainty sigma = 0.000008, epsilon = 0.001067
 n1bf                                   7      0.0000       0.00000       A     2.67797e-01     7.09621e+00    ;  uncertainty sigma = 0.000075, epsilon = 0.008221
 c2bf                                   6      0.0000       0.00000       A     3.39787e-01     4.52439e-01    ;  uncertainty sigma = 0.000034, epsilon = 0.001397
 c3bf                                   6      0.0000       0.00000       A     3.39780e-01     4.51679e-01    ;  uncertainty sigma = 0.000029, epsilon = 0.001962
 c4bf                                   6      0.0000       0.00000       A     3.39767e-01     4.50486e-01    ;  uncertainty sigma = 0.000012, epsilon = 0.000632
 c5bf                                   6      0.0000       0.00000       A     3.39742e-01     4.51320e-01    ;  uncertainty sigma = 0.000014, epsilon = 0.001137
 c6bf                                   6      0.0000       0.00000       A     3.39755e-01     4.50973e-01    ;  uncertainty sigma = 0.000035, epsilon = 0.000615
 c7bf                                   6      0.0000       0.00000       A     3.39771e-01     4.51627e-01    ;  uncertainty sigma = 0.000010, epsilon = 0.001353
 c8bf                                   6      0.0000       0.00000       A     3.31532e-01     4.13295e-01    ;  uncertainty sigma = 0.000012, epsilon = 0.000849
 c9bf                                   6      0.0000       0.00000       A     3.31519e-01     4.13329e-01    ;  uncertainty sigma = 0.000002, epsilon = 0.000632
 c10bf                                  6      0.0000       0.00000       A     3.31520e-01     4.13328e-01    ;  uncertainty sigma = 0.000003, epsilon = 0.000582
 c11bf                                  6      0.0000       0.00000       A     3.31518e-01     4.13340e-01    ;  uncertainty sigma = 0.000003, epsilon = 0.000580
 c12bf                                  6      0.0000       0.00000       A     3.31520e-01     4.13328e-01    ;  uncertainty sigma = 0.000003, epsilon = 0.000582
 c13bf                                  6      0.0000       0.00000       A     3.31519e-01     4.13329e-01    ;  uncertainty sigma = 0.000002, epsilon = 0.000632
 n14bf                                  7      0.0000       0.00000       A     3.27940e-01     6.43754e-01    ;  uncertainty sigma = 0.000013, epsilon = 0.005170
 c15bf                                  6      0.0000       0.00000       A     3.31564e-01     4.13412e-01    ;  uncertainty sigma = 0.000018, epsilon = 0.001459
 c16bf                                  6      0.0000       0.00000       A     3.31515e-01     4.13145e-01    ;  uncertainty sigma = 0.000013, epsilon = 0.000511
 f17bf                                  9      0.0000       0.00000       A     3.03373e-01     3.48504e-01    ;  uncertainty sigma = 0.000030, epsilon = 0.000936
 c18bf                                  6      0.0000       0.00000       A     3.31517e-01     4.13235e-01    ;  uncertainty sigma = 0.000010, epsilon = 0.000673
 c19bf                                  6      0.0000       0.00000       A     3.31502e-01     4.13225e-01    ;  uncertainty sigma = 0.000004, epsilon = 0.000605
 br20bf                                35      0.0000       0.00000       A     3.61266e-01     1.64607e+00    ;  uncertainty sigma = 0.000021, epsilon = 0.001033
 c21bf                                  6      0.0000       0.00000       A     3.31515e-01     4.13371e-01    ;  uncertainty sigma = 0.000005, epsilon = 0.000826
 c22bf                                  6      0.0000       0.00000       A     3.31542e-01     4.13616e-01    ;  uncertainty sigma = 0.000016, epsilon = 0.000603
 c23bf                                  6      0.0000       0.00000       A     3.39765e-01     4.51117e-01    ;  uncertainty sigma = 0.000021, epsilon = 0.001504
 o24bf                                  8      0.0000       0.00000       A     3.15622e-01     3.04459e-01    ;  uncertainty sigma = 0.000041, epsilon = 0.000889
 h25bf                                  1      0.0000       0.00000       A     1.88778e-01     8.64165e-02    ;  uncertainty sigma = 0.000038, epsilon = 0.000604
 h26bf                                  1      0.0000       0.00000       A     1.88778e-01     8.64165e-02    ;  uncertainty sigma = 0.000038, epsilon = 0.000604
 h27bf                                  1      0.0000       0.00000       A     1.88778e-01     8.64165e-02    ;  uncertainty sigma = 0.000038, epsilon = 0.000604
 h28bf                                  1      0.0000       0.00000       A     1.10712e-01     4.13743e-02    ;  uncertainty sigma = 0.000101, epsilon = 0.000413
 h29bf                                  1      0.0000       0.00000       A     1.88689e-01     8.72656e-02    ;  uncertainty sigma = 0.000114, epsilon = 0.000631
 h30bf                                  1      0.0000       0.00000       A     1.88689e-01     8.72656e-02    ;  uncertainty sigma = 0.000114, epsilon = 0.000631
 h31bf                                  1      0.0000       0.00000       A     2.42333e-01     8.61424e-02    ;  uncertainty sigma = 0.000111, epsilon = 0.001611
 h32bf                                  1      0.0000       0.00000       A     2.60030e-01     8.64970e-02    ;  uncertainty sigma = 0.000010, epsilon = 0.000714
 h33bf                                  1      0.0000       0.00000       A     2.60030e-01     8.64970e-02    ;  uncertainty sigma = 0.000010, epsilon = 0.000714
 h34bf                                  1      0.0000       0.00000       A     2.60028e-01     8.66832e-02    ;  uncertainty sigma = 0.000010, epsilon = 0.000720
 h35bf                                  1      0.0000       0.00000       A     2.60028e-01     8.66832e-02    ;  uncertainty sigma = 0.000010, epsilon = 0.000720
 h36bf                                  1      0.0000       0.00000       A     2.59938e-01     8.64077e-02    ;  uncertainty sigma = 0.000052, epsilon = 0.000980
 h37bf                                  1      0.0000       0.00000       A     2.42303e-01     8.69597e-02    ;  uncertainty sigma = 0.000074, epsilon = 0.001557
 h38bf                                  1      0.0000       0.00000       A     2.62560e-01     6.70315e-02    ;  uncertainty sigma = 0.000006, epsilon = 0.000529
 h39bf                                  1      0.0000       0.00000       A     2.62559e-01     6.70249e-02    ;  uncertainty sigma = 0.000010, epsilon = 0.000440
 h40bf                                  1      0.0000       0.00000       A     2.62552e-01     6.70647e-02    ;  uncertainty sigma = 0.000011, epsilon = 0.000453
 h41bf                                  1      0.0000       0.00000       A     2.62559e-01     6.70249e-02    ;  uncertainty sigma = 0.000010, epsilon = 0.000440
 h42bf                                  1      0.0000       0.00000       A     2.62560e-01     6.70315e-02    ;  uncertainty sigma = 0.000006, epsilon = 0.000529
 h43bf                                  1      0.0000       0.00000       A     1.10680e-01     4.07052e-02    ;  uncertainty sigma = 0.000120, epsilon = 0.001586
 h44bf                                  1      0.0000       0.00000       A     2.62568e-01     6.72500e-02    ;  uncertainty sigma = 0.000019, epsilon = 0.000565
 h45bf                                  1      0.0000       0.00000       A     2.62541e-01     6.70362e-02    ;  uncertainty sigma = 0.000008, epsilon = 0.000583
 h46bf                                  1      0.0000       0.00000       A     2.42239e-01     8.76589e-02    ;  uncertainty sigma = 0.000274, epsilon = 0.002166
 h47bf                                  1      0.0000       0.00000       A     1.10712e-01     4.13743e-02    ;  uncertainty sigma = 0.000101, epsilon = 0.000413

[ moleculetype ]
;name             nrexcl
 MOL                   3

[ atoms ]
;       nr            type      resi   res      atom      cgnr      charge          mass ; qtot
         1            c0bf         1   UNL        c0         1     0.11949       12.0110 ; qtot    0.119
         2            n1bf         1   UNL        n1         2    -0.78217       14.0070 ; qtot   -0.663
         3            c2bf         1   UNL        c2         3     0.12987       12.0110 ; qtot   -0.533
         4            c3bf         1   UNL        c3         4     0.12361       12.0110 ; qtot   -0.409
         5            c4bf         1   UNL        c4         5    -0.10286       12.0110 ; qtot   -0.512
         6            c5bf         1   UNL        c5         6    -0.06959       12.0110 ; qtot   -0.582
         7            c6bf         1   UNL        c6         7    -0.09480       12.0110 ; qtot   -0.676
         8            c7bf         1   UNL        c7         8     0.26381       12.0110 ; qtot   -0.413
         9            c8bf         1   UNL        c8         9    -0.10622       12.0110 ; qtot   -0.519
        10            c9bf         1   UNL        c9        10    -0.11888       12.0110 ; qtot   -0.638
        11           c10bf         1   UNL       c10        11    -0.13078       12.0110 ; qtot   -0.769
        12           c11bf         1   UNL       c11        12    -0.12452       12.0110 ; qtot   -0.893
        13           c12bf         1   UNL       c12        13    -0.13078       12.0110 ; qtot   -1.024
        14           c13bf         1   UNL       c13        14    -0.11888       12.0110 ; qtot   -1.143
        15           n14bf         1   UNL       n14        15    -0.73441       14.0070 ; qtot   -1.877
        16           c15bf         1   UNL       c15        16     0.15209       12.0110 ; qtot   -1.725
        17           c16bf         1   UNL       c16        17     0.06343       12.0110 ; qtot   -1.662
        18           f17bf         1   UNL       f17        18    -0.14897       18.9980 ; qtot   -1.811
        19           c18bf         1   UNL       c18        19    -0.09065       12.0110 ; qtot   -1.901
        20           c19bf         1   UNL       c19        20    -0.02779       12.0110 ; qtot   -1.929
        21          br20bf         1   UNL      br20        21    -0.09133       79.9040 ; qtot   -2.020
        22           c21bf         1   UNL       c21        22    -0.05324       12.0110 ; qtot   -2.074
        23           c22bf         1   UNL       c22        23    -0.13496       12.0110 ; qtot   -2.209
        24           c23bf         1   UNL       c23        24     0.20189       12.0110 ; qtot   -2.007
        25           o24bf         1   UNL       o24        25    -0.42500       15.9990 ; qtot   -2.432
        26           h25bf         1   UNL       h25        26     0.10873        1.0080 ; qtot   -2.323
        27           h26bf         1   UNL       h26        27     0.10873        1.0080 ; qtot   -2.214
        28           h27bf         1   UNL       h27        28     0.10873        1.0080 ; qtot   -2.105
        29           h28bf         1   UNL       h28        29     0.46300        1.0080 ; qtot   -1.642
        30           h29bf         1   UNL       h29        30     0.11437        1.0080 ; qtot   -1.528
        31           h30bf         1   UNL       h30        31     0.11437        1.0080 ; qtot   -1.414
        32           h31bf         1   UNL       h31        32     0.08383        1.0080 ; qtot   -1.330
        33           h32bf         1   UNL       h32        33     0.07203        1.0080 ; qtot   -1.258
        34           h33bf         1   UNL       h33        34     0.07203        1.0080 ; qtot   -1.186
        35           h34bf         1   UNL       h34        35     0.05761        1.0080 ; qtot   -1.128
        36           h35bf         1   UNL       h35        36     0.05761        1.0080 ; qtot   -1.071
        37           h36bf         1   UNL       h36        37     0.06904        1.0080 ; qtot   -1.002
        38           h37bf         1   UNL       h37        38     0.05551        1.0080 ; qtot   -0.946
        39           h38bf         1   UNL       h38        39     0.13512        1.0080 ; qtot   -0.811
        40           h39bf         1   UNL       h39        40     0.13172        1.0080 ; qtot   -0.679
        41           h40bf         1   UNL       h40        41     0.13373        1.0080 ; qtot   -0.545
        42           h41bf         1   UNL       h41        42     0.13172        1.0080 ; qtot   -0.414
        43           h42bf         1   UNL       h42        43     0.13512        1.0080 ; qtot   -0.279
        44           h43bf         1   UNL       h43        44     0.42097        1.0080 ; qtot    0.142
        45           h44bf         1   UNL       h44        45     0.17075        1.0080 ; qtot    0.313
        46           h45bf         1   UNL       h45        46     0.15631        1.0080 ; qtot    0.469
        47           h46bf         1   UNL       h46        47     0.06764        1.0080 ; qtot    0.537
        48           h47bf         1   UNL       h47        48     0.46297        1.0080 ; qtot    1.000

[ bonds ]
;       ai        aj funct               r               k
         1         2     1        0.150483   206081.638037    ;  uncertainty r = 0.000127, k = 26.323707
         1        26     1        0.108971   315101.039111    ;  uncertainty r = 0.000019, k = 3.510024
         1        27     1        0.108971   315101.039111    ;  uncertainty r = 0.000019, k = 3.510024
         1        28     1        0.108971   315101.039111    ;  uncertainty r = 0.000019, k = 3.510024
         2         3     1        0.151116   193505.569312    ;  uncertainty r = 0.000091, k = 20.286602
         2        29     1        0.102983   385701.467969    ;  uncertainty r = 0.000064, k = 3.804169
         2        48     1        0.102983   385701.416895    ;  uncertainty r = 0.000064, k = 3.804183
         3         4     1        0.153088   198525.935181    ;  uncertainty r = 0.000227, k = 18.576038
         3        30     1        0.109071   316699.023730    ;  uncertainty r = 0.000066, k = 2.655839
         3        31     1        0.109071   316699.023730    ;  uncertainty r = 0.000066, k = 2.655839
         4         5     1        0.152867   204697.437329    ;  uncertainty r = 0.000152, k = 9.509181
         4        25     1        0.142399   237284.895703    ;  uncertainty r = 0.000162, k = 14.123978
         4        32     1        0.110046   305044.499902    ;  uncertainty r = 0.000072, k = 6.484756
         5         6     1        0.153416   212553.456592    ;  uncertainty r = 0.000104, k = 6.460390
         5        33     1        0.109581   309786.868799    ;  uncertainty r = 0.000017, k = 2.349016
         5        34     1        0.109581   309786.868799    ;  uncertainty r = 0.000017, k = 2.349016
         6         7     1        0.153228   204659.846704    ;  uncertainty r = 0.000107, k = 7.769012
         6        35     1        0.109545   307326.649219    ;  uncertainty r = 0.000013, k = 1.975637
         6        36     1        0.109545   307326.649219    ;  uncertainty r = 0.000013, k = 1.975637
         7         8     1        0.153800   193320.744482    ;  uncertainty r = 0.000040, k = 8.694137
         7        24     1        0.153199   193150.156592    ;  uncertainty r = 0.000141, k = 7.813799
         7        37     1        0.109712   307584.676172    ;  uncertainty r = 0.000061, k = 3.997510
         8         9     1        0.151694   221715.430859    ;  uncertainty r = 0.000083, k = 6.119466
         8        15     1        0.146412   245465.095801    ;  uncertainty r = 0.000056, k = 13.015808
         8        38     1        0.110029   298346.729004    ;  uncertainty r = 0.000122, k = 4.232409
         9        10     1        0.139859   350947.632764    ;  uncertainty r = 0.000040, k = 0.862455
         9        14     1        0.139859   350947.632764    ;  uncertainty r = 0.000040, k = 0.862444
        10        11     1        0.139620   365997.698340    ;  uncertainty r = 0.000023, k = 1.204462
        10        39     1        0.108883   334327.852148    ;  uncertainty r = 0.000023, k = 0.510237
        11        12     1        0.139607   371240.977637    ;  uncertainty r = 0.000016, k = 0.703160
        11        40     1        0.108851   333986.906201    ;  uncertainty r = 0.000010, k = 1.017361
        12        13     1        0.139607   371240.977637    ;  uncertainty r = 0.000016, k = 0.703160
        12        41     1        0.108841   334518.920801    ;  uncertainty r = 0.000012, k = 0.635600
        13        14     1        0.139620   365997.698340    ;  uncertainty r = 0.000023, k = 1.204462
        13        42     1        0.108851   333986.906201    ;  uncertainty r = 0.000010, k = 1.017361
        14        43     1        0.108883   334327.852148    ;  uncertainty r = 0.000023, k = 0.510237
        15        16     1        0.138715   338410.163379    ;  uncertainty r = 0.000196, k = 8.125748
        15        44     1        0.101386   413993.878223    ;  uncertainty r = 0.000059, k = 1.811270
        16        17     1        0.140025   355452.455469    ;  uncertainty r = 0.000066, k = 5.610009
        16        23     1        0.140502   349651.981982    ;  uncertainty r = 0.000151, k = 20.785022
        17        18     1        0.136330   329964.045361    ;  uncertainty r = 0.000077, k = 7.580977
        17        19     1        0.138317   356654.691504    ;  uncertainty r = 0.000052, k = 9.468656
        19        20     1        0.139545   367292.940527    ;  uncertainty r = 0.000085, k = 1.181457
        19        45     1        0.108655   337506.890283    ;  uncertainty r = 0.000010, k = 1.171451
        20        21     1        0.191468   162338.510498    ;  uncertainty r = 0.000081, k = 1.510645
        20        22     1        0.139306   354828.200830    ;  uncertainty r = 0.000051, k = 4.899987
        22        23     1        0.139297   352459.250879    ;  uncertainty r = 0.000123, k = 4.267012
        22        46     1        0.108709   335543.265332    ;  uncertainty r = 0.000039, k = 1.690866
        23        24     1        0.150815   221802.001660    ;  uncertainty r = 0.000105, k = 12.740854
        24        25     1        0.144482   220255.065723    ;  uncertainty r = 0.000533, k = 5.581553
        24        47     1        0.109999   305561.115625    ;  uncertainty r = 0.000076, k = 4.906955

[ angles ]
;       ai        aj        ak funct           theta             cth
         1         2         3     1      114.120590      627.009199    ;  uncertainty theta = 0.004769, k = 0.177844
         1         2        29     1      108.045982      455.367615    ;  uncertainty theta = 0.003064, k = 0.184078
         1         2        48     1      108.045982      455.367615    ;  uncertainty theta = 0.003064, k = 0.184078
         2         1        26     1      107.931419      474.361096    ;  uncertainty theta = 0.002343, k = 0.076148
         2         1        27     1      107.931419      474.361096    ;  uncertainty theta = 0.002343, k = 0.076148
         2         1        28     1      107.931419      474.361096    ;  uncertainty theta = 0.002343, k = 0.076148
         2         3         4     1      109.598450      697.693364    ;  uncertainty theta = 0.004814, k = 0.255220
         2         3        30     1      106.173927      463.691021    ;  uncertainty theta = 0.004234, k = 0.056842
         2         3        31     1      106.173927      463.691021    ;  uncertainty theta = 0.004234, k = 0.056842
         3         2        29     1      108.767532      433.355904    ;  uncertainty theta = 0.002716, k = 0.090610
         3         2        48     1      108.767532      433.355968    ;  uncertainty theta = 0.002716, k = 0.090610
         3         4         5     1      111.614769      560.640997    ;  uncertainty theta = 0.007674, k = 0.188529
         3         4        25     1      105.573448      576.645614    ;  uncertainty theta = 0.004356, k = 0.105581
         3         4        32     1      108.340309      391.475523    ;  uncertainty theta = 0.003241, k = 0.118548
         4         3        30     1      110.351929      396.491490    ;  uncertainty theta = 0.002550, k = 0.130995
         4         3        31     1      110.351929      396.491490    ;  uncertainty theta = 0.002550, k = 0.130995
         4         5         6     1      108.895370      585.539551    ;  uncertainty theta = 0.003340, k = 0.194982
         4         5        33     1      107.555092      391.789726    ;  uncertainty theta = 0.001626, k = 0.061237
         4         5        34     1      107.555092      391.789726    ;  uncertainty theta = 0.001626, k = 0.061237
         4        25        24     1      110.443420      513.425946    ;  uncertainty theta = 0.009338, k = 0.136334
         5         4        25     1      111.184608      678.864534    ;  uncertainty theta = 0.004632, k = 0.105968
         5         4        32     1      109.805496      407.525437    ;  uncertainty theta = 0.003064, k = 0.039288
         5         6         7     1      109.833923      574.050916    ;  uncertainty theta = 0.003440, k = 0.116783
         5         6        35     1      108.479469      406.340866    ;  uncertainty theta = 0.002257, k = 0.104005
         5         6        36     1      108.479469      406.340866    ;  uncertainty theta = 0.002257, k = 0.104005
         6         5        33     1      109.112206      400.373163    ;  uncertainty theta = 0.000987, k = 0.042731
         6         5        34     1      109.112206      400.373163    ;  uncertainty theta = 0.000987, k = 0.042731
         6         7         8     1      110.518692      549.309224    ;  uncertainty theta = 0.001205, k = 0.168276
         6         7        24     1      109.545090      584.111580    ;  uncertainty theta = 0.001902, k = 0.135337
         6         7        37     1      107.962402      399.558210    ;  uncertainty theta = 0.002830, k = 0.103744
         7         6        35     1      108.184448      389.052562    ;  uncertainty theta = 0.001625, k = 0.073415
         7         6        36     1      108.184448      389.052562    ;  uncertainty theta = 0.001625, k = 0.073415
         7         8         9     1      111.710739      536.791444    ;  uncertainty theta = 0.002579, k = 0.172522
         7         8        15     1      108.273865      704.451505    ;  uncertainty theta = 0.003996, k = 0.104661
         7         8        38     1      107.093971      386.028905    ;  uncertainty theta = 0.002703, k = 0.126280
         7        24        23     1      111.874771      555.020598    ;  uncertainty theta = 0.005289, k = 0.255838
         7        24        25     1      110.862572      663.540225    ;  uncertainty theta = 0.005295, k = 0.082224
         7        24        47     1      108.289352      394.428475    ;  uncertainty theta = 0.004005, k = 0.125762
         8         7        24     1      109.371109      552.397937    ;  uncertainty theta = 0.004939, k = 0.134949
         8         7        37     1      105.919556      390.293698    ;  uncertainty theta = 0.001590, k = 0.089845
         8         9        10     1      119.869118      424.511222    ;  uncertainty theta = 0.003274, k = 0.143273
         8         9        14     1      119.869118      424.511222    ;  uncertainty theta = 0.003274, k = 0.143273
         8        15        16     1      113.560837      394.461514    ;  uncertainty theta = 0.004658, k = 0.146825
         8        15        44     1      110.517822      342.921051    ;  uncertainty theta = 0.003889, k = 0.119522
         9         8        15     1      110.952232      663.025206    ;  uncertainty theta = 0.001005, k = 0.195907
         9         8        38     1      106.363998      410.332508    ;  uncertainty theta = 0.001972, k = 0.092032
         9        10        11     1      121.166641      520.322945    ;  uncertainty theta = 0.001889, k = 0.047519
         9        10        39     1      118.895851      266.730000    ;  uncertainty theta = 0.002264, k = 0.064094
         9        14        13     1      121.166641      520.322945    ;  uncertainty theta = 0.001889, k = 0.047519
         9        14        43     1      118.895851      266.730000    ;  uncertainty theta = 0.002264, k = 0.064094
        10         9        14     1      120.206970      460.017476    ;  uncertainty theta = 0.003029, k = 0.098153
        10        11        12     1      119.685776      513.267201    ;  uncertainty theta = 0.000971, k = 0.012607
        10        11        40     1      120.211227      283.897609    ;  uncertainty theta = 0.001315, k = 0.018226
        11        10        39     1      120.235497      292.477280    ;  uncertainty theta = 0.001696, k = 0.031107
        11        12        13     1      118.246803      526.555213    ;  uncertainty theta = 0.000903, k = 0.024013
        11        12        41     1      120.647278      289.320829    ;  uncertainty theta = 0.001403, k = 0.006566
        12        11        40     1      120.620949      287.638700    ;  uncertainty theta = 0.001444, k = 0.012507
        12        13        14     1      119.685776      513.267201    ;  uncertainty theta = 0.000971, k = 0.012607
        12        13        42     1      120.620949      287.638700    ;  uncertainty theta = 0.001444, k = 0.012507
        13        12        41     1      120.647278      289.320829    ;  uncertainty theta = 0.001403, k = 0.006566
        13        14        43     1      120.235497      292.477280    ;  uncertainty theta = 0.001696, k = 0.031107
        14        13        42     1      120.211227      283.897609    ;  uncertainty theta = 0.001315, k = 0.018226
        15         8        38     1      107.718811      454.950307    ;  uncertainty theta = 0.004217, k = 0.106072
        15        16        17     1      121.037674      489.796203    ;  uncertainty theta = 0.004792, k = 0.295984
        15        16        23     1      123.093407      486.515323    ;  uncertainty theta = 0.010873, k = 0.287986
        16        15        44     1      111.821854      374.016185    ;  uncertainty theta = 0.005086, k = 0.141288
        16        17        18     1      115.949234      451.024423    ;  uncertainty theta = 0.002877, k = 0.265914
        16        17        19     1      124.355873      367.850824    ;  uncertainty theta = 0.001697, k = 0.147517
        16        23        22     1      121.983681      460.234541    ;  uncertainty theta = 0.005139, k = 0.158067
        16        23        24     1      119.085526      362.611567    ;  uncertainty theta = 0.006728, k = 0.404286
        17        16        23     1      117.610794      364.299889    ;  uncertainty theta = 0.009059, k = 0.291735
        17        19        20     1      117.952248      472.090240    ;  uncertainty theta = 0.002067, k = 0.086641
        17        19        45     1      120.341690      277.358194    ;  uncertainty theta = 0.001024, k = 0.084775
        18        17        19     1      119.427536      515.838277    ;  uncertainty theta = 0.002219, k = 0.137228
        19        20        21     1      119.638306      407.208362    ;  uncertainty theta = 0.002846, k = 0.057598
        19        20        22     1      121.726784      381.530639    ;  uncertainty theta = 0.003225, k = 0.205824
        20        19        45     1      122.663406      282.606197    ;  uncertainty theta = 0.001561, k = 0.051194
        20        22        23     1      120.531639      496.211508    ;  uncertainty theta = 0.004158, k = 0.075950
        20        22        46     1      120.944557      291.224142    ;  uncertainty theta = 0.001158, k = 0.097624
        21        20        22     1      120.038315      387.809544    ;  uncertainty theta = 0.002664, k = 0.116963
        22        23        24     1      119.189865      405.245356    ;  uncertainty theta = 0.004496, k = 0.165265
        23        22        46     1      118.930466      263.813359    ;  uncertainty theta = 0.003255, k = 0.113867
        23        24        25     1      108.711594      637.831954    ;  uncertainty theta = 0.007253, k = 0.317132
        23        24        47     1      108.651894      390.596504    ;  uncertainty theta = 0.004064, k = 0.078461
        24         7        37     1      106.208755      398.918569    ;  uncertainty theta = 0.003818, k = 0.099775
        25         4        32     1      107.426926      460.516727    ;  uncertainty theta = 0.001967, k = 0.139024
        25        24        47     1      105.892715      446.871994    ;  uncertainty theta = 0.004791, k = 0.109327
        26         1        27     1      108.721092      320.814597    ;  uncertainty theta = 0.003586, k = 0.093752
        26         1        28     1      108.721092      320.814597    ;  uncertainty theta = 0.003586, k = 0.093752
        27         1        28     1      108.721092      320.814597    ;  uncertainty theta = 0.003586, k = 0.093752
        29         2        48     1      107.282349      386.616226    ;  uncertainty theta = 0.003315, k = 0.113073
        30         3        31     1      108.328140      321.052220    ;  uncertainty theta = 0.003491, k = 0.028257
        33         5        34     1      105.294052      315.680074    ;  uncertainty theta = 0.003522, k = 0.050334
        35         6        36     1      104.613731      315.378257    ;  uncertainty theta = 0.002142, k = 0.035841

[ dihedrals ] ; propers for gromacs 4.5 or higher, use funct 9
;       ai        aj        ak        al funct           phase               k        pn
         1         2         3         4     9        0.000000        0.006307         1    ;  uncertainty k = 0.613229
         1         2         3         4     9      180.000000       -0.114237         2    ;  uncertainty k = 0.415972
         1         2         3         4     9        0.000000        1.040043         3    ;  uncertainty k = 0.119339
         1         2         3         4     9      180.000000       -0.032395         4    ;  uncertainty k = 0.060764
         1         2         3        30     9        0.000000       -0.681364         1    ;  uncertainty k = 0.600000
         1         2         3        30     9      180.000000       -0.166488         2    ;  uncertainty k = 0.352829
         1         2         3        30     9        0.000000        1.116541         3    ;  uncertainty k = 0.125614
         1         2         3        30     9      180.000000       -0.031562         4    ;  uncertainty k = 0.158992
         1         2         3        31     9        0.000000       -0.681364         1    ;  uncertainty k = 0.600000
         1         2         3        31     9      180.000000       -0.166488         2    ;  uncertainty k = 0.352829
         1         2         3        31     9        0.000000        1.116541         3    ;  uncertainty k = 0.125614
         1         2         3        31     9      180.000000       -0.031562         4    ;  uncertainty k = 0.158992
         2         3         4         5     9        0.000000       -0.192842         1    ;  uncertainty k = 1.826378
         2         3         4         5     9      180.000000       -0.466817         2    ;  uncertainty k = 0.525044
         2         3         4         5     9        0.000000        1.279870         3    ;  uncertainty k = 0.178848
         2         3         4         5     9      180.000000       -0.249067         4    ;  uncertainty k = 0.245717
         2         3         4        25     9        0.000000        2.349269         1    ;  uncertainty k = 1.437200
         2         3         4        25     9      180.000000       -3.528204         2    ;  uncertainty k = 0.748986
         2         3         4        25     9        0.000000        1.531946         3    ;  uncertainty k = 0.566496
         2         3         4        25     9      180.000000       -0.376382         4    ;  uncertainty k = 0.239672
         2         3         4        32     9        0.000000       -1.869553         1    ;  uncertainty k = 1.010165
         2         3         4        32     9      180.000000       -3.171111         2    ;  uncertainty k = 0.668409
         2         3         4        32     9        0.000000        0.860126         3    ;  uncertainty k = 0.296104
         2         3         4        32     9      180.000000       -0.078855         4    ;  uncertainty k = 0.120480
         3         2         1        26     9        0.000000       -0.505377         1    ;  uncertainty k = 0.211290
         3         2         1        26     9      180.000000       -0.945608         2    ;  uncertainty k = 0.623550
         3         2         1        26     9        0.000000        1.326998         3    ;  uncertainty k = 0.071761
         3         2         1        26     9      180.000000        0.033431         4    ;  uncertainty k = 0.103499
         3         2         1        27     9        0.000000       -0.505377         1    ;  uncertainty k = 0.211290
         3         2         1        27     9      180.000000       -0.945608         2    ;  uncertainty k = 0.623550
         3         2         1        27     9        0.000000        1.326998         3    ;  uncertainty k = 0.071761
         3         2         1        27     9      180.000000        0.033431         4    ;  uncertainty k = 0.103499
         3         2         1        28     9        0.000000       -0.505377         1    ;  uncertainty k = 0.211290
         3         2         1        28     9      180.000000       -0.945608         2    ;  uncertainty k = 0.623550
         3         2         1        28     9        0.000000        1.326998         3    ;  uncertainty k = 0.071761
         3         2         1        28     9      180.000000        0.033431         4    ;  uncertainty k = 0.103499
         3         4         5         6     9        0.000000       -2.847939         1    ;  uncertainty k = 0.794688
         3         4         5         6     9      180.000000        0.088279         2    ;  uncertainty k = 0.395161
         3         4         5         6     9        0.000000        0.738844         3    ;  uncertainty k = 0.150315
         3         4         5         6     9      180.000000       -0.462124         4    ;  uncertainty k = 0.103024
         3         4         5        33     9        0.000000       -1.119444         1    ;  uncertainty k = 0.957409
         3         4         5        33     9      180.000000       -0.715773         2    ;  uncertainty k = 0.299910
         3         4         5        33     9        0.000000        0.391575         3    ;  uncertainty k = 0.152965
         3         4         5        33     9      180.000000       -0.297820         4    ;  uncertainty k = 0.139712
         3         4         5        34     9        0.000000       -1.119444         1    ;  uncertainty k = 0.957409
         3         4         5        34     9      180.000000       -0.715773         2    ;  uncertainty k = 0.299910
         3         4         5        34     9        0.000000        0.391575         3    ;  uncertainty k = 0.152965
         3         4         5        34     9      180.000000       -0.297820         4    ;  uncertainty k = 0.139712
         3         4        25        24     9        0.000000       -5.409744         1    ;  uncertainty k = 1.360359
         3         4        25        24     9      180.000000       -0.859715         2    ;  uncertainty k = 0.781927
         3         4        25        24     9        0.000000        0.648685         3    ;  uncertainty k = 0.334364
         3         4        25        24     9      180.000000       -0.099821         4    ;  uncertainty k = 0.163759
         4         3         2        29     9        0.000000        1.040456         1    ;  uncertainty k = 0.462708
         4         3         2        29     9      180.000000       -0.379617         2    ;  uncertainty k = 0.417857
         4         3         2        29     9        0.000000        0.621486         3    ;  uncertainty k = 0.115494
         4         3         2        29     9      180.000000       -0.147759         4    ;  uncertainty k = 0.112672
         4         3         2        48     9        0.000000        1.040455         1    ;  uncertainty k = 0.462707
         4         3         2        48     9      180.000000       -0.379615         2    ;  uncertainty k = 0.417857
         4         3         2        48     9        0.000000        0.621486         3    ;  uncertainty k = 0.115494
         4         3         2        48     9      180.000000       -0.147759         4    ;  uncertainty k = 0.112672
         4         5         6         7     9        0.000000       -4.316529         1    ;  uncertainty k = 0.772558
         4         5         6         7     9      180.000000       -0.591049         2    ;  uncertainty k = 0.852513
         4         5         6         7     9        0.000000        1.208239         3    ;  uncertainty k = 0.260495
         4         5         6         7     9      180.000000       -0.789506         4    ;  uncertainty k = 0.127773
         4         5         6        35     9        0.000000       -0.919158         1    ;  uncertainty k = 0.463309
         4         5         6        35     9      180.000000       -0.761609         2    ;  uncertainty k = 0.256263
         4         5         6        35     9        0.000000        0.441824         3    ;  uncertainty k = 0.160725
         4         5         6        35     9      180.000000        0.025063         4    ;  uncertainty k = 0.050537
         4         5         6        36     9        0.000000       -0.919158         1    ;  uncertainty k = 0.463309
         4         5         6        36     9      180.000000       -0.761609         2    ;  uncertainty k = 0.256263
         4         5         6        36     9        0.000000        0.441824         3    ;  uncertainty k = 0.160725
         4         5         6        36     9      180.000000        0.025063         4    ;  uncertainty k = 0.050537
         4        25        24         7     9        0.000000        4.052854         1    ;  uncertainty k = 1.708371
         4        25        24         7     9      180.000000       -1.575527         2    ;  uncertainty k = 1.260412
         4        25        24         7     9        0.000000        0.143391         3    ;  uncertainty k = 0.208196
         4        25        24         7     9      180.000000        0.094183         4    ;  uncertainty k = 0.207124
         4        25        24        23     9        0.000000       -1.927728         1    ;  uncertainty k = 1.430150
         4        25        24        23     9      180.000000       -1.202507         2    ;  uncertainty k = 0.932978
         4        25        24        23     9        0.000000        0.927306         3    ;  uncertainty k = 0.446595
         4        25        24        23     9      180.000000       -0.033045         4    ;  uncertainty k = 0.156527
         4        25        24        47     9        0.000000       -2.275233         1    ;  uncertainty k = 0.744456
         4        25        24        47     9      180.000000       -0.805220         2    ;  uncertainty k = 0.624399
         4        25        24        47     9        0.000000        0.473020         3    ;  uncertainty k = 0.140708
         4        25        24        47     9      180.000000       -0.108069         4    ;  uncertainty k = 0.132454
         5         4         3        30     9        0.000000       -1.215280         1    ;  uncertainty k = 0.723438
         5         4         3        30     9      180.000000        0.107645         2    ;  uncertainty k = 0.263703
         5         4         3        30     9        0.000000        0.508795         3    ;  uncertainty k = 0.156143
         5         4         3        30     9      180.000000       -0.151933         4    ;  uncertainty k = 0.073562
         5         4         3        31     9        0.000000       -1.215280         1    ;  uncertainty k = 0.723438
         5         4         3        31     9      180.000000        0.107645         2    ;  uncertainty k = 0.263703
         5         4         3        31     9        0.000000        0.508795         3    ;  uncertainty k = 0.156143
         5         4         3        31     9      180.000000       -0.151933         4    ;  uncertainty k = 0.073562
         5         4        25        24     9        0.000000        1.501888         1    ;  uncertainty k = 3.161409
         5         4        25        24     9      180.000000       -1.587633         2    ;  uncertainty k = 0.322299
         5         4        25        24     9        0.000000        0.069813         3    ;  uncertainty k = 0.466064
         5         4        25        24     9      180.000000        0.018192         4    ;  uncertainty k = 0.225409
         5         6         7         8     9        0.000000       -3.363170         1    ;  uncertainty k = 0.742268
         5         6         7         8     9      180.000000        0.071751         2    ;  uncertainty k = 0.312799
         5         6         7         8     9        0.000000        1.124568         3    ;  uncertainty k = 0.200626
         5         6         7         8     9      180.000000       -0.475393         4    ;  uncertainty k = 0.204527
         5         6         7        24     9        0.000000       -3.107037         1    ;  uncertainty k = 0.477556
         5         6         7        24     9      180.000000        0.168163         2    ;  uncertainty k = 0.506564
         5         6         7        24     9        0.000000        1.016829         3    ;  uncertainty k = 0.222713
         5         6         7        24     9      180.000000       -0.720418         4    ;  uncertainty k = 0.109069
         5         6         7        37     9        0.000000       -2.352554         1    ;  uncertainty k = 0.594151
         5         6         7        37     9      180.000000        0.210550         2    ;  uncertainty k = 0.333282
         5         6         7        37     9        0.000000        0.038572         3    ;  uncertainty k = 0.071262
         5         6         7        37     9      180.000000       -0.090296         4    ;  uncertainty k = 0.093046
         6         5         4        25     9        0.000000       -2.543186         1    ;  uncertainty k = 0.753226
         6         5         4        25     9      180.000000       -0.388859         2    ;  uncertainty k = 0.844210
         6         5         4        25     9        0.000000        1.403658         3    ;  uncertainty k = 0.414972
         6         5         4        25     9      180.000000       -0.411455         4    ;  uncertainty k = 0.367577
         6         5         4        32     9        0.000000       -0.220960         1    ;  uncertainty k = 0.645956
         6         5         4        32     9      180.000000       -1.249832         2    ;  uncertainty k = 0.419999
         6         5         4        32     9        0.000000       -0.139485         3    ;  uncertainty k = 0.171593
         6         5         4        32     9      180.000000        0.104141         4    ;  uncertainty k = 0.142921
         6         7         8         9     9        0.000000       -0.447922         1    ;  uncertainty k = 0.366790
         6         7         8         9     9      180.000000        0.088146         2    ;  uncertainty k = 0.221033
         6         7         8         9     9        0.000000        1.028729         3    ;  uncertainty k = 0.140036
         6         7         8         9     9      180.000000       -0.032074         4    ;  uncertainty k = 0.096594
         6         7         8        15     9        0.000000       -2.577169         1    ;  uncertainty k = 0.352701
         6         7         8        15     9      180.000000        0.569582         2    ;  uncertainty k = 0.358597
         6         7         8        15     9        0.000000        1.081273         3    ;  uncertainty k = 0.202969
         6         7         8        15     9      180.000000       -0.299721         4    ;  uncertainty k = 0.285730
         6         7         8        38     9        0.000000       -0.342724         1    ;  uncertainty k = 0.368858
         6         7         8        38     9      180.000000       -0.364333         2    ;  uncertainty k = 0.206572
         6         7         8        38     9        0.000000        0.086826         3    ;  uncertainty k = 0.165536
         6         7         8        38     9      180.000000       -0.107598         4    ;  uncertainty k = 0.079866
         6         7        24        23     9        0.000000       -1.689603         1    ;  uncertainty k = 1.012667
         6         7        24        23     9      180.000000       -0.679839         2    ;  uncertainty k = 0.268481
         6         7        24        23     9        0.000000        0.633199         3    ;  uncertainty k = 0.177005
         6         7        24        23     9      180.000000       -0.192121         4    ;  uncertainty k = 0.124975
         6         7        24        25     9        0.000000       -1.394172         1    ;  uncertainty k = 0.741932
         6         7        24        25     9      180.000000       -1.614308         2    ;  uncertainty k = 0.845920
         6         7        24        25     9        0.000000        1.010972         3    ;  uncertainty k = 0.359776
         6         7        24        25     9      180.000000       -0.088778         4    ;  uncertainty k = 0.276431
         6         7        24        47     9        0.000000        0.259727         1    ;  uncertainty k = 0.542085
         6         7        24        47     9      180.000000       -0.444667         2    ;  uncertainty k = 0.384046
         6         7        24        47     9        0.000000       -0.184892         3    ;  uncertainty k = 0.150832
         6         7        24        47     9      180.000000       -0.042372         4    ;  uncertainty k = 0.136108
         7         6         5        33     9        0.000000       -0.843110         1    ;  uncertainty k = 0.414564
         7         6         5        33     9      180.000000       -0.523802         2    ;  uncertainty k = 0.298175
         7         6         5        33     9        0.000000        0.489652         3    ;  uncertainty k = 0.086635
         7         6         5        33     9      180.000000       -0.059656         4    ;  uncertainty k = 0.079811
         7         6         5        34     9        0.000000       -0.843110         1    ;  uncertainty k = 0.414564
         7         6         5        34     9      180.000000       -0.523802         2    ;  uncertainty k = 0.298175
         7         6         5        34     9        0.000000        0.489652         3    ;  uncertainty k = 0.086635
         7         6         5        34     9      180.000000       -0.059656         4    ;  uncertainty k = 0.079811
         7         8         9        10     9        0.000000       -0.111537         1    ;  uncertainty k = 0.709383
         7         8         9        10     9      180.000000        1.832259         2    ;  uncertainty k = 0.233886
         7         8         9        10     9        0.000000        0.274101         3    ;  uncertainty k = 0.144963
         7         8         9        10     9      180.000000        0.245319         4    ;  uncertainty k = 0.077451
         7         8         9        14     9        0.000000       -0.111537         1    ;  uncertainty k = 0.709383
         7         8         9        14     9      180.000000        1.832259         2    ;  uncertainty k = 0.233886
         7         8         9        14     9        0.000000        0.274101         3    ;  uncertainty k = 0.144963
         7         8         9        14     9      180.000000        0.245319         4    ;  uncertainty k = 0.077451
         7         8        15        16     9        0.000000        0.550597         1    ;  uncertainty k = 1.300109
         7         8        15        16     9      180.000000        0.292978         2    ;  uncertainty k = 0.542641
         7         8        15        16     9        0.000000        0.278536         3    ;  uncertainty k = 0.226569
         7         8        15        16     9      180.000000        0.170656         4    ;  uncertainty k = 0.180478
         7         8        15        44     9        0.000000        3.364422         1    ;  uncertainty k = 0.792659
         7         8        15        44     9      180.000000       -1.771652         2    ;  uncertainty k = 1.305731
         7         8        15        44     9        0.000000        0.478059         3    ;  uncertainty k = 0.318344
         7         8        15        44     9      180.000000       -0.021921         4    ;  uncertainty k = 0.075868
         7        24        23        16     9        0.000000        0.175680         1    ;  uncertainty k = 2.605584
         7        24        23        16     9      180.000000        0.140930         2    ;  uncertainty k = 1.276337
         7        24        23        16     9        0.000000       -0.040981         3    ;  uncertainty k = 0.771029
         7        24        23        16     9      180.000000        0.764579         4    ;  uncertainty k = 0.224253
         7        24        23        22     9        0.000000       -1.479586         1    ;  uncertainty k = 0.650761
         7        24        23        22     9      180.000000        0.023507         2    ;  uncertainty k = 0.512952
         7        24        23        22     9        0.000000       -0.114896         3    ;  uncertainty k = 0.198956
         7        24        23        22     9      180.000000        0.417667         4    ;  uncertainty k = 0.141572
         8         7         6        35     9        0.000000        0.103087         1    ;  uncertainty k = 0.332245
         8         7         6        35     9      180.000000       -0.605754         2    ;  uncertainty k = 0.237562
         8         7         6        35     9        0.000000        0.476132         3    ;  uncertainty k = 0.090982
         8         7         6        35     9      180.000000       -0.048434         4    ;  uncertainty k = 0.096566
         8         7         6        36     9        0.000000        0.103087         1    ;  uncertainty k = 0.332245
         8         7         6        36     9      180.000000       -0.605754         2    ;  uncertainty k = 0.237562
         8         7         6        36     9        0.000000        0.476132         3    ;  uncertainty k = 0.090982
         8         7         6        36     9      180.000000       -0.048434         4    ;  uncertainty k = 0.096566
         8         7        24        23     9        0.000000        1.170293         1    ;  uncertainty k = 1.032428
         8         7        24        23     9      180.000000       -2.139090         2    ;  uncertainty k = 0.473764
         8         7        24        23     9        0.000000        0.269976         3    ;  uncertainty k = 0.221622
         8         7        24        23     9      180.000000       -0.143267         4    ;  uncertainty k = 0.161186
         8         7        24        25     9        0.000000       -0.869595         1    ;  uncertainty k = 1.097227
         8         7        24        25     9      180.000000       -3.566740         2    ;  uncertainty k = 1.447665
         8         7        24        25     9        0.000000        0.694839         3    ;  uncertainty k = 0.273392
         8         7        24        25     9      180.000000        0.062247         4    ;  uncertainty k = 0.371925
         8         7        24        47     9        0.000000        0.813703         1    ;  uncertainty k = 0.700637
         8         7        24        47     9      180.000000       -0.971874         2    ;  uncertainty k = 0.521349
         8         7        24        47     9        0.000000       -0.242701         3    ;  uncertainty k = 0.104748
         8         7        24        47     9      180.000000       -0.004206         4    ;  uncertainty k = 0.204479
         8         9        10        11     9        0.000000        0.315475         1    ;  uncertainty k = 0.262602
         8         9        10        11     9      180.000000        8.621091         2    ;  uncertainty k = 0.465138
         8         9        10        11     9        0.000000        1.453888         3    ;  uncertainty k = 0.336787
         8         9        10        11     9      180.000000        1.906667         4    ;  uncertainty k = 0.204333
         8         9        10        39     9        0.000000        0.041226         1    ;  uncertainty k = 0.295434
         8         9        10        39     9      180.000000        7.823420         2    ;  uncertainty k = 0.255813
         8         9        10        39     9        0.000000        0.567730         3    ;  uncertainty k = 0.365385
         8         9        10        39     9      180.000000        0.878203         4    ;  uncertainty k = 0.166432
         8         9        14        13     9        0.000000        0.315475         1    ;  uncertainty k = 0.262602
         8         9        14        13     9      180.000000        8.621091         2    ;  uncertainty k = 0.465138
         8         9        14        13     9        0.000000        1.453888         3    ;  uncertainty k = 0.336787
         8         9        14        13     9      180.000000        1.906667         4    ;  uncertainty k = 0.204333
         8         9        14        43     9        0.000000        0.041226         1    ;  uncertainty k = 0.295434
         8         9        14        43     9      180.000000        7.823420         2    ;  uncertainty k = 0.255813
         8         9        14        43     9        0.000000        0.567730         3    ;  uncertainty k = 0.365385
         8         9        14        43     9      180.000000        0.878203         4    ;  uncertainty k = 0.166432
         8        15        16        17     9        0.000000        2.391356         1    ;  uncertainty k = 1.771557
         8        15        16        17     9      180.000000        2.569159         2    ;  uncertainty k = 0.890412
         8        15        16        17     9        0.000000        0.739510         3    ;  uncertainty k = 0.321251
         8        15        16        17     9      180.000000        0.369029         4    ;  uncertainty k = 0.157978
         8        15        16        23     9        0.000000        3.279649         1    ;  uncertainty k = 1.243965
         8        15        16        23     9      180.000000        1.975532         2    ;  uncertainty k = 0.707311
         8        15        16        23     9        0.000000       -0.321547         3    ;  uncertainty k = 0.371331
         8        15        16        23     9      180.000000        0.549698         4    ;  uncertainty k = 0.224211
         9         8         7        24     9        0.000000       -0.584168         1    ;  uncertainty k = 0.746669
         9         8         7        24     9      180.000000       -0.385590         2    ;  uncertainty k = 0.403902
         9         8         7        24     9        0.000000        0.411835         3    ;  uncertainty k = 0.218581
         9         8         7        24     9      180.000000       -0.043372         4    ;  uncertainty k = 0.143034
         9         8         7        37     9        0.000000        0.521826         1    ;  uncertainty k = 0.245890
         9         8         7        37     9      180.000000        0.128842         2    ;  uncertainty k = 0.617819
         9         8         7        37     9        0.000000        0.456514         3    ;  uncertainty k = 0.077842
         9         8         7        37     9      180.000000       -0.031889         4    ;  uncertainty k = 0.109122
         9         8        15        16     9        0.000000       -1.276483         1    ;  uncertainty k = 0.766279
         9         8        15        16     9      180.000000        0.110425         2    ;  uncertainty k = 0.140674
         9         8        15        16     9        0.000000        1.045072         3    ;  uncertainty k = 0.235984
         9         8        15        16     9      180.000000        0.231250         4    ;  uncertainty k = 0.093371
         9         8        15        44     9        0.000000        4.853101         1    ;  uncertainty k = 0.666151
         9         8        15        44     9      180.000000       -0.863729         2    ;  uncertainty k = 0.353945
         9         8        15        44     9        0.000000        0.434146         3    ;  uncertainty k = 0.251029
         9         8        15        44     9      180.000000       -0.043424         4    ;  uncertainty k = 0.187740
         9        10        11        12     9        0.000000       -0.073185         1    ;  uncertainty k = 0.135863
         9        10        11        12     9      180.000000       13.840581         2    ;  uncertainty k = 0.218470
         9        10        11        12     9        0.000000       -0.942124         3    ;  uncertainty k = 0.500159
         9        10        11        12     9      180.000000        0.720226         4    ;  uncertainty k = 0.249573
         9        10        11        40     9        0.000000        0.078937         1    ;  uncertainty k = 0.238410
         9        10        11        40     9      180.000000        7.523904         2    ;  uncertainty k = 0.411008
         9        10        11        40     9        0.000000        1.486224         3    ;  uncertainty k = 0.266910
         9        10        11        40     9      180.000000        1.791252         4    ;  uncertainty k = 0.130361
         9        14        13        12     9        0.000000       -0.073185         1    ;  uncertainty k = 0.135863
         9        14        13        12     9      180.000000       13.840581         2    ;  uncertainty k = 0.218470
         9        14        13        12     9        0.000000       -0.942124         3    ;  uncertainty k = 0.500159
         9        14        13        12     9      180.000000        0.720226         4    ;  uncertainty k = 0.249573
         9        14        13        42     9        0.000000        0.078937         1    ;  uncertainty k = 0.238410
         9        14        13        42     9      180.000000        7.523904         2    ;  uncertainty k = 0.411008
         9        14        13        42     9        0.000000        1.486224         3    ;  uncertainty k = 0.266910
         9        14        13        42     9      180.000000        1.791252         4    ;  uncertainty k = 0.130361
        10         9         8        15     9        0.000000       -0.587440         1    ;  uncertainty k = 0.650241
        10         9         8        15     9      180.000000        2.752986         2    ;  uncertainty k = 0.235149
        10         9         8        15     9        0.000000        0.633136         3    ;  uncertainty k = 0.233844
        10         9         8        15     9      180.000000        0.456102         4    ;  uncertainty k = 0.027417
        10         9         8        38     9        0.000000       -0.605120         1    ;  uncertainty k = 0.219677
        10         9         8        38     9      180.000000        2.297380         2    ;  uncertainty k = 0.337137
        10         9         8        38     9        0.000000        0.473321         3    ;  uncertainty k = 0.111321
        10         9         8        38     9      180.000000        0.234329         4    ;  uncertainty k = 0.048057
        10         9        14        13     9        0.000000       -0.244750         1    ;  uncertainty k = 0.085030
        10         9        14        13     9      180.000000       11.550238         2    ;  uncertainty k = 0.281782
        10         9        14        13     9        0.000000       -0.471965         3    ;  uncertainty k = 0.307308
        10         9        14        13     9      180.000000        0.819629         4    ;  uncertainty k = 0.339588
        10         9        14        43     9        0.000000        0.103785         1    ;  uncertainty k = 0.115164
        10         9        14        43     9      180.000000        7.232566         2    ;  uncertainty k = 0.479326
        10         9        14        43     9        0.000000        1.441609         3    ;  uncertainty k = 0.358039
        10         9        14        43     9      180.000000        1.626932         4    ;  uncertainty k = 0.180627
        10        11        12        13     9        0.000000        0.003338         1    ;  uncertainty k = 0.036528
        10        11        12        13     9      180.000000       15.061872         2    ;  uncertainty k = 0.266781
        10        11        12        13     9        0.000000       -1.241530         3    ;  uncertainty k = 0.510933
        10        11        12        13     9      180.000000        0.486539         4    ;  uncertainty k = 0.300059
        10        11        12        41     9        0.000000        0.055743         1    ;  uncertainty k = 0.094833
        10        11        12        41     9      180.000000        7.490470         2    ;  uncertainty k = 0.333391
        10        11        12        41     9        0.000000        1.467121         3    ;  uncertainty k = 0.292765
        10        11        12        41     9      180.000000        1.797081         4    ;  uncertainty k = 0.179698
        11        10         9        14     9        0.000000       -0.244750         1    ;  uncertainty k = 0.085030
        11        10         9        14     9      180.000000       11.550238         2    ;  uncertainty k = 0.281782
        11        10         9        14     9        0.000000       -0.471965         3    ;  uncertainty k = 0.307308
        11        10         9        14     9      180.000000        0.819629         4    ;  uncertainty k = 0.339588
        11        12        13        14     9        0.000000        0.003338         1    ;  uncertainty k = 0.036528
        11        12        13        14     9      180.000000       15.061872         2    ;  uncertainty k = 0.266781
        11        12        13        14     9        0.000000       -1.241530         3    ;  uncertainty k = 0.510933
        11        12        13        14     9      180.000000        0.486539         4    ;  uncertainty k = 0.300059
        11        12        13        42     9        0.000000        0.045944         1    ;  uncertainty k = 0.040455
        11        12        13        42     9      180.000000        7.527539         2    ;  uncertainty k = 0.325490
        11        12        13        42     9        0.000000        1.433627         3    ;  uncertainty k = 0.327115
        11        12        13        42     9      180.000000        1.790207         4    ;  uncertainty k = 0.158460
        12        11        10        39     9        0.000000        0.053110         1    ;  uncertainty k = 0.076538
        12        11        10        39     9      180.000000        7.946075         2    ;  uncertainty k = 0.338884
        12        11        10        39     9        0.000000        1.427770         3    ;  uncertainty k = 0.326160
        12        11        10        39     9      180.000000        1.836126         4    ;  uncertainty k = 0.159402
        12        13        14        43     9        0.000000        0.053110         1    ;  uncertainty k = 0.076538
        12        13        14        43     9      180.000000        7.946075         2    ;  uncertainty k = 0.338884
        12        13        14        43     9        0.000000        1.427770         3    ;  uncertainty k = 0.326160
        12        13        14        43     9      180.000000        1.836126         4    ;  uncertainty k = 0.159402
        13        12        11        40     9        0.000000        0.045944         1    ;  uncertainty k = 0.040455
        13        12        11        40     9      180.000000        7.527539         2    ;  uncertainty k = 0.325490
        13        12        11        40     9        0.000000        1.433627         3    ;  uncertainty k = 0.327115
        13        12        11        40     9      180.000000        1.790207         4    ;  uncertainty k = 0.158460
        14         9         8        15     9        0.000000       -0.587440         1    ;  uncertainty k = 0.650241
        14         9         8        15     9      180.000000        2.752986         2    ;  uncertainty k = 0.235149
        14         9         8        15     9        0.000000        0.633136         3    ;  uncertainty k = 0.233844
        14         9         8        15     9      180.000000        0.456102         4    ;  uncertainty k = 0.027417
        14         9         8        38     9        0.000000       -0.605120         1    ;  uncertainty k = 0.219677
        14         9         8        38     9      180.000000        2.297380         2    ;  uncertainty k = 0.337137
        14         9         8        38     9        0.000000        0.473321         3    ;  uncertainty k = 0.111321
        14         9         8        38     9      180.000000        0.234329         4    ;  uncertainty k = 0.048057
        14         9        10        39     9        0.000000        0.103785         1    ;  uncertainty k = 0.115164
        14         9        10        39     9      180.000000        7.232566         2    ;  uncertainty k = 0.479326
        14         9        10        39     9        0.000000        1.441609         3    ;  uncertainty k = 0.358039
        14         9        10        39     9      180.000000        1.626932         4    ;  uncertainty k = 0.180627
        14        13        12        41     9        0.000000        0.055743         1    ;  uncertainty k = 0.094833
        14        13        12        41     9      180.000000        7.490470         2    ;  uncertainty k = 0.333391
        14        13        12        41     9        0.000000        1.467121         3    ;  uncertainty k = 0.292765
        14        13        12        41     9      180.000000        1.797081         4    ;  uncertainty k = 0.179698
        15         8         7        24     9        0.000000        0.049541         1    ;  uncertainty k = 2.124532
        15         8         7        24     9      180.000000       -1.313313         2    ;  uncertainty k = 0.461565
        15         8         7        24     9        0.000000        0.518165         3    ;  uncertainty k = 0.430642
        15         8         7        24     9      180.000000       -0.148429         4    ;  uncertainty k = 0.391704
        15         8         7        37     9        0.000000       -0.987504         1    ;  uncertainty k = 0.658849
        15         8         7        37     9      180.000000        0.141272         2    ;  uncertainty k = 0.387448
        15         8         7        37     9        0.000000        0.636103         3    ;  uncertainty k = 0.252693
        15         8         7        37     9      180.000000        0.058629         4    ;  uncertainty k = 0.106340
        15        16        17        18     9        0.000000       -0.060083         1    ;  uncertainty k = 0.590287
        15        16        17        18     9      180.000000       11.126910         2    ;  uncertainty k = 0.350929
        15        16        17        18     9        0.000000        0.831575         3    ;  uncertainty k = 0.133696
        15        16        17        18     9      180.000000        1.168919         4    ;  uncertainty k = 0.315287
        15        16        17        19     9        0.000000        0.088918         1    ;  uncertainty k = 0.544071
        15        16        17        19     9      180.000000        6.964617         2    ;  uncertainty k = 0.322045
        15        16        17        19     9        0.000000        1.148935         3    ;  uncertainty k = 0.296949
        15        16        17        19     9      180.000000        1.660977         4    ;  uncertainty k = 0.199224
        15        16        23        22     9        0.000000        0.477887         1    ;  uncertainty k = 0.399691
        15        16        23        22     9      180.000000        7.471603         2    ;  uncertainty k = 0.312160
        15        16        23        22     9        0.000000        0.992344         3    ;  uncertainty k = 0.143783
        15        16        23        22     9      180.000000        1.466913         4    ;  uncertainty k = 0.364863
        15        16        23        24     9        0.000000        0.044405         1    ;  uncertainty k = 0.630277
        15        16        23        24     9      180.000000        7.768386         2    ;  uncertainty k = 1.013167
        15        16        23        24     9        0.000000        0.654437         3    ;  uncertainty k = 0.596730
        15        16        23        24     9      180.000000        1.220021         4    ;  uncertainty k = 0.495626
        16        15         8        38     9        0.000000       -0.900699         1    ;  uncertainty k = 0.549589
        16        15         8        38     9      180.000000       -0.516685         2    ;  uncertainty k = 0.381663
        16        15         8        38     9        0.000000        0.691905         3    ;  uncertainty k = 0.185457
        16        15         8        38     9      180.000000        0.230822         4    ;  uncertainty k = 0.071840
        16        17        19        20     9        0.000000        0.009006         1    ;  uncertainty k = 0.120063
        16        17        19        20     9      180.000000        9.491498         2    ;  uncertainty k = 0.531876
        16        17        19        20     9        0.000000        0.360121         3    ;  uncertainty k = 0.440836
        16        17        19        20     9      180.000000        1.280678         4    ;  uncertainty k = 0.325008
        16        17        19        45     9        0.000000        0.412675         1    ;  uncertainty k = 0.285802
        16        17        19        45     9      180.000000        6.193922         2    ;  uncertainty k = 0.765170
        16        17        19        45     9        0.000000        1.347450         3    ;  uncertainty k = 0.433252
        16        17        19        45     9      180.000000        1.514887         4    ;  uncertainty k = 0.238880
        16        23        22        20     9        0.000000       -0.158158         1    ;  uncertainty k = 0.259234
        16        23        22        20     9      180.000000       12.801579         2    ;  uncertainty k = 0.353836
        16        23        22        20     9        0.000000       -0.440076         3    ;  uncertainty k = 0.437524
        16        23        22        20     9      180.000000        1.033790         4    ;  uncertainty k = 0.386259
        16        23        22        46     9        0.000000        0.403965         1    ;  uncertainty k = 0.444840
        16        23        22        46     9      180.000000        8.088946         2    ;  uncertainty k = 0.715130
        16        23        22        46     9        0.000000        1.421554         3    ;  uncertainty k = 0.300875
        16        23        22        46     9      180.000000        1.657838         4    ;  uncertainty k = 0.128932
        16        23        24        25     9        0.000000       -1.973741         1    ;  uncertainty k = 1.893029
        16        23        24        25     9      180.000000        0.114140         2    ;  uncertainty k = 1.057589
        16        23        24        25     9        0.000000        1.439095         3    ;  uncertainty k = 0.414307
        16        23        24        25     9      180.000000       -0.038291         4    ;  uncertainty k = 0.199549
        16        23        24        47     9        0.000000       -0.401857         1    ;  uncertainty k = 0.824321
        16        23        24        47     9      180.000000        2.149322         2    ;  uncertainty k = 0.251130
        16        23        24        47     9        0.000000        0.459195         3    ;  uncertainty k = 0.305757
        16        23        24        47     9      180.000000       -0.205002         4    ;  uncertainty k = 0.121417
        17        16        15        44     9        0.000000        4.797814         1    ;  uncertainty k = 1.034286
        17        16        15        44     9      180.000000        3.853521         2    ;  uncertainty k = 0.744415
        17        16        15        44     9        0.000000        0.759458         3    ;  uncertainty k = 0.324614
        17        16        15        44     9      180.000000        0.073414         4    ;  uncertainty k = 0.226041
        17        16        23        22     9        0.000000        0.247430         1    ;  uncertainty k = 0.341936
        17        16        23        22     9      180.000000        5.620797         2    ;  uncertainty k = 0.518533
        17        16        23        22     9        0.000000        0.470651         3    ;  uncertainty k = 0.354365
        17        16        23        22     9      180.000000        1.417636         4    ;  uncertainty k = 0.303743
        17        16        23        24     9        0.000000        0.657626         1    ;  uncertainty k = 0.586897
        17        16        23        24     9      180.000000        5.691840         2    ;  uncertainty k = 0.485094
        17        16        23        24     9        0.000000        1.217146         3    ;  uncertainty k = 0.384653
        17        16        23        24     9      180.000000        1.462367         4    ;  uncertainty k = 0.247716
        17        19        20        21     9        0.000000        0.040161         1    ;  uncertainty k = 0.354157
        17        19        20        21     9      180.000000        8.954691         2    ;  uncertainty k = 0.705512
        17        19        20        21     9        0.000000        1.430356         3    ;  uncertainty k = 0.513844
        17        19        20        21     9      180.000000        1.646683         4    ;  uncertainty k = 0.172009
        17        19        20        22     9        0.000000       -0.040818         1    ;  uncertainty k = 0.213618
        17        19        20        22     9      180.000000       10.035956         2    ;  uncertainty k = 0.401036
        17        19        20        22     9        0.000000       -0.304528         3    ;  uncertainty k = 0.469022
        17        19        20        22     9      180.000000        1.205197         4    ;  uncertainty k = 0.279421
        18        17        16        23     9        0.000000        0.326652         1    ;  uncertainty k = 0.470562
        18        17        16        23     9      180.000000        8.375475         2    ;  uncertainty k = 0.599616
        18        17        16        23     9        0.000000        1.576070         3    ;  uncertainty k = 0.229625
        18        17        16        23     9      180.000000        1.562451         4    ;  uncertainty k = 0.264235
        18        17        19        20     9        0.000000        0.091398         1    ;  uncertainty k = 0.302839
        18        17        19        20     9      180.000000       14.402964         2    ;  uncertainty k = 0.535126
        18        17        19        20     9        0.000000        1.501230         3    ;  uncertainty k = 0.227760
        18        17        19        20     9      180.000000        1.446633         4    ;  uncertainty k = 0.335813
        18        17        19        45     9        0.000000       -0.186101         1    ;  uncertainty k = 0.272583
        18        17        19        45     9      180.000000        9.880581         2    ;  uncertainty k = 0.436690
        18        17        19        45     9        0.000000        0.877926         3    ;  uncertainty k = 0.253249
        18        17        19        45     9      180.000000        1.095357         4    ;  uncertainty k = 0.298512
        19        17        16        23     9        0.000000       -0.094495         1    ;  uncertainty k = 0.676460
        19        17        16        23     9      180.000000        4.265858         2    ;  uncertainty k = 1.613470
        19        17        16        23     9        0.000000        0.435808         3    ;  uncertainty k = 0.523661
        19        17        16        23     9      180.000000        1.313952         4    ;  uncertainty k = 0.340619
        19        20        22        23     9        0.000000        0.025092         1    ;  uncertainty k = 0.185760
        19        20        22        23     9      180.000000        9.808076         2    ;  uncertainty k = 0.304552
        19        20        22        23     9        0.000000       -0.153074         3    ;  uncertainty k = 0.709628
        19        20        22        23     9      180.000000        1.304572         4    ;  uncertainty k = 0.371509
        19        20        22        46     9        0.000000       -0.067340         1    ;  uncertainty k = 0.187781
        19        20        22        46     9      180.000000        6.567591         2    ;  uncertainty k = 0.513907
        19        20        22        46     9        0.000000        1.467478         3    ;  uncertainty k = 0.411814
        19        20        22        46     9      180.000000        1.638651         4    ;  uncertainty k = 0.161799
        20        22        23        24     9        0.000000        0.201666         1    ;  uncertainty k = 0.416472
        20        22        23        24     9      180.000000       10.316846         2    ;  uncertainty k = 0.474697
        20        22        23        24     9        0.000000        1.379324         3    ;  uncertainty k = 0.262591
        20        22        23        24     9      180.000000        1.807741         4    ;  uncertainty k = 0.478927
        21        20        19        45     9        0.000000        0.125104         1    ;  uncertainty k = 0.415084
        21        20        19        45     9      180.000000        6.785021         2    ;  uncertainty k = 0.550711
        21        20        19        45     9        0.000000        0.689935         3    ;  uncertainty k = 0.454847
        21        20        19        45     9      180.000000        0.926966         4    ;  uncertainty k = 0.178610
        21        20        22        23     9        0.000000       -0.012995         1    ;  uncertainty k = 0.198611
        21        20        22        23     9      180.000000        9.267808         2    ;  uncertainty k = 0.538114
        21        20        22        23     9        0.000000        1.391768         3    ;  uncertainty k = 0.445063
        21        20        22        23     9      180.000000        1.591384         4    ;  uncertainty k = 0.100517
        21        20        22        46     9        0.000000        0.163579         1    ;  uncertainty k = 0.389269
        21        20        22        46     9      180.000000        7.384287         2    ;  uncertainty k = 0.545223
        21        20        22        46     9        0.000000        0.814260         3    ;  uncertainty k = 0.365361
        21        20        22        46     9      180.000000        1.020295         4    ;  uncertainty k = 0.224898
        22        20        19        45     9        0.000000        0.049149         1    ;  uncertainty k = 0.100352
        22        20        19        45     9      180.000000        5.953376         2    ;  uncertainty k = 0.555637
        22        20        19        45     9        0.000000        1.432580         3    ;  uncertainty k = 0.302055
        22        20        19        45     9      180.000000        1.521489         4    ;  uncertainty k = 0.137963
        22        23        24        25     9        0.000000        0.431408         1    ;  uncertainty k = 0.243794
        22        23        24        25     9      180.000000        1.266436         2    ;  uncertainty k = 0.388500
        22        23        24        25     9        0.000000       -0.226181         3    ;  uncertainty k = 0.453343
        22        23        24        25     9      180.000000        0.089871         4    ;  uncertainty k = 0.128307
        22        23        24        47     9        0.000000        0.379649         1    ;  uncertainty k = 0.796149
        22        23        24        47     9      180.000000        1.929367         2    ;  uncertainty k = 0.383040
        22        23        24        47     9        0.000000        0.097499         3    ;  uncertainty k = 0.126209
        22        23        24        47     9      180.000000        0.000554         4    ;  uncertainty k = 0.177490
        23        16        15        44     9        0.000000        9.987733         1    ;  uncertainty k = 0.573993
        23        16        15        44     9      180.000000        5.051653         2    ;  uncertainty k = 0.524626
        23        16        15        44     9        0.000000        0.360339         3    ;  uncertainty k = 0.274960
        23        16        15        44     9      180.000000        0.193157         4    ;  uncertainty k = 0.187783
        23        24         7        37     9        0.000000       -0.329383         1    ;  uncertainty k = 1.132184
        23        24         7        37     9      180.000000        0.629786         2    ;  uncertainty k = 0.441174
        23        24         7        37     9        0.000000        0.020851         3    ;  uncertainty k = 0.102442
        23        24         7        37     9      180.000000       -0.055848         4    ;  uncertainty k = 0.094840
        24         7         6        35     9        0.000000       -0.383492         1    ;  uncertainty k = 0.499843
        24         7         6        35     9      180.000000       -0.696050         2    ;  uncertainty k = 0.137723
        24         7         6        35     9        0.000000        0.282282         3    ;  uncertainty k = 0.123198
        24         7         6        35     9      180.000000       -0.015025         4    ;  uncertainty k = 0.051604
        24         7         6        36     9        0.000000       -0.383492         1    ;  uncertainty k = 0.499843
        24         7         6        36     9      180.000000       -0.696050         2    ;  uncertainty k = 0.137723
        24         7         6        36     9        0.000000        0.282282         3    ;  uncertainty k = 0.123198
        24         7         6        36     9      180.000000       -0.015025         4    ;  uncertainty k = 0.051604
        24         7         8        38     9        0.000000        0.546888         1    ;  uncertainty k = 0.755991
        24         7         8        38     9      180.000000       -1.399570         2    ;  uncertainty k = 0.690948
        24         7         8        38     9        0.000000       -0.376058         3    ;  uncertainty k = 0.139347
        24         7         8        38     9      180.000000        0.007791         4    ;  uncertainty k = 0.136392
        24        23        22        46     9        0.000000       -0.238704         1    ;  uncertainty k = 0.558294
        24        23        22        46     9      180.000000        8.181591         2    ;  uncertainty k = 0.849684
        24        23        22        46     9        0.000000        0.764564         3    ;  uncertainty k = 0.294633
        24        23        22        46     9      180.000000        1.118649         4    ;  uncertainty k = 0.451719
        24        25         4        32     9        0.000000       -2.044191         1    ;  uncertainty k = 1.613777
        24        25         4        32     9      180.000000       -0.895347         2    ;  uncertainty k = 0.513515
        24        25         4        32     9        0.000000        0.239975         3    ;  uncertainty k = 0.051485
        24        25         4        32     9      180.000000        0.021874         4    ;  uncertainty k = 0.154711
        25         4         3        30     9        0.000000        1.173469         1    ;  uncertainty k = 0.977602
        25         4         3        30     9      180.000000       -0.816408         2    ;  uncertainty k = 0.269217
        25         4         3        30     9        0.000000        0.408876         3    ;  uncertainty k = 0.294467
        25         4         3        30     9      180.000000       -0.106316         4    ;  uncertainty k = 0.200540
        25         4         3        31     9        0.000000        1.173469         1    ;  uncertainty k = 0.977602
        25         4         3        31     9      180.000000       -0.816408         2    ;  uncertainty k = 0.269217
        25         4         3        31     9        0.000000        0.408876         3    ;  uncertainty k = 0.294467
        25         4         3        31     9      180.000000       -0.106316         4    ;  uncertainty k = 0.200540
        25         4         5        33     9        0.000000       -1.120835         1    ;  uncertainty k = 0.408236
        25         4         5        33     9      180.000000       -1.089182         2    ;  uncertainty k = 0.426856
        25         4         5        33     9        0.000000        1.052287         3    ;  uncertainty k = 0.240256
        25         4         5        33     9      180.000000       -0.072184         4    ;  uncertainty k = 0.050785
        25         4         5        34     9        0.000000       -1.120835         1    ;  uncertainty k = 0.408236
        25         4         5        34     9      180.000000       -1.089182         2    ;  uncertainty k = 0.426856
        25         4         5        34     9        0.000000        1.052287         3    ;  uncertainty k = 0.240256
        25         4         5        34     9      180.000000       -0.072184         4    ;  uncertainty k = 0.050785
        25        24         7        37     9        0.000000       -0.599672         1    ;  uncertainty k = 0.310196
        25        24         7        37     9      180.000000        0.363478         2    ;  uncertainty k = 0.541303
        25        24         7        37     9        0.000000        0.108874         3    ;  uncertainty k = 0.296422
        25        24         7        37     9      180.000000       -0.135735         4    ;  uncertainty k = 0.133604
        26         1         2        29     9        0.000000       -0.199733         1    ;  uncertainty k = 0.663171
        26         1         2        29     9      180.000000       -0.359616         2    ;  uncertainty k = 0.485978
        26         1         2        29     9        0.000000        0.552467         3    ;  uncertainty k = 0.121280
        26         1         2        29     9      180.000000        0.083020         4    ;  uncertainty k = 0.112026
        26         1         2        48     9        0.000000       -0.199732         1    ;  uncertainty k = 0.663171
        26         1         2        48     9      180.000000       -0.359616         2    ;  uncertainty k = 0.485978
        26         1         2        48     9        0.000000        0.552467         3    ;  uncertainty k = 0.121279
        26         1         2        48     9      180.000000        0.083020         4    ;  uncertainty k = 0.112026
        27         1         2        29     9        0.000000       -0.199733         1    ;  uncertainty k = 0.663171
        27         1         2        29     9      180.000000       -0.359616         2    ;  uncertainty k = 0.485978
        27         1         2        29     9        0.000000        0.552467         3    ;  uncertainty k = 0.121280
        27         1         2        29     9      180.000000        0.083020         4    ;  uncertainty k = 0.112026
        27         1         2        48     9        0.000000       -0.199732         1    ;  uncertainty k = 0.663171
        27         1         2        48     9      180.000000       -0.359616         2    ;  uncertainty k = 0.485978
        27         1         2        48     9        0.000000        0.552467         3    ;  uncertainty k = 0.121279
        27         1         2        48     9      180.000000        0.083020         4    ;  uncertainty k = 0.112026
        28         1         2        29     9        0.000000       -0.199733         1    ;  uncertainty k = 0.663171
        28         1         2        29     9      180.000000       -0.359616         2    ;  uncertainty k = 0.485978
        28         1         2        29     9        0.000000        0.552467         3    ;  uncertainty k = 0.121280
        28         1         2        29     9      180.000000        0.083020         4    ;  uncertainty k = 0.112026
        28         1         2        48     9        0.000000       -0.199732         1    ;  uncertainty k = 0.663171
        28         1         2        48     9      180.000000       -0.359616         2    ;  uncertainty k = 0.485978
        28         1         2        48     9        0.000000        0.552467         3    ;  uncertainty k = 0.121279
        28         1         2        48     9      180.000000        0.083020         4    ;  uncertainty k = 0.112026
        29         2         3        30     9        0.000000        0.344846         1    ;  uncertainty k = 0.569641
        29         2         3        30     9      180.000000       -0.270675         2    ;  uncertainty k = 0.212261
        29         2         3        30     9        0.000000        0.296373         3    ;  uncertainty k = 0.102911
        29         2         3        30     9      180.000000        0.019633         4    ;  uncertainty k = 0.099171
        29         2         3        31     9        0.000000        0.344846         1    ;  uncertainty k = 0.569641
        29         2         3        31     9      180.000000       -0.270675         2    ;  uncertainty k = 0.212261
        29         2         3        31     9        0.000000        0.296373         3    ;  uncertainty k = 0.102911
        29         2         3        31     9      180.000000        0.019633         4    ;  uncertainty k = 0.099171
        30         3         2        48     9        0.000000        0.344845         1    ;  uncertainty k = 0.569640
        30         3         2        48     9      180.000000       -0.270674         2    ;  uncertainty k = 0.212262
        30         3         2        48     9        0.000000        0.296373         3    ;  uncertainty k = 0.102911
        30         3         2        48     9      180.000000        0.019633         4    ;  uncertainty k = 0.099171
        30         3         4        32     9        0.000000       -0.216190         1    ;  uncertainty k = 0.375570
        30         3         4        32     9      180.000000        0.070681         2    ;  uncertainty k = 0.423812
        30         3         4        32     9        0.000000        0.186558         3    ;  uncertainty k = 0.185130
        30         3         4        32     9      180.000000       -0.045535         4    ;  uncertainty k = 0.059390
        31         3         2        48     9        0.000000        0.344845         1    ;  uncertainty k = 0.569640
        31         3         2        48     9      180.000000       -0.270674         2    ;  uncertainty k = 0.212262
        31         3         2        48     9        0.000000        0.296373         3    ;  uncertainty k = 0.102911
        31         3         2        48     9      180.000000        0.019633         4    ;  uncertainty k = 0.099171
        31         3         4        32     9        0.000000       -0.216190         1    ;  uncertainty k = 0.375570
        31         3         4        32     9      180.000000        0.070681         2    ;  uncertainty k = 0.423812
        31         3         4        32     9        0.000000        0.186558         3    ;  uncertainty k = 0.185130
        31         3         4        32     9      180.000000       -0.045535         4    ;  uncertainty k = 0.059390
        32         4         5        33     9        0.000000        0.455768         1    ;  uncertainty k = 0.162016
        32         4         5        33     9      180.000000        0.067803         2    ;  uncertainty k = 0.345289
        32         4         5        33     9        0.000000       -0.022970         3    ;  uncertainty k = 0.136639
        32         4         5        33     9      180.000000       -0.119005         4    ;  uncertainty k = 0.074424
        32         4         5        34     9        0.000000        0.455768         1    ;  uncertainty k = 0.162016
        32         4         5        34     9      180.000000        0.067803         2    ;  uncertainty k = 0.345289
        32         4         5        34     9        0.000000       -0.022970         3    ;  uncertainty k = 0.136639
        32         4         5        34     9      180.000000       -0.119005         4    ;  uncertainty k = 0.074424
        33         5         6        35     9        0.000000        1.565776         1    ;  uncertainty k = 0.444564
        33         5         6        35     9      180.000000        0.161485         2    ;  uncertainty k = 0.255154
        33         5         6        35     9        0.000000        0.367677         3    ;  uncertainty k = 0.120802
        33         5         6        35     9      180.000000        0.076828         4    ;  uncertainty k = 0.017254
        33         5         6        36     9        0.000000        1.565776         1    ;  uncertainty k = 0.444564
        33         5         6        36     9      180.000000        0.161485         2    ;  uncertainty k = 0.255154
        33         5         6        36     9        0.000000        0.367677         3    ;  uncertainty k = 0.120802
        33         5         6        36     9      180.000000        0.076828         4    ;  uncertainty k = 0.017254
        34         5         6        35     9        0.000000        1.565776         1    ;  uncertainty k = 0.444564
        34         5         6        35     9      180.000000        0.161485         2    ;  uncertainty k = 0.255154
        34         5         6        35     9        0.000000        0.367677         3    ;  uncertainty k = 0.120802
        34         5         6        35     9      180.000000        0.076828         4    ;  uncertainty k = 0.017254
        34         5         6        36     9        0.000000        1.565776         1    ;  uncertainty k = 0.444564
        34         5         6        36     9      180.000000        0.161485         2    ;  uncertainty k = 0.255154
        34         5         6        36     9        0.000000        0.367677         3    ;  uncertainty k = 0.120802
        34         5         6        36     9      180.000000        0.076828         4    ;  uncertainty k = 0.017254
        35         6         7        37     9        0.000000        1.556154         1    ;  uncertainty k = 0.374248
        35         6         7        37     9      180.000000       -0.010848         2    ;  uncertainty k = 0.316684
        35         6         7        37     9        0.000000       -0.074251         3    ;  uncertainty k = 0.123289
        35         6         7        37     9      180.000000        0.022583         4    ;  uncertainty k = 0.073589
        36         6         7        37     9        0.000000        1.556154         1    ;  uncertainty k = 0.374248
        36         6         7        37     9      180.000000       -0.010848         2    ;  uncertainty k = 0.316684
        36         6         7        37     9        0.000000       -0.074251         3    ;  uncertainty k = 0.123289
        36         6         7        37     9      180.000000        0.022583         4    ;  uncertainty k = 0.073589
        37         7         8        38     9        0.000000        1.060795         1    ;  uncertainty k = 0.473342
        37         7         8        38     9      180.000000       -0.041496         2    ;  uncertainty k = 0.253895
        37         7         8        38     9        0.000000       -0.344094         3    ;  uncertainty k = 0.165557
        37         7         8        38     9      180.000000       -0.269487         4    ;  uncertainty k = 0.106351
        37         7        24        47     9        0.000000        2.070001         1    ;  uncertainty k = 0.438242
        37         7        24        47     9      180.000000        0.850401         2    ;  uncertainty k = 0.443950
        37         7        24        47     9        0.000000       -0.470101         3    ;  uncertainty k = 0.236052
        37         7        24        47     9      180.000000       -0.163558         4    ;  uncertainty k = 0.061839
        38         8        15        44     9        0.000000        0.363982         1    ;  uncertainty k = 0.625038
        38         8        15        44     9      180.000000       -0.862575         2    ;  uncertainty k = 0.318184
        38         8        15        44     9        0.000000        0.523809         3    ;  uncertainty k = 0.251385
        38         8        15        44     9      180.000000        0.051527         4    ;  uncertainty k = 0.122685
        39        10        11        40     9        0.000000       -0.038401         1    ;  uncertainty k = 0.034127
        39        10        11        40     9      180.000000        7.644155         2    ;  uncertainty k = 0.255448
        39        10        11        40     9        0.000000       -0.470075         3    ;  uncertainty k = 0.270053
        39        10        11        40     9      180.000000        0.106023         4    ;  uncertainty k = 0.117776
        40        11        12        41     9        0.000000       -0.016279         1    ;  uncertainty k = 0.090335
        40        11        12        41     9      180.000000        7.510681         2    ;  uncertainty k = 0.369437
        40        11        12        41     9        0.000000       -0.422665         3    ;  uncertainty k = 0.276612
        40        11        12        41     9      180.000000        0.041075         4    ;  uncertainty k = 0.155578
        41        12        13        42     9        0.000000       -0.016279         1    ;  uncertainty k = 0.090335
        41        12        13        42     9      180.000000        7.510681         2    ;  uncertainty k = 0.369437
        41        12        13        42     9        0.000000       -0.422665         3    ;  uncertainty k = 0.276612
        41        12        13        42     9      180.000000        0.041075         4    ;  uncertainty k = 0.155578
        42        13        14        43     9        0.000000       -0.038401         1    ;  uncertainty k = 0.034127
        42        13        14        43     9      180.000000        7.644155         2    ;  uncertainty k = 0.255448
        42        13        14        43     9        0.000000       -0.470075         3    ;  uncertainty k = 0.270053
        42        13        14        43     9      180.000000        0.106023         4    ;  uncertainty k = 0.117776

[ dihedrals ] ; impropers
;       ai        aj        ak        al funct           phase               k        pn
         9         8        10        14     4      180.000000       12.872177         2    ;  uncertainty k = 0.122291
         9        10        14         8     4      180.000000       12.872177         2    ;  uncertainty k = 0.122291
         9        14         8        10     4      180.000000       12.872177         2    ;  uncertainty k = 0.122291
        10         9        11        39     4      180.000000        4.073199         2    ;  uncertainty k = 0.089533
        10        11        39         9     4      180.000000        4.073199         2    ;  uncertainty k = 0.089533
        10        39         9        11     4      180.000000        4.073199         2    ;  uncertainty k = 0.089533
        11        10        12        40     4      180.000000        4.075594         2    ;  uncertainty k = 0.076311
        11        12        40        10     4      180.000000        4.075594         2    ;  uncertainty k = 0.076311
        11        40        10        12     4      180.000000        4.075594         2    ;  uncertainty k = 0.076311
        12        11        13        41     4      180.000000        4.286747         2    ;  uncertainty k = 0.163794
        12        13        41        11     4      180.000000        4.286747         2    ;  uncertainty k = 0.163794
        12        41        11        13     4      180.000000        4.286747         2    ;  uncertainty k = 0.163794
        13        12        14        42     4      180.000000        4.075594         2    ;  uncertainty k = 0.076311
        13        14        42        12     4      180.000000        4.075594         2    ;  uncertainty k = 0.076311
        13        42        12        14     4      180.000000        4.075594         2    ;  uncertainty k = 0.076311
        14         9        13        43     4      180.000000        4.073199         2    ;  uncertainty k = 0.089533
        14        13        43         9     4      180.000000        4.073199         2    ;  uncertainty k = 0.089533
        14        43         9        13     4      180.000000        4.073199         2    ;  uncertainty k = 0.089533
        16        15        17        23     4      180.000000       18.238755         2    ;  uncertainty k = 0.120667
        16        17        23        15     4      180.000000       18.238755         2    ;  uncertainty k = 0.120667
        16        23        15        17     4      180.000000       18.238755         2    ;  uncertainty k = 0.120667
        17        16        18        19     4      180.000000       10.213185         2    ;  uncertainty k = 0.191744
        17        18        19        16     4      180.000000       10.213185         2    ;  uncertainty k = 0.191744
        17        19        16        18     4      180.000000       10.213185         2    ;  uncertainty k = 0.191744
        19        17        20        45     4      180.000000        2.235718         2    ;  uncertainty k = 0.158488
        19        20        45        17     4      180.000000        2.235718         2    ;  uncertainty k = 0.158488
        19        45        17        20     4      180.000000        2.235718         2    ;  uncertainty k = 0.158488
        20        19        21        22     4      180.000000       10.277731         2    ;  uncertainty k = 0.169849
        20        21        22        19     4      180.000000       10.277731         2    ;  uncertainty k = 0.169849
        20        22        19        21     4      180.000000       10.277731         2    ;  uncertainty k = 0.169849
        22        20        23        46     4      180.000000        3.635690         2    ;  uncertainty k = 0.237266
        22        23        46        20     4      180.000000        3.635690         2    ;  uncertainty k = 0.237266
        22        46        20        23     4      180.000000        3.635690         2    ;  uncertainty k = 0.237266
        23        16        22        24     4      180.000000       10.877052         2    ;  uncertainty k = 0.242185
        23        22        24        16     4      180.000000       10.877052         2    ;  uncertainty k = 0.242185
        23        24        16        22     4      180.000000       10.877052         2    ;  uncertainty k = 0.242185

[ pairs ]
;       ai        aj funct
         1         4     1
         1        30     1
         1        31     1
         2         5     1
         2        25     1
         2        32     1
         3         6     1
         3        24     1
         3        26     1
         3        27     1
         3        28     1
         3        33     1
         3        34     1
         4         7     1
         4        23     1
         4        29     1
         4        35     1
         4        36     1
         4        47     1
         4        48     1
         5         8     1
         5        24     1
         5        30     1
         5        31     1
         5        37     1
         6         9     1
         6        15     1
         6        23     1
         6        25     1
         6        32     1
         6        38     1
         6        47     1
         7        10     1
         7        14     1
         7        16     1
         7        22     1
         7        33     1
         7        34     1
         7        44     1
         8        11     1
         8        13     1
         8        17     1
         8        23     1
         8        25     1
         8        35     1
         8        36     1
         8        39     1
         8        43     1
         8        47     1
         9        12     1
         9        16     1
         9        24     1
         9        37     1
         9        40     1
         9        42     1
         9        44     1
        10        13     1
        10        15     1
        10        38     1
        10        41     1
        10        43     1
        11        14     1
        11        42     1
        12        39     1
        12        43     1
        13        40     1
        14        15     1
        14        38     1
        14        39     1
        14        41     1
        15        18     1
        15        19     1
        15        22     1
        15        24     1
        15        37     1
        16        20     1
        16        25     1
        16        38     1
        16        45     1
        16        46     1
        16        47     1
        17        21     1
        17        22     1
        17        24     1
        17        44     1
        18        20     1
        18        23     1
        18        45     1
        19        23     1
        19        46     1
        20        24     1
        21        23     1
        21        45     1
        21        46     1
        22        25     1
        22        45     1
        22        47     1
        23        37     1
        23        44     1
        24        32     1
        24        35     1
        24        36     1
        24        38     1
        24        46     1
        25        30     1
        25        31     1
        25        33     1
        25        34     1
        25        37     1
        26        29     1
        26        48     1
        27        29     1
        27        48     1
        28        29     1
        28        48     1
        29        30     1
        29        31     1
        30        32     1
        30        48     1
        31        32     1
        31        48     1
        32        33     1
        32        34     1
        33        35     1
        33        36     1
        34        35     1
        34        36     1
        35        37     1
        36        37     1
        37        38     1
        37        47     1
        38        44     1
        39        40     1
        40        41     1
        41        42     1
        42        43     1
