; ITP file created by ByteFF-joint-25, 2026-02-17 09:16:48.862632

[ atomtypes ]
;name           bonded.type        at.num        mass        charge   ptype           sigma         epsilon
 n0bf                                   7      0.0000       0.00000       A     2.76668e-01     4.78571e+00    ;  uncertainty sigma = 0.000053, epsilon = 0.016544
 c1bf                                   6      0.0000       0.00000       A     3.39791e-01     4.51765e-01    ;  uncertainty sigma = 0.000045, epsilon = 0.001825
 c2bf                                   6      0.0000       0.00000       A     3.39783e-01     4.51780e-01    ;  uncertainty sigma = 0.000028, epsilon = 0.001923
 c3bf                                   6      0.0000       0.00000       A     3.39769e-01     4.50439e-01    ;  uncertainty sigma = 0.000013, epsilon = 0.000693
 c4bf                                   6      0.0000       0.00000       A     3.39742e-01     4.51320e-01    ;  uncertainty sigma = 0.000014, epsilon = 0.001137
 c5bf                                   6      0.0000       0.00000       A     3.39755e-01     4.50973e-01    ;  uncertainty sigma = 0.000035, epsilon = 0.000615
 c6bf                                   6      0.0000       0.00000       A     3.39774e-01     4.51693e-01    ;  uncertainty sigma = 0.000009, epsilon = 0.001676
 c7bf                                   6      0.0000       0.00000       A     3.31532e-01     4.13295e-01    ;  uncertainty sigma = 0.000012, epsilon = 0.000849
 c8bf                                   6      0.0000       0.00000       A     3.31519e-01     4.13329e-01    ;  uncertainty sigma = 0.000002, epsilon = 0.000632
 c9bf                                   6      0.0000       0.00000       A     3.31520e-01     4.13328e-01    ;  uncertainty sigma = 0.000003, epsilon = 0.000582
 c10bf                                  6      0.0000       0.00000       A     3.31518e-01     4.13340e-01    ;  uncertainty sigma = 0.000003, epsilon = 0.000580
 c11bf                                  6      0.0000       0.00000       A     3.31520e-01     4.13328e-01    ;  uncertainty sigma = 0.000003, epsilon = 0.000582
 c12bf                                  6      0.0000       0.00000       A     3.31519e-01     4.13329e-01    ;  uncertainty sigma = 0.000002, epsilon = 0.000632
 n13bf                                  7      0.0000       0.00000       A     3.27909e-01     6.44316e-01    ;  uncertainty sigma = 0.000015, epsilon = 0.004120
 c14bf                                  6      0.0000       0.00000       A     3.31548e-01     4.13221e-01    ;  uncertainty sigma = 0.000016, epsilon = 0.001142
 c15bf                                  6      0.0000       0.00000       A     3.31520e-01     4.13421e-01    ;  uncertainty sigma = 0.000010, epsilon = 0.000475
 c16bf                                  6      0.0000       0.00000       A     3.31512e-01     4.13402e-01    ;  uncertainty sigma = 0.000007, epsilon = 0.000559
 c17bf                                  6      0.0000       0.00000       A     3.31517e-01     4.13262e-01    ;  uncertainty sigma = 0.000010, epsilon = 0.000628
 c18bf                                  6      0.0000       0.00000       A     3.39792e-01     4.50242e-01    ;  uncertainty sigma = 0.000013, epsilon = 0.000578
 f19bf                                  9      0.0000       0.00000       A     3.03451e-01     3.47806e-01    ;  uncertainty sigma = 0.000008, epsilon = 0.001323
 f20bf                                  9      0.0000       0.00000       A     3.03451e-01     3.47806e-01    ;  uncertainty sigma = 0.000008, epsilon = 0.001323
 f21bf                                  9      0.0000       0.00000       A     3.03451e-01     3.47806e-01    ;  uncertainty sigma = 0.000008, epsilon = 0.001323
 c22bf                                  6      0.0000       0.00000       A     3.31532e-01     4.13181e-01    ;  uncertainty sigma = 0.000009, epsilon = 0.000749
 c23bf                                  6      0.0000       0.00000       A     3.31540e-01     4.13241e-01    ;  uncertainty sigma = 0.000019, epsilon = 0.000618
 c24bf                                  6      0.0000       0.00000       A     3.39767e-01     4.51050e-01    ;  uncertainty sigma = 0.000019, epsilon = 0.001452
 o25bf                                  8      0.0000       0.00000       A     3.15626e-01     3.04542e-01    ;  uncertainty sigma = 0.000046, epsilon = 0.000901
 h26bf                                  1      0.0000       0.00000       A     1.10690e-01     4.10061e-02    ;  uncertainty sigma = 0.000109, epsilon = 0.000247
 h27bf                                  1      0.0000       0.00000       A     1.10690e-01     4.10061e-02    ;  uncertainty sigma = 0.000109, epsilon = 0.000247
 h28bf                                  1      0.0000       0.00000       A     1.88686e-01     8.74567e-02    ;  uncertainty sigma = 0.000088, epsilon = 0.001475
 h29bf                                  1      0.0000       0.00000       A     1.88686e-01     8.74567e-02    ;  uncertainty sigma = 0.000088, epsilon = 0.001475
 h30bf                                  1      0.0000       0.00000       A     2.42318e-01     8.61923e-02    ;  uncertainty sigma = 0.000154, epsilon = 0.001450
 h31bf                                  1      0.0000       0.00000       A     2.60030e-01     8.64970e-02    ;  uncertainty sigma = 0.000010, epsilon = 0.000714
 h32bf                                  1      0.0000       0.00000       A     2.60030e-01     8.64970e-02    ;  uncertainty sigma = 0.000010, epsilon = 0.000714
 h33bf                                  1      0.0000       0.00000       A     2.60028e-01     8.66832e-02    ;  uncertainty sigma = 0.000010, epsilon = 0.000720
 h34bf                                  1      0.0000       0.00000       A     2.60028e-01     8.66832e-02    ;  uncertainty sigma = 0.000010, epsilon = 0.000720
 h35bf                                  1      0.0000       0.00000       A     2.59938e-01     8.64076e-02    ;  uncertainty sigma = 0.000052, epsilon = 0.000980
 h36bf                                  1      0.0000       0.00000       A     2.42303e-01     8.69597e-02    ;  uncertainty sigma = 0.000074, epsilon = 0.001557
 h37bf                                  1      0.0000       0.00000       A     2.62560e-01     6.70315e-02    ;  uncertainty sigma = 0.000006, epsilon = 0.000529
 h38bf                                  1      0.0000       0.00000       A     2.62559e-01     6.70249e-02    ;  uncertainty sigma = 0.000010, epsilon = 0.000440
 h39bf                                  1      0.0000       0.00000       A     2.62552e-01     6.70647e-02    ;  uncertainty sigma = 0.000011, epsilon = 0.000453
 h40bf                                  1      0.0000       0.00000       A     2.62559e-01     6.70249e-02    ;  uncertainty sigma = 0.000010, epsilon = 0.000440
 h41bf                                  1      0.0000       0.00000       A     2.62560e-01     6.70315e-02    ;  uncertainty sigma = 0.000006, epsilon = 0.000529
 h42bf                                  1      0.0000       0.00000       A     1.10675e-01     4.07500e-02    ;  uncertainty sigma = 0.000109, epsilon = 0.000764
 h43bf                                  1      0.0000       0.00000       A     2.62577e-01     6.70680e-02    ;  uncertainty sigma = 0.000013, epsilon = 0.000535
 h44bf                                  1      0.0000       0.00000       A     2.62556e-01     6.71146e-02    ;  uncertainty sigma = 0.000013, epsilon = 0.000508
 h45bf                                  1      0.0000       0.00000       A     2.62531e-01     6.70779e-02    ;  uncertainty sigma = 0.000022, epsilon = 0.000511
 h46bf                                  1      0.0000       0.00000       A     2.42239e-01     8.76589e-02    ;  uncertainty sigma = 0.000274, epsilon = 0.002166
 h47bf                                  1      0.0000       0.00000       A     1.10690e-01     4.10059e-02    ;  uncertainty sigma = 0.000109, epsilon = 0.000247

[ moleculetype ]
;name             nrexcl
 MOL                   3

[ atoms ]
;       nr            type      resi   res      atom      cgnr      charge          mass ; qtot
         1            n0bf         1   UNL        n0         1    -0.85465       14.0070 ; qtot   -0.855
         2            c1bf         1   UNL        c1         2     0.14074       12.0110 ; qtot   -0.714
         3            c2bf         1   UNL        c2         3     0.11987       12.0110 ; qtot   -0.594
         4            c3bf         1   UNL        c3         4    -0.10241       12.0110 ; qtot   -0.696
         5            c4bf         1   UNL        c4         5    -0.06930       12.0110 ; qtot   -0.766
         6            c5bf         1   UNL        c5         6    -0.09508       12.0110 ; qtot   -0.861
         7            c6bf         1   UNL        c6         7     0.25867       12.0110 ; qtot   -0.602
         8            c7bf         1   UNL        c7         8    -0.10560       12.0110 ; qtot   -0.708
         9            c8bf         1   UNL        c8         9    -0.11888       12.0110 ; qtot   -0.827
        10            c9bf         1   UNL        c9        10    -0.13078       12.0110 ; qtot   -0.957
        11           c10bf         1   UNL       c10        11    -0.12452       12.0110 ; qtot   -1.082
        12           c11bf         1   UNL       c11        12    -0.13078       12.0110 ; qtot   -1.213
        13           c12bf         1   UNL       c12        13    -0.11888       12.0110 ; qtot   -1.332
        14           n13bf         1   UNL       n13        14    -0.73726       14.0070 ; qtot   -2.069
        15           c14bf         1   UNL       c14        15     0.18349       12.0110 ; qtot   -1.885
        16           c15bf         1   UNL       c15        16    -0.20421       12.0110 ; qtot   -2.090
        17           c16bf         1   UNL       c16        17    -0.02807       12.0110 ; qtot   -2.118
        18           c17bf         1   UNL       c17        18    -0.22948       12.0110 ; qtot   -2.347
        19           c18bf         1   UNL       c18        19     0.71240       12.0110 ; qtot   -1.635
        20           f19bf         1   UNL       f19        20    -0.22895       18.9980 ; qtot   -1.864
        21           f20bf         1   UNL       f20        21    -0.22895       18.9980 ; qtot   -2.093
        22           f21bf         1   UNL       f21        22    -0.22895       18.9980 ; qtot   -2.322
        23           c22bf         1   UNL       c22        23    -0.01242       12.0110 ; qtot   -2.334
        24           c23bf         1   UNL       c23        24    -0.15637       12.0110 ; qtot   -2.490
        25           c24bf         1   UNL       c24        25     0.20436       12.0110 ; qtot   -2.286
        26           o25bf         1   UNL       o25        26    -0.42635       15.9990 ; qtot   -2.712
        27           h26bf         1   UNL       h26        27     0.47368        1.0080 ; qtot   -2.239
        28           h27bf         1   UNL       h27        28     0.47368        1.0080 ; qtot   -1.765
        29           h28bf         1   UNL       h28        29     0.11991        1.0080 ; qtot   -1.645
        30           h29bf         1   UNL       h29        30     0.11991        1.0080 ; qtot   -1.525
        31           h30bf         1   UNL       h30        31     0.08598        1.0080 ; qtot   -1.439
        32           h31bf         1   UNL       h31        32     0.07280        1.0080 ; qtot   -1.366
        33           h32bf         1   UNL       h32        33     0.07280        1.0080 ; qtot   -1.294
        34           h33bf         1   UNL       h33        34     0.05761        1.0080 ; qtot   -1.236
        35           h34bf         1   UNL       h34        35     0.05761        1.0080 ; qtot   -1.178
        36           h35bf         1   UNL       h35        36     0.06904        1.0080 ; qtot   -1.109
        37           h36bf         1   UNL       h36        37     0.05360        1.0080 ; qtot   -1.056
        38           h37bf         1   UNL       h37        38     0.13512        1.0080 ; qtot   -0.921
        39           h38bf         1   UNL       h38        39     0.13172        1.0080 ; qtot   -0.789
        40           h39bf         1   UNL       h39        40     0.13373        1.0080 ; qtot   -0.655
        41           h40bf         1   UNL       h40        41     0.13172        1.0080 ; qtot   -0.523
        42           h41bf         1   UNL       h41        42     0.13512        1.0080 ; qtot   -0.388
        43           h42bf         1   UNL       h42        43     0.40889        1.0080 ; qtot    0.021
        44           h43bf         1   UNL       h43        44     0.13718        1.0080 ; qtot    0.158
        45           h44bf         1   UNL       h44        45     0.15124        1.0080 ; qtot    0.309
        46           h45bf         1   UNL       h45        46     0.15267        1.0080 ; qtot    0.462
        47           h46bf         1   UNL       h46        47     0.06470        1.0080 ; qtot    0.526
        48           h47bf         1   UNL       h47        48     0.47365        1.0080 ; qtot    1.000

[ bonds ]
;       ai        aj funct               r               k
         1         2     1        0.150899   182994.392944    ;  uncertainty r = 0.000135, k = 32.432974
         1        27     1        0.103101   401719.824121    ;  uncertainty r = 0.000046, k = 7.177152
         1        28     1        0.103101   401719.824121    ;  uncertainty r = 0.000046, k = 7.177152
         1        48     1        0.103101   401719.824121    ;  uncertainty r = 0.000046, k = 7.177167
         2         3     1        0.153186   197388.039893    ;  uncertainty r = 0.000299, k = 20.156160
         2        29     1        0.109008   318443.872266    ;  uncertainty r = 0.000032, k = 2.072300
         2        30     1        0.109008   318443.872266    ;  uncertainty r = 0.000032, k = 2.072300
         3         4     1        0.152882   205166.439111    ;  uncertainty r = 0.000128, k = 9.652277
         3        26     1        0.142388   236933.122021    ;  uncertainty r = 0.000136, k = 14.533132
         3        31     1        0.110044   305011.914551    ;  uncertainty r = 0.000081, k = 6.473289
         4         5     1        0.153426   212502.356836    ;  uncertainty r = 0.000099, k = 6.614432
         4        32     1        0.109580   309704.511621    ;  uncertainty r = 0.000017, k = 2.434421
         4        33     1        0.109580   309704.511621    ;  uncertainty r = 0.000017, k = 2.434421
         5         6     1        0.153228   204659.846704    ;  uncertainty r = 0.000107, k = 7.769012
         5        34     1        0.109545   307326.649219    ;  uncertainty r = 0.000013, k = 1.975637
         5        35     1        0.109545   307326.649219    ;  uncertainty r = 0.000013, k = 1.975637
         6         7     1        0.153739   194039.869482    ;  uncertainty r = 0.000049, k = 9.258939
         6        25     1        0.153198   193782.161743    ;  uncertainty r = 0.000151, k = 8.880194
         6        36     1        0.109712   307584.676172    ;  uncertainty r = 0.000061, k = 3.997496
         7         8     1        0.151697   221951.776807    ;  uncertainty r = 0.000088, k = 6.014261
         7        14     1        0.146438   246437.395703    ;  uncertainty r = 0.000120, k = 17.715154
         7        37     1        0.110060   298327.090967    ;  uncertainty r = 0.000134, k = 4.183524
         8         9     1        0.139859   350947.632764    ;  uncertainty r = 0.000040, k = 0.862455
         8        13     1        0.139859   350947.632764    ;  uncertainty r = 0.000040, k = 0.862455
         9        10     1        0.139620   365997.698340    ;  uncertainty r = 0.000023, k = 1.204469
         9        38     1        0.108883   334327.826611    ;  uncertainty r = 0.000023, k = 0.510257
        10        11     1        0.139607   371240.977637    ;  uncertainty r = 0.000016, k = 0.703160
        10        39     1        0.108851   333986.906201    ;  uncertainty r = 0.000010, k = 1.017361
        11        12     1        0.139607   371240.977637    ;  uncertainty r = 0.000016, k = 0.703160
        11        40     1        0.108841   334518.920801    ;  uncertainty r = 0.000012, k = 0.635600
        12        13     1        0.139620   365997.698340    ;  uncertainty r = 0.000023, k = 1.204462
        12        41     1        0.108851   333986.906201    ;  uncertainty r = 0.000010, k = 1.017361
        13        42     1        0.108883   334327.852148    ;  uncertainty r = 0.000023, k = 0.510237
        14        15     1        0.139955   343991.477393    ;  uncertainty r = 0.000126, k = 9.082280
        14        43     1        0.101439   412844.299707    ;  uncertainty r = 0.000047, k = 2.472846
        15        16     1        0.140865   368811.428125    ;  uncertainty r = 0.000044, k = 7.230090
        15        24     1        0.140838   346500.498389    ;  uncertainty r = 0.000177, k = 22.908260
        16        17     1        0.138816   370640.140527    ;  uncertainty r = 0.000068, k = 3.048045
        16        44     1        0.108921   336733.064795    ;  uncertainty r = 0.000029, k = 1.482996
        17        18     1        0.139378   352395.893311    ;  uncertainty r = 0.000125, k = 2.402639
        17        45     1        0.108598   332329.164746    ;  uncertainty r = 0.000022, k = 1.147973
        18        19     1        0.149257   213835.534399    ;  uncertainty r = 0.000082, k = 4.037128
        18        23     1        0.139076   345540.047705    ;  uncertainty r = 0.000116, k = 2.172409
        19        20     1        0.135370   287114.180371    ;  uncertainty r = 0.000024, k = 3.515911
        19        21     1        0.135370   287114.180371    ;  uncertainty r = 0.000024, k = 3.515911
        19        22     1        0.135370   287114.180371    ;  uncertainty r = 0.000024, k = 3.515911
        23        24     1        0.139099   350903.249268    ;  uncertainty r = 0.000165, k = 2.364266
        23        46     1        0.108699   332543.880762    ;  uncertainty r = 0.000028, k = 1.734934
        24        25     1        0.150773   220986.780518    ;  uncertainty r = 0.000092, k = 12.081243
        25        26     1        0.144810   218598.524512    ;  uncertainty r = 0.000480, k = 7.319717
        25        47     1        0.110015   305474.493750    ;  uncertainty r = 0.000069, k = 4.468958

[ angles ]
;       ai        aj        ak funct           theta             cth
         1         2         3     1      109.341652      701.279796    ;  uncertainty theta = 0.007116, k = 0.257624
         1         2        29     1      105.937294      458.863709    ;  uncertainty theta = 0.003332, k = 0.147140
         1         2        30     1      105.937294      458.863709    ;  uncertainty theta = 0.003332, k = 0.147140
         2         1        27     1      110.550278      428.942070    ;  uncertainty theta = 0.002707, k = 0.100279
         2         1        28     1      110.550278      428.942070    ;  uncertainty theta = 0.002707, k = 0.100279
         2         1        48     1      110.550278      428.942070    ;  uncertainty theta = 0.002707, k = 0.100279
         2         3         4     1      111.504196      559.546030    ;  uncertainty theta = 0.008550, k = 0.177037
         2         3        26     1      105.261024      583.517969    ;  uncertainty theta = 0.004254, k = 0.120359
         2         3        31     1      108.158470      394.209973    ;  uncertainty theta = 0.003675, k = 0.116872
         3         2        29     1      110.666016      395.536403    ;  uncertainty theta = 0.003112, k = 0.110088
         3         2        30     1      110.666016      395.536403    ;  uncertainty theta = 0.003112, k = 0.110088
         3         4         5     1      108.895798      587.313486    ;  uncertainty theta = 0.003430, k = 0.212935
         3         4        32     1      107.499802      392.383176    ;  uncertainty theta = 0.001668, k = 0.058638
         3         4        33     1      107.499802      392.383176    ;  uncertainty theta = 0.001668, k = 0.058638
         3        26        25     1      110.481812      513.192026    ;  uncertainty theta = 0.009733, k = 0.149838
         4         3        26     1      111.210312      679.403431    ;  uncertainty theta = 0.005156, k = 0.098714
         4         3        31     1      109.856461      408.203958    ;  uncertainty theta = 0.003361, k = 0.038326
         4         5         6     1      109.840714      573.629043    ;  uncertainty theta = 0.003681, k = 0.114625
         4         5        34     1      108.470505      406.595024    ;  uncertainty theta = 0.002218, k = 0.103829
         4         5        35     1      108.470505      406.595024    ;  uncertainty theta = 0.002218, k = 0.103829
         5         4        32     1      109.107620      400.282474    ;  uncertainty theta = 0.001001, k = 0.041092
         5         4        33     1      109.107620      400.282474    ;  uncertainty theta = 0.001001, k = 0.041092
         5         6         7     1      110.557518      550.414534    ;  uncertainty theta = 0.001258, k = 0.165602
         5         6        25     1      109.601540      585.075414    ;  uncertainty theta = 0.002027, k = 0.137957
         5         6        36     1      107.962418      399.558210    ;  uncertainty theta = 0.002830, k = 0.103744
         6         5        34     1      108.184448      389.052562    ;  uncertainty theta = 0.001625, k = 0.073415
         6         5        35     1      108.184448      389.052562    ;  uncertainty theta = 0.001625, k = 0.073416
         6         7         8     1      111.667801      538.117458    ;  uncertainty theta = 0.002515, k = 0.172335
         6         7        14     1      108.357506      705.618040    ;  uncertainty theta = 0.004557, k = 0.110169
         6         7        37     1      107.075500      386.196237    ;  uncertainty theta = 0.002778, k = 0.128014
         6        25        24     1      111.838341      557.189912    ;  uncertainty theta = 0.003775, k = 0.225156
         6        25        26     1      110.710793      664.196210    ;  uncertainty theta = 0.005545, k = 0.063034
         6        25        47     1      108.154518      394.132468    ;  uncertainty theta = 0.003973, k = 0.122859
         7         6        25     1      109.341347      553.779495    ;  uncertainty theta = 0.004719, k = 0.138692
         7         6        36     1      105.964149      389.824836    ;  uncertainty theta = 0.001608, k = 0.093762
         7         8         9     1      119.922928      425.651326    ;  uncertainty theta = 0.003113, k = 0.143043
         7         8        13     1      119.922928      425.651326    ;  uncertainty theta = 0.003113, k = 0.143043
         7        14        15     1      114.218887      391.657507    ;  uncertainty theta = 0.007311, k = 0.149022
         7        14        43     1      110.064499      352.462577    ;  uncertainty theta = 0.003551, k = 0.095281
         8         7        14     1      111.031082      663.623157    ;  uncertainty theta = 0.001203, k = 0.168660
         8         7        37     1      106.340919      410.762138    ;  uncertainty theta = 0.002105, k = 0.098132
         8         9        10     1      121.166641      520.323009    ;  uncertainty theta = 0.001889, k = 0.047519
         8         9        38     1      118.895851      266.730000    ;  uncertainty theta = 0.002264, k = 0.064094
         8        13        12     1      121.166641      520.322945    ;  uncertainty theta = 0.001889, k = 0.047519
         8        13        42     1      118.895851      266.730000    ;  uncertainty theta = 0.002264, k = 0.064094
         9         8        13     1      120.206970      460.017476    ;  uncertainty theta = 0.003029, k = 0.098153
         9        10        11     1      119.685776      513.267201    ;  uncertainty theta = 0.000971, k = 0.012607
         9        10        39     1      120.211227      283.897609    ;  uncertainty theta = 0.001315, k = 0.018226
        10         9        38     1      120.235497      292.477280    ;  uncertainty theta = 0.001696, k = 0.031107
        10        11        12     1      118.246803      526.555213    ;  uncertainty theta = 0.000903, k = 0.024014
        10        11        40     1      120.647278      289.320829    ;  uncertainty theta = 0.001403, k = 0.006566
        11        10        39     1      120.620949      287.638700    ;  uncertainty theta = 0.001444, k = 0.012507
        11        12        13     1      119.685776      513.267201    ;  uncertainty theta = 0.000971, k = 0.012607
        11        12        41     1      120.620949      287.638700    ;  uncertainty theta = 0.001444, k = 0.012507
        12        11        40     1      120.647278      289.320829    ;  uncertainty theta = 0.001403, k = 0.006566
        12        13        42     1      120.235497      292.477280    ;  uncertainty theta = 0.001696, k = 0.031107
        13        12        41     1      120.211227      283.897609    ;  uncertainty theta = 0.001315, k = 0.018226
        14         7        37     1      107.894577      455.839254    ;  uncertainty theta = 0.003753, k = 0.115430
        14        15        16     1      123.141701      575.910018    ;  uncertainty theta = 0.003511, k = 0.120934
        14        15        24     1      122.317627      499.033263    ;  uncertainty theta = 0.010194, k = 0.209541
        15        14        43     1      111.105759      386.782760    ;  uncertainty theta = 0.005516, k = 0.186771
        15        16        17     1      120.478416      516.109066    ;  uncertainty theta = 0.002075, k = 0.087339
        15        16        44     1      119.051010      277.924383    ;  uncertainty theta = 0.004177, k = 0.151846
        15        24        23     1      120.424454      453.080161    ;  uncertainty theta = 0.006616, k = 0.179671
        15        24        25     1      120.028122      357.077643    ;  uncertainty theta = 0.010467, k = 0.372766
        16        15        24     1      118.942970      382.845385    ;  uncertainty theta = 0.005312, k = 0.129487
        16        17        18     1      120.981323      513.612750    ;  uncertainty theta = 0.003622, k = 0.061051
        16        17        45     1      120.001465      286.894165    ;  uncertainty theta = 0.002804, k = 0.033751
        17        16        44     1      120.437340      286.262250    ;  uncertainty theta = 0.002252, k = 0.069391
        17        18        19     1      116.839577      343.993737    ;  uncertainty theta = 0.004979, k = 0.130748
        17        18        23     1      121.948021      476.310950    ;  uncertainty theta = 0.002704, k = 0.206186
        18        17        45     1      118.183701      271.648288    ;  uncertainty theta = 0.003054, k = 0.062508
        18        19        20     1      113.129189      665.135146    ;  uncertainty theta = 0.002597, k = 0.018377
        18        19        21     1      113.129189      665.135146    ;  uncertainty theta = 0.002597, k = 0.018377
        18        19        22     1      113.129189      665.135146    ;  uncertainty theta = 0.002597, k = 0.018377
        18        23        24     1      123.128983      512.049368    ;  uncertainty theta = 0.004008, k = 0.124705
        18        23        46     1      117.799782      273.317648    ;  uncertainty theta = 0.004465, k = 0.082060
        19        18        23     1      116.421097      363.451642    ;  uncertainty theta = 0.005624, k = 0.222079
        20        19        21     1      107.629150      789.646366    ;  uncertainty theta = 0.002059, k = 0.013010
        20        19        22     1      107.629150      789.646366    ;  uncertainty theta = 0.002059, k = 0.013010
        21        19        22     1      107.629150      789.646366    ;  uncertainty theta = 0.002059, k = 0.013010
        23        24        25     1      118.740562      399.428992    ;  uncertainty theta = 0.004815, k = 0.187364
        24        23        46     1      118.101120      267.172941    ;  uncertainty theta = 0.003492, k = 0.082588
        24        25        26     1      108.738953      632.453583    ;  uncertainty theta = 0.007079, k = 0.309117
        24        25        47     1      108.628784      389.862663    ;  uncertainty theta = 0.004555, k = 0.083018
        25         6        36     1      106.277695      398.846586    ;  uncertainty theta = 0.003820, k = 0.096584
        26         3        31     1      107.469803      460.467983    ;  uncertainty theta = 0.001994, k = 0.137079
        26        25        47     1      105.719559      446.368944    ;  uncertainty theta = 0.004521, k = 0.099749
        27         1        28     1      108.613327      385.860583    ;  uncertainty theta = 0.004798, k = 0.069492
        27         1        48     1      108.613327      385.860551    ;  uncertainty theta = 0.004798, k = 0.069491
        28         1        48     1      108.613327      385.860551    ;  uncertainty theta = 0.004798, k = 0.069491
        29         2        30     1      108.694252      317.610647    ;  uncertainty theta = 0.003393, k = 0.064526
        32         4        33     1      105.291870      315.666827    ;  uncertainty theta = 0.003547, k = 0.050235
        34         5        35     1      104.613731      315.378257    ;  uncertainty theta = 0.002142, k = 0.035841

[ dihedrals ] ; propers for gromacs 4.5 or higher, use funct 9
;       ai        aj        ak        al funct           phase               k        pn
         1         2         3         4     9        0.000000       -1.196018         1    ;  uncertainty k = 1.944694
         1         2         3         4     9      180.000000       -0.129690         2    ;  uncertainty k = 0.732364
         1         2         3         4     9        0.000000        1.349582         3    ;  uncertainty k = 0.220314
         1         2         3         4     9      180.000000       -0.244605         4    ;  uncertainty k = 0.240947
         1         2         3        26     9        0.000000        1.723123         1    ;  uncertainty k = 1.256314
         1         2         3        26     9      180.000000       -3.255116         2    ;  uncertainty k = 0.940191
         1         2         3        26     9        0.000000        1.589584         3    ;  uncertainty k = 0.654630
         1         2         3        26     9      180.000000       -0.392675         4    ;  uncertainty k = 0.350020
         1         2         3        31     9        0.000000       -1.905459         1    ;  uncertainty k = 1.185290
         1         2         3        31     9      180.000000       -2.994204         2    ;  uncertainty k = 0.598976
         1         2         3        31     9        0.000000        0.978239         3    ;  uncertainty k = 0.250101
         1         2         3        31     9      180.000000       -0.103257         4    ;  uncertainty k = 0.098083
         2         3         4         5     9        0.000000       -2.930382         1    ;  uncertainty k = 0.774934
         2         3         4         5     9      180.000000        0.050147         2    ;  uncertainty k = 0.412501
         2         3         4         5     9        0.000000        0.731632         3    ;  uncertainty k = 0.156469
         2         3         4         5     9      180.000000       -0.439994         4    ;  uncertainty k = 0.111456
         2         3         4        32     9        0.000000       -1.148122         1    ;  uncertainty k = 1.003751
         2         3         4        32     9      180.000000       -0.726654         2    ;  uncertainty k = 0.256354
         2         3         4        32     9        0.000000        0.379358         3    ;  uncertainty k = 0.141524
         2         3         4        32     9      180.000000       -0.289211         4    ;  uncertainty k = 0.153823
         2         3         4        33     9        0.000000       -1.148122         1    ;  uncertainty k = 1.003751
         2         3         4        33     9      180.000000       -0.726654         2    ;  uncertainty k = 0.256354
         2         3         4        33     9        0.000000        0.379358         3    ;  uncertainty k = 0.141524
         2         3         4        33     9      180.000000       -0.289211         4    ;  uncertainty k = 0.153823
         2         3        26        25     9        0.000000       -5.888926         1    ;  uncertainty k = 1.513970
         2         3        26        25     9      180.000000       -0.951046         2    ;  uncertainty k = 1.000098
         2         3        26        25     9        0.000000        0.659948         3    ;  uncertainty k = 0.385617
         2         3        26        25     9      180.000000       -0.150484         4    ;  uncertainty k = 0.162695
         3         2         1        27     9        0.000000        1.225240         1    ;  uncertainty k = 1.075603
         3         2         1        27     9      180.000000       -0.670897         2    ;  uncertainty k = 0.270990
         3         2         1        27     9        0.000000        0.884240         3    ;  uncertainty k = 0.099092
         3         2         1        27     9      180.000000       -0.047622         4    ;  uncertainty k = 0.079873
         3         2         1        28     9        0.000000        1.225240         1    ;  uncertainty k = 1.075603
         3         2         1        28     9      180.000000       -0.670897         2    ;  uncertainty k = 0.270990
         3         2         1        28     9        0.000000        0.884240         3    ;  uncertainty k = 0.099092
         3         2         1        28     9      180.000000       -0.047622         4    ;  uncertainty k = 0.079873
         3         2         1        48     9        0.000000        1.225239         1    ;  uncertainty k = 1.075605
         3         2         1        48     9      180.000000       -0.670896         2    ;  uncertainty k = 0.270989
         3         2         1        48     9        0.000000        0.884240         3    ;  uncertainty k = 0.099093
         3         2         1        48     9      180.000000       -0.047623         4    ;  uncertainty k = 0.079873
         3         4         5         6     9        0.000000       -4.296491         1    ;  uncertainty k = 0.800496
         3         4         5         6     9      180.000000       -0.584704         2    ;  uncertainty k = 0.849406
         3         4         5         6     9        0.000000        1.211063         3    ;  uncertainty k = 0.262041
         3         4         5         6     9      180.000000       -0.783076         4    ;  uncertainty k = 0.131871
         3         4         5        34     9        0.000000       -0.936580         1    ;  uncertainty k = 0.473403
         3         4         5        34     9      180.000000       -0.785274         2    ;  uncertainty k = 0.244287
         3         4         5        34     9        0.000000        0.452935         3    ;  uncertainty k = 0.151843
         3         4         5        34     9      180.000000        0.026430         4    ;  uncertainty k = 0.055628
         3         4         5        35     9        0.000000       -0.936580         1    ;  uncertainty k = 0.473403
         3         4         5        35     9      180.000000       -0.785274         2    ;  uncertainty k = 0.244287
         3         4         5        35     9        0.000000        0.452935         3    ;  uncertainty k = 0.151843
         3         4         5        35     9      180.000000        0.026430         4    ;  uncertainty k = 0.055628
         3        26        25         6     9        0.000000        4.258759         1    ;  uncertainty k = 1.739864
         3        26        25         6     9      180.000000       -1.588942         2    ;  uncertainty k = 1.298208
         3        26        25         6     9        0.000000        0.128222         3    ;  uncertainty k = 0.209581
         3        26        25         6     9      180.000000        0.076251         4    ;  uncertainty k = 0.197506
         3        26        25        24     9        0.000000       -1.888608         1    ;  uncertainty k = 1.430693
         3        26        25        24     9      180.000000       -1.153746         2    ;  uncertainty k = 0.834155
         3        26        25        24     9        0.000000        0.947912         3    ;  uncertainty k = 0.419920
         3        26        25        24     9      180.000000       -0.017903         4    ;  uncertainty k = 0.125486
         3        26        25        47     9        0.000000       -2.335725         1    ;  uncertainty k = 0.775989
         3        26        25        47     9      180.000000       -0.861553         2    ;  uncertainty k = 0.645474
         3        26        25        47     9        0.000000        0.482120         3    ;  uncertainty k = 0.139413
         3        26        25        47     9      180.000000       -0.112454         4    ;  uncertainty k = 0.135217
         4         3         2        29     9        0.000000       -1.406295         1    ;  uncertainty k = 0.520268
         4         3         2        29     9      180.000000        0.093474         2    ;  uncertainty k = 0.269667
         4         3         2        29     9        0.000000        0.534055         3    ;  uncertainty k = 0.179274
         4         3         2        29     9      180.000000       -0.159872         4    ;  uncertainty k = 0.067845
         4         3         2        30     9        0.000000       -1.406295         1    ;  uncertainty k = 0.520268
         4         3         2        30     9      180.000000        0.093474         2    ;  uncertainty k = 0.269667
         4         3         2        30     9        0.000000        0.534055         3    ;  uncertainty k = 0.179274
         4         3         2        30     9      180.000000       -0.159872         4    ;  uncertainty k = 0.067845
         4         3        26        25     9        0.000000        1.349623         1    ;  uncertainty k = 2.929674
         4         3        26        25     9      180.000000       -1.525262         2    ;  uncertainty k = 0.211192
         4         3        26        25     9        0.000000        0.113817         3    ;  uncertainty k = 0.448538
         4         3        26        25     9      180.000000       -0.008056         4    ;  uncertainty k = 0.243355
         4         5         6         7     9        0.000000       -3.364180         1    ;  uncertainty k = 0.755759
         4         5         6         7     9      180.000000        0.082967         2    ;  uncertainty k = 0.312391
         4         5         6         7     9        0.000000        1.112907         3    ;  uncertainty k = 0.193729
         4         5         6         7     9      180.000000       -0.473896         4    ;  uncertainty k = 0.203630
         4         5         6        25     9        0.000000       -3.137985         1    ;  uncertainty k = 0.465763
         4         5         6        25     9      180.000000        0.203638         2    ;  uncertainty k = 0.515442
         4         5         6        25     9        0.000000        1.018929         3    ;  uncertainty k = 0.231115
         4         5         6        25     9      180.000000       -0.720872         4    ;  uncertainty k = 0.097885
         4         5         6        36     9        0.000000       -2.351800         1    ;  uncertainty k = 0.593616
         4         5         6        36     9      180.000000        0.211911         2    ;  uncertainty k = 0.336071
         4         5         6        36     9        0.000000        0.037417         3    ;  uncertainty k = 0.067281
         4         5         6        36     9      180.000000       -0.091266         4    ;  uncertainty k = 0.093839
         5         4         3        26     9        0.000000       -2.587815         1    ;  uncertainty k = 0.817989
         5         4         3        26     9      180.000000       -0.381693         2    ;  uncertainty k = 0.866838
         5         4         3        26     9        0.000000        1.397804         3    ;  uncertainty k = 0.404242
         5         4         3        26     9      180.000000       -0.406892         4    ;  uncertainty k = 0.353055
         5         4         3        31     9        0.000000       -0.300250         1    ;  uncertainty k = 0.631282
         5         4         3        31     9      180.000000       -1.201252         2    ;  uncertainty k = 0.384983
         5         4         3        31     9        0.000000       -0.128895         3    ;  uncertainty k = 0.163606
         5         4         3        31     9      180.000000        0.099714         4    ;  uncertainty k = 0.156432
         5         6         7         8     9        0.000000       -0.448524         1    ;  uncertainty k = 0.373959
         5         6         7         8     9      180.000000        0.078965         2    ;  uncertainty k = 0.219828
         5         6         7         8     9        0.000000        1.017033         3    ;  uncertainty k = 0.135263
         5         6         7         8     9      180.000000       -0.031156         4    ;  uncertainty k = 0.095492
         5         6         7        14     9        0.000000       -2.521251         1    ;  uncertainty k = 0.310382
         5         6         7        14     9      180.000000        0.581435         2    ;  uncertainty k = 0.370009
         5         6         7        14     9        0.000000        1.132014         3    ;  uncertainty k = 0.203508
         5         6         7        14     9      180.000000       -0.327810         4    ;  uncertainty k = 0.275563
         5         6         7        37     9        0.000000       -0.348509         1    ;  uncertainty k = 0.361729
         5         6         7        37     9      180.000000       -0.372312         2    ;  uncertainty k = 0.197672
         5         6         7        37     9        0.000000        0.079786         3    ;  uncertainty k = 0.166433
         5         6         7        37     9      180.000000       -0.109269         4    ;  uncertainty k = 0.079245
         5         6        25        24     9        0.000000       -1.708702         1    ;  uncertainty k = 1.076445
         5         6        25        24     9      180.000000       -0.577427         2    ;  uncertainty k = 0.193113
         5         6        25        24     9        0.000000        0.624989         3    ;  uncertainty k = 0.156798
         5         6        25        24     9      180.000000       -0.209245         4    ;  uncertainty k = 0.136799
         5         6        25        26     9        0.000000       -1.304212         1    ;  uncertainty k = 0.814717
         5         6        25        26     9      180.000000       -1.619636         2    ;  uncertainty k = 0.838440
         5         6        25        26     9        0.000000        0.989103         3    ;  uncertainty k = 0.345788
         5         6        25        26     9      180.000000       -0.089144         4    ;  uncertainty k = 0.281183
         5         6        25        47     9        0.000000        0.251177         1    ;  uncertainty k = 0.545463
         5         6        25        47     9      180.000000       -0.467027         2    ;  uncertainty k = 0.415052
         5         6        25        47     9        0.000000       -0.184771         3    ;  uncertainty k = 0.149121
         5         6        25        47     9      180.000000       -0.045835         4    ;  uncertainty k = 0.130769
         6         5         4        32     9        0.000000       -0.855346         1    ;  uncertainty k = 0.418057
         6         5         4        32     9      180.000000       -0.516510         2    ;  uncertainty k = 0.304472
         6         5         4        32     9        0.000000        0.495140         3    ;  uncertainty k = 0.086400
         6         5         4        32     9      180.000000       -0.058610         4    ;  uncertainty k = 0.078232
         6         5         4        33     9        0.000000       -0.855346         1    ;  uncertainty k = 0.418057
         6         5         4        33     9      180.000000       -0.516510         2    ;  uncertainty k = 0.304472
         6         5         4        33     9        0.000000        0.495140         3    ;  uncertainty k = 0.086400
         6         5         4        33     9      180.000000       -0.058610         4    ;  uncertainty k = 0.078232
         6         7         8         9     9        0.000000       -0.128230         1    ;  uncertainty k = 0.712210
         6         7         8         9     9      180.000000        1.832448         2    ;  uncertainty k = 0.216282
         6         7         8         9     9        0.000000        0.279323         3    ;  uncertainty k = 0.140015
         6         7         8         9     9      180.000000        0.244071         4    ;  uncertainty k = 0.076873
         6         7         8        13     9        0.000000       -0.128230         1    ;  uncertainty k = 0.712210
         6         7         8        13     9      180.000000        1.832448         2    ;  uncertainty k = 0.216282
         6         7         8        13     9        0.000000        0.279323         3    ;  uncertainty k = 0.140015
         6         7         8        13     9      180.000000        0.244071         4    ;  uncertainty k = 0.076873
         6         7        14        15     9        0.000000        0.719689         1    ;  uncertainty k = 1.244020
         6         7        14        15     9      180.000000        0.209000         2    ;  uncertainty k = 0.601735
         6         7        14        15     9        0.000000        0.378517         3    ;  uncertainty k = 0.264052
         6         7        14        15     9      180.000000        0.142878         4    ;  uncertainty k = 0.153977
         6         7        14        43     9        0.000000        3.620496         1    ;  uncertainty k = 0.960159
         6         7        14        43     9      180.000000       -1.866275         2    ;  uncertainty k = 1.297277
         6         7        14        43     9        0.000000        0.466328         3    ;  uncertainty k = 0.292683
         6         7        14        43     9      180.000000       -0.015211         4    ;  uncertainty k = 0.082184
         6        25        24        15     9        0.000000        0.409292         1    ;  uncertainty k = 2.862365
         6        25        24        15     9      180.000000       -0.202986         2    ;  uncertainty k = 1.476724
         6        25        24        15     9        0.000000        0.000679         3    ;  uncertainty k = 0.841817
         6        25        24        15     9      180.000000        0.704339         4    ;  uncertainty k = 0.235086
         6        25        24        23     9        0.000000       -1.578131         1    ;  uncertainty k = 0.716113
         6        25        24        23     9      180.000000       -0.083147         2    ;  uncertainty k = 0.635423
         6        25        24        23     9        0.000000       -0.200539         3    ;  uncertainty k = 0.114915
         6        25        24        23     9      180.000000        0.419036         4    ;  uncertainty k = 0.126264
         7         6         5        34     9        0.000000        0.110494         1    ;  uncertainty k = 0.320429
         7         6         5        34     9      180.000000       -0.593762         2    ;  uncertainty k = 0.234653
         7         6         5        34     9        0.000000        0.479646         3    ;  uncertainty k = 0.096254
         7         6         5        34     9      180.000000       -0.047564         4    ;  uncertainty k = 0.093309
         7         6         5        35     9        0.000000        0.110494         1    ;  uncertainty k = 0.320429
         7         6         5        35     9      180.000000       -0.593762         2    ;  uncertainty k = 0.234653
         7         6         5        35     9        0.000000        0.479646         3    ;  uncertainty k = 0.096254
         7         6         5        35     9      180.000000       -0.047564         4    ;  uncertainty k = 0.093309
         7         6        25        24     9        0.000000        0.931690         1    ;  uncertainty k = 1.251930
         7         6        25        24     9      180.000000       -1.934272         2    ;  uncertainty k = 0.437874
         7         6        25        24     9        0.000000        0.265558         3    ;  uncertainty k = 0.293584
         7         6        25        24     9      180.000000       -0.122704         4    ;  uncertainty k = 0.157695
         7         6        25        26     9        0.000000       -0.866618         1    ;  uncertainty k = 1.135261
         7         6        25        26     9      180.000000       -3.606559         2    ;  uncertainty k = 1.491924
         7         6        25        26     9        0.000000        0.678322         3    ;  uncertainty k = 0.254845
         7         6        25        26     9      180.000000        0.062316         4    ;  uncertainty k = 0.382750
         7         6        25        47     9        0.000000        0.796084         1    ;  uncertainty k = 0.720211
         7         6        25        47     9      180.000000       -1.004917         2    ;  uncertainty k = 0.520945
         7         6        25        47     9        0.000000       -0.245006         3    ;  uncertainty k = 0.097716
         7         6        25        47     9      180.000000       -0.004861         4    ;  uncertainty k = 0.195203
         7         8         9        10     9        0.000000        0.312413         1    ;  uncertainty k = 0.242918
         7         8         9        10     9      180.000000        8.638334         2    ;  uncertainty k = 0.468596
         7         8         9        10     9        0.000000        1.448800         3    ;  uncertainty k = 0.340804
         7         8         9        10     9      180.000000        1.905016         4    ;  uncertainty k = 0.200484
         7         8         9        38     9        0.000000        0.035753         1    ;  uncertainty k = 0.305801
         7         8         9        38     9      180.000000        7.827039         2    ;  uncertainty k = 0.268348
         7         8         9        38     9        0.000000        0.557555         3    ;  uncertainty k = 0.370060
         7         8         9        38     9      180.000000        0.865304         4    ;  uncertainty k = 0.172707
         7         8        13        12     9        0.000000        0.312413         1    ;  uncertainty k = 0.242918
         7         8        13        12     9      180.000000        8.638334         2    ;  uncertainty k = 0.468596
         7         8        13        12     9        0.000000        1.448800         3    ;  uncertainty k = 0.340804
         7         8        13        12     9      180.000000        1.905016         4    ;  uncertainty k = 0.200484
         7         8        13        42     9        0.000000        0.035753         1    ;  uncertainty k = 0.305801
         7         8        13        42     9      180.000000        7.827039         2    ;  uncertainty k = 0.268348
         7         8        13        42     9        0.000000        0.557555         3    ;  uncertainty k = 0.370060
         7         8        13        42     9      180.000000        0.865304         4    ;  uncertainty k = 0.172707
         7        14        15        16     9        0.000000        0.472912         1    ;  uncertainty k = 0.815216
         7        14        15        16     9      180.000000        4.888522         2    ;  uncertainty k = 0.752070
         7        14        15        16     9        0.000000        0.397595         3    ;  uncertainty k = 0.545066
         7        14        15        16     9      180.000000        0.383807         4    ;  uncertainty k = 0.280593
         7        14        15        24     9        0.000000        4.144113         1    ;  uncertainty k = 2.103607
         7        14        15        24     9      180.000000        2.453511         2    ;  uncertainty k = 0.610740
         7        14        15        24     9        0.000000        0.023719         3    ;  uncertainty k = 0.473401
         7        14        15        24     9      180.000000        0.682039         4    ;  uncertainty k = 0.226903
         8         7         6        25     9        0.000000       -0.634172         1    ;  uncertainty k = 0.738898
         8         7         6        25     9      180.000000       -0.389088         2    ;  uncertainty k = 0.403375
         8         7         6        25     9        0.000000        0.403170         3    ;  uncertainty k = 0.228098
         8         7         6        25     9      180.000000       -0.031381         4    ;  uncertainty k = 0.138827
         8         7         6        36     9        0.000000        0.530295         1    ;  uncertainty k = 0.246708
         8         7         6        36     9      180.000000        0.121250         2    ;  uncertainty k = 0.617133
         8         7         6        36     9        0.000000        0.451811         3    ;  uncertainty k = 0.081496
         8         7         6        36     9      180.000000       -0.031873         4    ;  uncertainty k = 0.108858
         8         7        14        15     9        0.000000       -1.240810         1    ;  uncertainty k = 0.913860
         8         7        14        15     9      180.000000        0.100980         2    ;  uncertainty k = 0.285956
         8         7        14        15     9        0.000000        1.048824         3    ;  uncertainty k = 0.262246
         8         7        14        15     9      180.000000        0.199554         4    ;  uncertainty k = 0.098576
         8         7        14        43     9        0.000000        4.878358         1    ;  uncertainty k = 0.569249
         8         7        14        43     9      180.000000       -1.058872         2    ;  uncertainty k = 0.283859
         8         7        14        43     9        0.000000        0.413858         3    ;  uncertainty k = 0.297007
         8         7        14        43     9      180.000000       -0.032690         4    ;  uncertainty k = 0.182555
         8         9        10        11     9        0.000000       -0.073185         1    ;  uncertainty k = 0.135863
         8         9        10        11     9      180.000000       13.840581         2    ;  uncertainty k = 0.218470
         8         9        10        11     9        0.000000       -0.942124         3    ;  uncertainty k = 0.500159
         8         9        10        11     9      180.000000        0.720226         4    ;  uncertainty k = 0.249573
         8         9        10        39     9        0.000000        0.078937         1    ;  uncertainty k = 0.238410
         8         9        10        39     9      180.000000        7.523904         2    ;  uncertainty k = 0.411008
         8         9        10        39     9        0.000000        1.486224         3    ;  uncertainty k = 0.266910
         8         9        10        39     9      180.000000        1.791252         4    ;  uncertainty k = 0.130361
         8        13        12        11     9        0.000000       -0.073185         1    ;  uncertainty k = 0.135863
         8        13        12        11     9      180.000000       13.840581         2    ;  uncertainty k = 0.218470
         8        13        12        11     9        0.000000       -0.942124         3    ;  uncertainty k = 0.500159
         8        13        12        11     9      180.000000        0.720226         4    ;  uncertainty k = 0.249573
         8        13        12        41     9        0.000000        0.078937         1    ;  uncertainty k = 0.238410
         8        13        12        41     9      180.000000        7.523904         2    ;  uncertainty k = 0.411008
         8        13        12        41     9        0.000000        1.486224         3    ;  uncertainty k = 0.266910
         8        13        12        41     9      180.000000        1.791252         4    ;  uncertainty k = 0.130361
         9         8         7        14     9        0.000000       -0.590756         1    ;  uncertainty k = 0.525590
         9         8         7        14     9      180.000000        2.732820         2    ;  uncertainty k = 0.257489
         9         8         7        14     9        0.000000        0.629229         3    ;  uncertainty k = 0.228491
         9         8         7        14     9      180.000000        0.435378         4    ;  uncertainty k = 0.023802
         9         8         7        37     9        0.000000       -0.618195         1    ;  uncertainty k = 0.243535
         9         8         7        37     9      180.000000        2.285545         2    ;  uncertainty k = 0.337300
         9         8         7        37     9        0.000000        0.482603         3    ;  uncertainty k = 0.112819
         9         8         7        37     9      180.000000        0.236140         4    ;  uncertainty k = 0.049742
         9         8        13        12     9        0.000000       -0.244750         1    ;  uncertainty k = 0.085030
         9         8        13        12     9      180.000000       11.550238         2    ;  uncertainty k = 0.281782
         9         8        13        12     9        0.000000       -0.471965         3    ;  uncertainty k = 0.307308
         9         8        13        12     9      180.000000        0.819629         4    ;  uncertainty k = 0.339588
         9         8        13        42     9        0.000000        0.103785         1    ;  uncertainty k = 0.115164
         9         8        13        42     9      180.000000        7.232566         2    ;  uncertainty k = 0.479326
         9         8        13        42     9        0.000000        1.441609         3    ;  uncertainty k = 0.358039
         9         8        13        42     9      180.000000        1.626932         4    ;  uncertainty k = 0.180627
         9        10        11        12     9        0.000000        0.003338         1    ;  uncertainty k = 0.036528
         9        10        11        12     9      180.000000       15.061872         2    ;  uncertainty k = 0.266781
         9        10        11        12     9        0.000000       -1.241530         3    ;  uncertainty k = 0.510933
         9        10        11        12     9      180.000000        0.486539         4    ;  uncertainty k = 0.300059
         9        10        11        40     9        0.000000        0.055743         1    ;  uncertainty k = 0.094833
         9        10        11        40     9      180.000000        7.490470         2    ;  uncertainty k = 0.333391
         9        10        11        40     9        0.000000        1.467121         3    ;  uncertainty k = 0.292765
         9        10        11        40     9      180.000000        1.797081         4    ;  uncertainty k = 0.179698
        10         9         8        13     9        0.000000       -0.244750         1    ;  uncertainty k = 0.085030
        10         9         8        13     9      180.000000       11.550238         2    ;  uncertainty k = 0.281782
        10         9         8        13     9        0.000000       -0.471965         3    ;  uncertainty k = 0.307308
        10         9         8        13     9      180.000000        0.819629         4    ;  uncertainty k = 0.339588
        10        11        12        13     9        0.000000        0.003338         1    ;  uncertainty k = 0.036528
        10        11        12        13     9      180.000000       15.061872         2    ;  uncertainty k = 0.266781
        10        11        12        13     9        0.000000       -1.241530         3    ;  uncertainty k = 0.510933
        10        11        12        13     9      180.000000        0.486539         4    ;  uncertainty k = 0.300059
        10        11        12        41     9        0.000000        0.045944         1    ;  uncertainty k = 0.040455
        10        11        12        41     9      180.000000        7.527539         2    ;  uncertainty k = 0.325490
        10        11        12        41     9        0.000000        1.433627         3    ;  uncertainty k = 0.327115
        10        11        12        41     9      180.000000        1.790207         4    ;  uncertainty k = 0.158460
        11        10         9        38     9        0.000000        0.053110         1    ;  uncertainty k = 0.076538
        11        10         9        38     9      180.000000        7.946075         2    ;  uncertainty k = 0.338884
        11        10         9        38     9        0.000000        1.427770         3    ;  uncertainty k = 0.326160
        11        10         9        38     9      180.000000        1.836126         4    ;  uncertainty k = 0.159402
        11        12        13        42     9        0.000000        0.053110         1    ;  uncertainty k = 0.076538
        11        12        13        42     9      180.000000        7.946075         2    ;  uncertainty k = 0.338884
        11        12        13        42     9        0.000000        1.427770         3    ;  uncertainty k = 0.326160
        11        12        13        42     9      180.000000        1.836126         4    ;  uncertainty k = 0.159402
        12        11        10        39     9        0.000000        0.045944         1    ;  uncertainty k = 0.040455
        12        11        10        39     9      180.000000        7.527539         2    ;  uncertainty k = 0.325490
        12        11        10        39     9        0.000000        1.433627         3    ;  uncertainty k = 0.327115
        12        11        10        39     9      180.000000        1.790207         4    ;  uncertainty k = 0.158460
        13         8         7        14     9        0.000000       -0.590756         1    ;  uncertainty k = 0.525590
        13         8         7        14     9      180.000000        2.732820         2    ;  uncertainty k = 0.257489
        13         8         7        14     9        0.000000        0.629229         3    ;  uncertainty k = 0.228491
        13         8         7        14     9      180.000000        0.435378         4    ;  uncertainty k = 0.023802
        13         8         7        37     9        0.000000       -0.618195         1    ;  uncertainty k = 0.243535
        13         8         7        37     9      180.000000        2.285545         2    ;  uncertainty k = 0.337300
        13         8         7        37     9        0.000000        0.482603         3    ;  uncertainty k = 0.112819
        13         8         7        37     9      180.000000        0.236140         4    ;  uncertainty k = 0.049742
        13         8         9        38     9        0.000000        0.103785         1    ;  uncertainty k = 0.115164
        13         8         9        38     9      180.000000        7.232566         2    ;  uncertainty k = 0.479326
        13         8         9        38     9        0.000000        1.441609         3    ;  uncertainty k = 0.358039
        13         8         9        38     9      180.000000        1.626932         4    ;  uncertainty k = 0.180627
        13        12        11        40     9        0.000000        0.055743         1    ;  uncertainty k = 0.094833
        13        12        11        40     9      180.000000        7.490470         2    ;  uncertainty k = 0.333391
        13        12        11        40     9        0.000000        1.467121         3    ;  uncertainty k = 0.292765
        13        12        11        40     9      180.000000        1.797081         4    ;  uncertainty k = 0.179698
        14         7         6        25     9        0.000000        0.117302         1    ;  uncertainty k = 2.194740
        14         7         6        25     9      180.000000       -1.236870         2    ;  uncertainty k = 0.315425
        14         7         6        25     9        0.000000        0.533540         3    ;  uncertainty k = 0.435051
        14         7         6        25     9      180.000000       -0.173950         4    ;  uncertainty k = 0.362051
        14         7         6        36     9        0.000000       -0.947832         1    ;  uncertainty k = 0.627969
        14         7         6        36     9      180.000000        0.170574         2    ;  uncertainty k = 0.410475
        14         7         6        36     9        0.000000        0.627907         3    ;  uncertainty k = 0.278858
        14         7         6        36     9      180.000000        0.059565         4    ;  uncertainty k = 0.093137
        14        15        16        17     9        0.000000        0.231428         1    ;  uncertainty k = 0.389796
        14        15        16        17     9      180.000000       10.238476         2    ;  uncertainty k = 0.466629
        14        15        16        17     9        0.000000        1.246350         3    ;  uncertainty k = 0.222856
        14        15        16        17     9      180.000000        1.655065         4    ;  uncertainty k = 0.267772
        14        15        16        44     9        0.000000       -0.252323         1    ;  uncertainty k = 0.534719
        14        15        16        44     9      180.000000        8.173630         2    ;  uncertainty k = 0.357489
        14        15        16        44     9        0.000000        1.005200         3    ;  uncertainty k = 0.139229
        14        15        16        44     9      180.000000        1.186391         4    ;  uncertainty k = 0.335076
        14        15        24        23     9        0.000000        0.514705         1    ;  uncertainty k = 0.664253
        14        15        24        23     9      180.000000        7.605362         2    ;  uncertainty k = 0.362138
        14        15        24        23     9        0.000000        0.991340         3    ;  uncertainty k = 0.193914
        14        15        24        23     9      180.000000        1.359285         4    ;  uncertainty k = 0.393670
        14        15        24        25     9        0.000000        0.075241         1    ;  uncertainty k = 0.560436
        14        15        24        25     9      180.000000        7.592797         2    ;  uncertainty k = 1.051161
        14        15        24        25     9        0.000000        0.699064         3    ;  uncertainty k = 0.576438
        14        15        24        25     9      180.000000        1.214032         4    ;  uncertainty k = 0.492245
        15        14         7        37     9        0.000000       -0.859913         1    ;  uncertainty k = 0.376970
        15        14         7        37     9      180.000000       -0.534872         2    ;  uncertainty k = 0.442168
        15        14         7        37     9        0.000000        0.715681         3    ;  uncertainty k = 0.162008
        15        14         7        37     9      180.000000        0.204030         4    ;  uncertainty k = 0.096027
        15        16        17        18     9        0.000000       -0.182690         1    ;  uncertainty k = 0.192395
        15        16        17        18     9      180.000000       13.581550         2    ;  uncertainty k = 0.317227
        15        16        17        18     9        0.000000       -0.529046         3    ;  uncertainty k = 0.592314
        15        16        17        18     9      180.000000        0.815071         4    ;  uncertainty k = 0.353191
        15        16        17        45     9        0.000000        0.317053         1    ;  uncertainty k = 0.513037
        15        16        17        45     9      180.000000        9.069728         2    ;  uncertainty k = 0.572384
        15        16        17        45     9        0.000000        1.256166         3    ;  uncertainty k = 0.254022
        15        16        17        45     9      180.000000        1.555765         4    ;  uncertainty k = 0.257997
        15        24        23        18     9        0.000000       -0.267304         1    ;  uncertainty k = 0.412363
        15        24        23        18     9      180.000000       11.752076         2    ;  uncertainty k = 0.425099
        15        24        23        18     9        0.000000       -0.315776         3    ;  uncertainty k = 0.520191
        15        24        23        18     9      180.000000        0.915764         4    ;  uncertainty k = 0.515936
        15        24        23        46     9        0.000000        0.324812         1    ;  uncertainty k = 0.368050
        15        24        23        46     9      180.000000        8.288328         2    ;  uncertainty k = 0.526602
        15        24        23        46     9        0.000000        1.376753         3    ;  uncertainty k = 0.326265
        15        24        23        46     9      180.000000        1.578090         4    ;  uncertainty k = 0.187003
        15        24        25        26     9        0.000000       -1.980642         1    ;  uncertainty k = 1.961225
        15        24        25        26     9      180.000000       -0.001514         2    ;  uncertainty k = 1.110779
        15        24        25        26     9        0.000000        1.497086         3    ;  uncertainty k = 0.310280
        15        24        25        26     9      180.000000        0.006432         4    ;  uncertainty k = 0.191547
        15        24        25        47     9        0.000000       -0.384383         1    ;  uncertainty k = 0.780912
        15        24        25        47     9      180.000000        2.073237         2    ;  uncertainty k = 0.276326
        15        24        25        47     9        0.000000        0.480895         3    ;  uncertainty k = 0.243076
        15        24        25        47     9      180.000000       -0.200014         4    ;  uncertainty k = 0.111453
        16        15        14        43     9        0.000000        1.644528         1    ;  uncertainty k = 0.671486
        16        15        14        43     9      180.000000        5.648100         2    ;  uncertainty k = 0.263411
        16        15        14        43     9        0.000000        0.887669         3    ;  uncertainty k = 0.335481
        16        15        14        43     9      180.000000       -0.022902         4    ;  uncertainty k = 0.180172
        16        15        24        23     9        0.000000        0.317716         1    ;  uncertainty k = 0.350190
        16        15        24        23     9      180.000000        5.948735         2    ;  uncertainty k = 0.533573
        16        15        24        23     9        0.000000        0.392054         3    ;  uncertainty k = 0.350697
        16        15        24        23     9      180.000000        1.333497         4    ;  uncertainty k = 0.239548
        16        15        24        25     9        0.000000        0.652235         1    ;  uncertainty k = 0.612898
        16        15        24        25     9      180.000000        5.735858         2    ;  uncertainty k = 0.432383
        16        15        24        25     9        0.000000        1.316685         3    ;  uncertainty k = 0.230243
        16        15        24        25     9      180.000000        1.592667         4    ;  uncertainty k = 0.293330
        16        17        18        19     9        0.000000        0.110284         1    ;  uncertainty k = 0.167159
        16        17        18        19     9      180.000000        9.822618         2    ;  uncertainty k = 0.704573
        16        17        18        19     9        0.000000        1.387105         3    ;  uncertainty k = 0.349698
        16        17        18        19     9      180.000000        1.947236         4    ;  uncertainty k = 0.332596
        16        17        18        23     9        0.000000       -0.034672         1    ;  uncertainty k = 0.203903
        16        17        18        23     9      180.000000       12.012212         2    ;  uncertainty k = 0.382685
        16        17        18        23     9        0.000000       -0.709598         3    ;  uncertainty k = 0.306769
        16        17        18        23     9      180.000000        0.893585         4    ;  uncertainty k = 0.295330
        17        16        15        24     9        0.000000        0.306570         1    ;  uncertainty k = 0.425942
        17        16        15        24     9      180.000000        7.300329         2    ;  uncertainty k = 0.363063
        17        16        15        24     9        0.000000        0.474892         3    ;  uncertainty k = 0.421538
        17        16        15        24     9      180.000000        1.413924         4    ;  uncertainty k = 0.213423
        17        18        19        20     9        0.000000       -0.682419         1    ;  uncertainty k = 0.249405
        17        18        19        20     9      180.000000        2.604905         2    ;  uncertainty k = 0.094363
        17        18        19        20     9        0.000000        0.754799         3    ;  uncertainty k = 0.077531
        17        18        19        20     9      180.000000        0.158520         4    ;  uncertainty k = 0.059056
        17        18        19        21     9        0.000000       -0.682419         1    ;  uncertainty k = 0.249405
        17        18        19        21     9      180.000000        2.604905         2    ;  uncertainty k = 0.094363
        17        18        19        21     9        0.000000        0.754799         3    ;  uncertainty k = 0.077531
        17        18        19        21     9      180.000000        0.158520         4    ;  uncertainty k = 0.059056
        17        18        19        22     9        0.000000       -0.682419         1    ;  uncertainty k = 0.249405
        17        18        19        22     9      180.000000        2.604905         2    ;  uncertainty k = 0.094363
        17        18        19        22     9        0.000000        0.754799         3    ;  uncertainty k = 0.077531
        17        18        19        22     9      180.000000        0.158520         4    ;  uncertainty k = 0.059056
        17        18        23        24     9        0.000000        0.036150         1    ;  uncertainty k = 0.285338
        17        18        23        24     9      180.000000       11.001547         2    ;  uncertainty k = 0.517109
        17        18        23        24     9        0.000000       -0.397288         3    ;  uncertainty k = 0.757389
        17        18        23        24     9      180.000000        1.041673         4    ;  uncertainty k = 0.528914
        17        18        23        46     9        0.000000        0.167488         1    ;  uncertainty k = 0.232761
        17        18        23        46     9      180.000000        7.759393         2    ;  uncertainty k = 0.302343
        17        18        23        46     9        0.000000        1.300806         3    ;  uncertainty k = 0.409955
        17        18        23        46     9      180.000000        1.640925         4    ;  uncertainty k = 0.190721
        18        17        16        44     9        0.000000        0.175558         1    ;  uncertainty k = 0.194208
        18        17        16        44     9      180.000000        8.463922         2    ;  uncertainty k = 0.413469
        18        17        16        44     9        0.000000        1.526973         3    ;  uncertainty k = 0.227749
        18        17        16        44     9      180.000000        1.855719         4    ;  uncertainty k = 0.242609
        18        23        24        25     9        0.000000       -0.040512         1    ;  uncertainty k = 0.532018
        18        23        24        25     9      180.000000       10.597586         2    ;  uncertainty k = 0.420735
        18        23        24        25     9        0.000000        1.336149         3    ;  uncertainty k = 0.145285
        18        23        24        25     9      180.000000        1.749531         4    ;  uncertainty k = 0.508490
        19        18        17        45     9        0.000000       -0.108565         1    ;  uncertainty k = 0.468395
        19        18        17        45     9      180.000000        8.611636         2    ;  uncertainty k = 0.510213
        19        18        17        45     9        0.000000        0.670475         3    ;  uncertainty k = 0.276177
        19        18        17        45     9      180.000000        1.004020         4    ;  uncertainty k = 0.160387
        19        18        23        24     9        0.000000        0.184112         1    ;  uncertainty k = 0.430340
        19        18        23        24     9      180.000000       10.236153         2    ;  uncertainty k = 0.564348
        19        18        23        24     9        0.000000        1.596329         3    ;  uncertainty k = 0.294702
        19        18        23        24     9      180.000000        1.951289         4    ;  uncertainty k = 0.285583
        19        18        23        46     9        0.000000        0.104725         1    ;  uncertainty k = 0.367020
        19        18        23        46     9      180.000000        8.817675         2    ;  uncertainty k = 0.477946
        19        18        23        46     9        0.000000        0.711158         3    ;  uncertainty k = 0.170461
        19        18        23        46     9      180.000000        1.070202         4    ;  uncertainty k = 0.164772
        20        19        18        23     9        0.000000       -0.574436         1    ;  uncertainty k = 0.288117
        20        19        18        23     9      180.000000        2.562507         2    ;  uncertainty k = 0.201571
        20        19        18        23     9        0.000000        0.701170         3    ;  uncertainty k = 0.104983
        20        19        18        23     9      180.000000        0.155921         4    ;  uncertainty k = 0.065716
        21        19        18        23     9        0.000000       -0.574436         1    ;  uncertainty k = 0.288117
        21        19        18        23     9      180.000000        2.562507         2    ;  uncertainty k = 0.201571
        21        19        18        23     9        0.000000        0.701170         3    ;  uncertainty k = 0.104983
        21        19        18        23     9      180.000000        0.155921         4    ;  uncertainty k = 0.065716
        22        19        18        23     9        0.000000       -0.574436         1    ;  uncertainty k = 0.288117
        22        19        18        23     9      180.000000        2.562507         2    ;  uncertainty k = 0.201571
        22        19        18        23     9        0.000000        0.701170         3    ;  uncertainty k = 0.104983
        22        19        18        23     9      180.000000        0.155921         4    ;  uncertainty k = 0.065716
        23        18        17        45     9        0.000000        0.213861         1    ;  uncertainty k = 0.199738
        23        18        17        45     9      180.000000        7.175611         2    ;  uncertainty k = 0.543777
        23        18        17        45     9        0.000000        1.246727         3    ;  uncertainty k = 0.361361
        23        18        17        45     9      180.000000        1.612476         4    ;  uncertainty k = 0.317209
        23        24        25        26     9        0.000000        0.323278         1    ;  uncertainty k = 0.208221
        23        24        25        26     9      180.000000        1.130979         2    ;  uncertainty k = 0.474098
        23        24        25        26     9        0.000000       -0.232666         3    ;  uncertainty k = 0.449767
        23        24        25        26     9      180.000000        0.094880         4    ;  uncertainty k = 0.143819
        23        24        25        47     9        0.000000        0.534197         1    ;  uncertainty k = 0.987215
        23        24        25        47     9      180.000000        1.843788         2    ;  uncertainty k = 0.379068
        23        24        25        47     9        0.000000        0.087485         3    ;  uncertainty k = 0.162162
        23        24        25        47     9      180.000000        0.009053         4    ;  uncertainty k = 0.132683
        24        15        14        43     9        0.000000       11.680208         1    ;  uncertainty k = 0.714263
        24        15        14        43     9      180.000000        5.639670         2    ;  uncertainty k = 0.496850
        24        15        14        43     9        0.000000        0.337104         3    ;  uncertainty k = 0.311469
        24        15        14        43     9      180.000000        0.199068         4    ;  uncertainty k = 0.154313
        24        15        16        44     9        0.000000        0.270044         1    ;  uncertainty k = 0.888280
        24        15        16        44     9      180.000000        6.341357         2    ;  uncertainty k = 0.647732
        24        15        16        44     9        0.000000        1.346204         3    ;  uncertainty k = 0.254113
        24        15        16        44     9      180.000000        1.274156         4    ;  uncertainty k = 0.236801
        24        25         6        36     9        0.000000       -0.414277         1    ;  uncertainty k = 1.015522
        24        25         6        36     9      180.000000        0.745460         2    ;  uncertainty k = 0.495184
        24        25         6        36     9        0.000000        0.005711         3    ;  uncertainty k = 0.107341
        24        25         6        36     9      180.000000       -0.075531         4    ;  uncertainty k = 0.100588
        25         6         5        34     9        0.000000       -0.378174         1    ;  uncertainty k = 0.492032
        25         6         5        34     9      180.000000       -0.667956         2    ;  uncertainty k = 0.147162
        25         6         5        34     9        0.000000        0.284262         3    ;  uncertainty k = 0.121781
        25         6         5        34     9      180.000000       -0.012084         4    ;  uncertainty k = 0.050647
        25         6         5        35     9        0.000000       -0.378174         1    ;  uncertainty k = 0.492032
        25         6         5        35     9      180.000000       -0.667956         2    ;  uncertainty k = 0.147162
        25         6         5        35     9        0.000000        0.284262         3    ;  uncertainty k = 0.121781
        25         6         5        35     9      180.000000       -0.012084         4    ;  uncertainty k = 0.050647
        25         6         7        37     9        0.000000        0.625379         1    ;  uncertainty k = 0.773972
        25         6         7        37     9      180.000000       -1.421084         2    ;  uncertainty k = 0.703662
        25         6         7        37     9        0.000000       -0.401535         3    ;  uncertainty k = 0.137128
        25         6         7        37     9      180.000000        0.018395         4    ;  uncertainty k = 0.144997
        25        24        23        46     9        0.000000       -0.294615         1    ;  uncertainty k = 0.496876
        25        24        23        46     9      180.000000        8.400162         2    ;  uncertainty k = 0.781182
        25        24        23        46     9        0.000000        0.814423         3    ;  uncertainty k = 0.314352
        25        24        23        46     9      180.000000        1.106400         4    ;  uncertainty k = 0.426909
        25        26         3        31     9        0.000000       -2.013050         1    ;  uncertainty k = 1.628502
        25        26         3        31     9      180.000000       -0.771349         2    ;  uncertainty k = 0.556937
        25        26         3        31     9        0.000000        0.225686         3    ;  uncertainty k = 0.052009
        25        26         3        31     9      180.000000        0.012716         4    ;  uncertainty k = 0.160934
        26         3         2        29     9        0.000000        1.264783         1    ;  uncertainty k = 0.994682
        26         3         2        29     9      180.000000       -0.852993         2    ;  uncertainty k = 0.170947
        26         3         2        29     9        0.000000        0.419370         3    ;  uncertainty k = 0.320912
        26         3         2        29     9      180.000000       -0.101654         4    ;  uncertainty k = 0.207928
        26         3         2        30     9        0.000000        1.264783         1    ;  uncertainty k = 0.994682
        26         3         2        30     9      180.000000       -0.852993         2    ;  uncertainty k = 0.170947
        26         3         2        30     9        0.000000        0.419370         3    ;  uncertainty k = 0.320912
        26         3         2        30     9      180.000000       -0.101654         4    ;  uncertainty k = 0.207928
        26         3         4        32     9        0.000000       -1.107067         1    ;  uncertainty k = 0.385813
        26         3         4        32     9      180.000000       -1.110067         2    ;  uncertainty k = 0.459042
        26         3         4        32     9        0.000000        1.055850         3    ;  uncertainty k = 0.254815
        26         3         4        32     9      180.000000       -0.076720         4    ;  uncertainty k = 0.047213
        26         3         4        33     9        0.000000       -1.107067         1    ;  uncertainty k = 0.385813
        26         3         4        33     9      180.000000       -1.110067         2    ;  uncertainty k = 0.459042
        26         3         4        33     9        0.000000        1.055850         3    ;  uncertainty k = 0.254815
        26         3         4        33     9      180.000000       -0.076720         4    ;  uncertainty k = 0.047213
        26        25         6        36     9        0.000000       -0.605904         1    ;  uncertainty k = 0.346562
        26        25         6        36     9      180.000000        0.354323         2    ;  uncertainty k = 0.588281
        26        25         6        36     9        0.000000        0.088711         3    ;  uncertainty k = 0.295841
        26        25         6        36     9      180.000000       -0.137501         4    ;  uncertainty k = 0.133466
        27         1         2        29     9        0.000000       -0.141174         1    ;  uncertainty k = 0.650966
        27         1         2        29     9      180.000000       -0.181499         2    ;  uncertainty k = 0.258786
        27         1         2        29     9        0.000000        0.564828         3    ;  uncertainty k = 0.065412
        27         1         2        29     9      180.000000        0.012277         4    ;  uncertainty k = 0.065433
        27         1         2        30     9        0.000000       -0.141174         1    ;  uncertainty k = 0.650966
        27         1         2        30     9      180.000000       -0.181499         2    ;  uncertainty k = 0.258786
        27         1         2        30     9        0.000000        0.564828         3    ;  uncertainty k = 0.065412
        27         1         2        30     9      180.000000        0.012277         4    ;  uncertainty k = 0.065433
        28         1         2        29     9        0.000000       -0.141174         1    ;  uncertainty k = 0.650966
        28         1         2        29     9      180.000000       -0.181499         2    ;  uncertainty k = 0.258786
        28         1         2        29     9        0.000000        0.564828         3    ;  uncertainty k = 0.065412
        28         1         2        29     9      180.000000        0.012277         4    ;  uncertainty k = 0.065433
        28         1         2        30     9        0.000000       -0.141174         1    ;  uncertainty k = 0.650966
        28         1         2        30     9      180.000000       -0.181499         2    ;  uncertainty k = 0.258786
        28         1         2        30     9        0.000000        0.564828         3    ;  uncertainty k = 0.065412
        28         1         2        30     9      180.000000        0.012277         4    ;  uncertainty k = 0.065433
        29         2         1        48     9        0.000000       -0.141173         1    ;  uncertainty k = 0.650967
        29         2         1        48     9      180.000000       -0.181500         2    ;  uncertainty k = 0.258787
        29         2         1        48     9        0.000000        0.564828         3    ;  uncertainty k = 0.065412
        29         2         1        48     9      180.000000        0.012277         4    ;  uncertainty k = 0.065433
        29         2         3        31     9        0.000000       -0.225680         1    ;  uncertainty k = 0.415318
        29         2         3        31     9      180.000000        0.068846         2    ;  uncertainty k = 0.427103
        29         2         3        31     9        0.000000        0.163577         3    ;  uncertainty k = 0.176839
        29         2         3        31     9      180.000000       -0.043906         4    ;  uncertainty k = 0.061726
        30         2         1        48     9        0.000000       -0.141173         1    ;  uncertainty k = 0.650967
        30         2         1        48     9      180.000000       -0.181500         2    ;  uncertainty k = 0.258787
        30         2         1        48     9        0.000000        0.564828         3    ;  uncertainty k = 0.065412
        30         2         1        48     9      180.000000        0.012277         4    ;  uncertainty k = 0.065433
        30         2         3        31     9        0.000000       -0.225680         1    ;  uncertainty k = 0.415318
        30         2         3        31     9      180.000000        0.068846         2    ;  uncertainty k = 0.427103
        30         2         3        31     9        0.000000        0.163577         3    ;  uncertainty k = 0.176839
        30         2         3        31     9      180.000000       -0.043906         4    ;  uncertainty k = 0.061726
        31         3         4        32     9        0.000000        0.468375         1    ;  uncertainty k = 0.168781
        31         3         4        32     9      180.000000        0.063427         2    ;  uncertainty k = 0.328065
        31         3         4        32     9        0.000000       -0.018304         3    ;  uncertainty k = 0.148589
        31         3         4        32     9      180.000000       -0.116308         4    ;  uncertainty k = 0.076472
        31         3         4        33     9        0.000000        0.468375         1    ;  uncertainty k = 0.168781
        31         3         4        33     9      180.000000        0.063427         2    ;  uncertainty k = 0.328065
        31         3         4        33     9        0.000000       -0.018304         3    ;  uncertainty k = 0.148589
        31         3         4        33     9      180.000000       -0.116308         4    ;  uncertainty k = 0.076472
        32         4         5        34     9        0.000000        1.554259         1    ;  uncertainty k = 0.444592
        32         4         5        34     9      180.000000        0.164795         2    ;  uncertainty k = 0.260285
        32         4         5        34     9        0.000000        0.370614         3    ;  uncertainty k = 0.119273
        32         4         5        34     9      180.000000        0.078034         4    ;  uncertainty k = 0.019070
        32         4         5        35     9        0.000000        1.554259         1    ;  uncertainty k = 0.444592
        32         4         5        35     9      180.000000        0.164795         2    ;  uncertainty k = 0.260285
        32         4         5        35     9        0.000000        0.370614         3    ;  uncertainty k = 0.119273
        32         4         5        35     9      180.000000        0.078034         4    ;  uncertainty k = 0.019070
        33         4         5        34     9        0.000000        1.554259         1    ;  uncertainty k = 0.444592
        33         4         5        34     9      180.000000        0.164795         2    ;  uncertainty k = 0.260285
        33         4         5        34     9        0.000000        0.370614         3    ;  uncertainty k = 0.119273
        33         4         5        34     9      180.000000        0.078034         4    ;  uncertainty k = 0.019070
        33         4         5        35     9        0.000000        1.554259         1    ;  uncertainty k = 0.444592
        33         4         5        35     9      180.000000        0.164795         2    ;  uncertainty k = 0.260285
        33         4         5        35     9        0.000000        0.370614         3    ;  uncertainty k = 0.119273
        33         4         5        35     9      180.000000        0.078034         4    ;  uncertainty k = 0.019070
        34         5         6        36     9        0.000000        1.556155         1    ;  uncertainty k = 0.374248
        34         5         6        36     9      180.000000       -0.010849         2    ;  uncertainty k = 0.316681
        34         5         6        36     9        0.000000       -0.074252         3    ;  uncertainty k = 0.123289
        34         5         6        36     9      180.000000        0.022583         4    ;  uncertainty k = 0.073589
        35         5         6        36     9        0.000000        1.556155         1    ;  uncertainty k = 0.374248
        35         5         6        36     9      180.000000       -0.010849         2    ;  uncertainty k = 0.316681
        35         5         6        36     9        0.000000       -0.074252         3    ;  uncertainty k = 0.123289
        35         5         6        36     9      180.000000        0.022583         4    ;  uncertainty k = 0.073589
        36         6         7        37     9        0.000000        1.077534         1    ;  uncertainty k = 0.458222
        36         6         7        37     9      180.000000       -0.042491         2    ;  uncertainty k = 0.250346
        36         6         7        37     9        0.000000       -0.346965         3    ;  uncertainty k = 0.176981
        36         6         7        37     9      180.000000       -0.270511         4    ;  uncertainty k = 0.102482
        36         6        25        47     9        0.000000        2.070250         1    ;  uncertainty k = 0.448495
        36         6        25        47     9      180.000000        0.876143         2    ;  uncertainty k = 0.447052
        36         6        25        47     9        0.000000       -0.476786         3    ;  uncertainty k = 0.228055
        36         6        25        47     9      180.000000       -0.170908         4    ;  uncertainty k = 0.066586
        37         7        14        43     9        0.000000        0.468543         1    ;  uncertainty k = 0.563666
        37         7        14        43     9      180.000000       -0.983994         2    ;  uncertainty k = 0.285945
        37         7        14        43     9        0.000000        0.482175         3    ;  uncertainty k = 0.277172
        37         7        14        43     9      180.000000        0.028441         4    ;  uncertainty k = 0.127509
        38         9        10        39     9        0.000000       -0.038401         1    ;  uncertainty k = 0.034127
        38         9        10        39     9      180.000000        7.644154         2    ;  uncertainty k = 0.255448
        38         9        10        39     9        0.000000       -0.470075         3    ;  uncertainty k = 0.270053
        38         9        10        39     9      180.000000        0.106023         4    ;  uncertainty k = 0.117776
        39        10        11        40     9        0.000000       -0.016279         1    ;  uncertainty k = 0.090335
        39        10        11        40     9      180.000000        7.510681         2    ;  uncertainty k = 0.369437
        39        10        11        40     9        0.000000       -0.422665         3    ;  uncertainty k = 0.276612
        39        10        11        40     9      180.000000        0.041075         4    ;  uncertainty k = 0.155578
        40        11        12        41     9        0.000000       -0.016279         1    ;  uncertainty k = 0.090335
        40        11        12        41     9      180.000000        7.510681         2    ;  uncertainty k = 0.369437
        40        11        12        41     9        0.000000       -0.422665         3    ;  uncertainty k = 0.276612
        40        11        12        41     9      180.000000        0.041075         4    ;  uncertainty k = 0.155578
        41        12        13        42     9        0.000000       -0.038401         1    ;  uncertainty k = 0.034127
        41        12        13        42     9      180.000000        7.644154         2    ;  uncertainty k = 0.255448
        41        12        13        42     9        0.000000       -0.470075         3    ;  uncertainty k = 0.270053
        41        12        13        42     9      180.000000        0.106023         4    ;  uncertainty k = 0.117776
        44        16        17        45     9        0.000000        0.247011         1    ;  uncertainty k = 0.623700
        44        16        17        45     9      180.000000        7.829038         2    ;  uncertainty k = 0.394733
        44        16        17        45     9        0.000000       -0.335446         3    ;  uncertainty k = 0.271687
        44        16        17        45     9      180.000000        0.202602         4    ;  uncertainty k = 0.180743

[ dihedrals ] ; impropers
;       ai        aj        ak        al funct           phase               k        pn
         8         7         9        13     4      180.000000       12.903618         2    ;  uncertainty k = 0.121797
         8         9        13         7     4      180.000000       12.903618         2    ;  uncertainty k = 0.121797
         8        13         7         9     4      180.000000       12.903618         2    ;  uncertainty k = 0.121797
         9         8        10        38     4      180.000000        4.073199         2    ;  uncertainty k = 0.089533
         9        10        38         8     4      180.000000        4.073199         2    ;  uncertainty k = 0.089533
         9        38         8        10     4      180.000000        4.073199         2    ;  uncertainty k = 0.089533
        10         9        11        39     4      180.000000        4.075594         2    ;  uncertainty k = 0.076311
        10        11        39         9     4      180.000000        4.075594         2    ;  uncertainty k = 0.076311
        10        39         9        11     4      180.000000        4.075594         2    ;  uncertainty k = 0.076311
        11        10        12        40     4      180.000000        4.286747         2    ;  uncertainty k = 0.163794
        11        12        40        10     4      180.000000        4.286747         2    ;  uncertainty k = 0.163794
        11        40        10        12     4      180.000000        4.286747         2    ;  uncertainty k = 0.163794
        12        11        13        41     4      180.000000        4.075594         2    ;  uncertainty k = 0.076311
        12        13        41        11     4      180.000000        4.075594         2    ;  uncertainty k = 0.076311
        12        41        11        13     4      180.000000        4.075594         2    ;  uncertainty k = 0.076311
        13         8        12        42     4      180.000000        4.073199         2    ;  uncertainty k = 0.089533
        13        12        42         8     4      180.000000        4.073199         2    ;  uncertainty k = 0.089533
        13        42         8        12     4      180.000000        4.073199         2    ;  uncertainty k = 0.089533
        15        14        16        24     4      180.000000       21.979194         2    ;  uncertainty k = 0.135021
        15        16        24        14     4      180.000000       21.979194         2    ;  uncertainty k = 0.135021
        15        24        14        16     4      180.000000       21.979194         2    ;  uncertainty k = 0.135021
        16        15        17        44     4      180.000000        1.846538         2    ;  uncertainty k = 0.425683
        16        17        44        15     4      180.000000        1.846538         2    ;  uncertainty k = 0.425683
        16        44        15        17     4      180.000000        1.846538         2    ;  uncertainty k = 0.425683
        17        16        18        45     4      180.000000        4.856157         2    ;  uncertainty k = 0.148466
        17        18        45        16     4      180.000000        4.856157         2    ;  uncertainty k = 0.148466
        17        45        16        18     4      180.000000        4.856157         2    ;  uncertainty k = 0.148466
        18        17        19        23     4      180.000000        6.209821         2    ;  uncertainty k = 0.262054
        18        19        23        17     4      180.000000        6.209821         2    ;  uncertainty k = 0.262054
        18        23        17        19     4      180.000000        6.209821         2    ;  uncertainty k = 0.262054
        23        18        24        46     4      180.000000        4.574178         2    ;  uncertainty k = 0.267402
        23        24        46        18     4      180.000000        4.574178         2    ;  uncertainty k = 0.267402
        23        46        18        24     4      180.000000        4.574178         2    ;  uncertainty k = 0.267402
        24        15        23        25     4      180.000000       10.428011         2    ;  uncertainty k = 0.207305
        24        23        25        15     4      180.000000       10.428011         2    ;  uncertainty k = 0.207305
        24        25        15        23     4      180.000000       10.428011         2    ;  uncertainty k = 0.207305

[ pairs ]
;       ai        aj funct
         1         4     1
         1        26     1
         1        31     1
         2         5     1
         2        25     1
         2        32     1
         2        33     1
         3         6     1
         3        24     1
         3        27     1
         3        28     1
         3        34     1
         3        35     1
         3        47     1
         3        48     1
         4         7     1
         4        25     1
         4        29     1
         4        30     1
         4        36     1
         5         8     1
         5        14     1
         5        24     1
         5        26     1
         5        31     1
         5        37     1
         5        47     1
         6         9     1
         6        13     1
         6        15     1
         6        23     1
         6        32     1
         6        33     1
         6        43     1
         7        10     1
         7        12     1
         7        16     1
         7        24     1
         7        26     1
         7        34     1
         7        35     1
         7        38     1
         7        42     1
         7        47     1
         8        11     1
         8        15     1
         8        25     1
         8        36     1
         8        39     1
         8        41     1
         8        43     1
         9        12     1
         9        14     1
         9        37     1
         9        40     1
         9        42     1
        10        13     1
        10        41     1
        11        38     1
        11        42     1
        12        39     1
        13        14     1
        13        37     1
        13        38     1
        13        40     1
        14        17     1
        14        23     1
        14        25     1
        14        36     1
        14        44     1
        15        18     1
        15        26     1
        15        37     1
        15        45     1
        15        46     1
        15        47     1
        16        19     1
        16        23     1
        16        25     1
        16        43     1
        17        20     1
        17        21     1
        17        22     1
        17        24     1
        17        46     1
        18        25     1
        18        44     1
        19        24     1
        19        45     1
        19        46     1
        20        23     1
        21        23     1
        22        23     1
        23        26     1
        23        45     1
        23        47     1
        24        36     1
        24        43     1
        24        44     1
        25        31     1
        25        34     1
        25        35     1
        25        37     1
        25        46     1
        26        29     1
        26        30     1
        26        32     1
        26        33     1
        26        36     1
        27        29     1
        27        30     1
        28        29     1
        28        30     1
        29        31     1
        29        48     1
        30        31     1
        30        48     1
        31        32     1
        31        33     1
        32        34     1
        32        35     1
        33        34     1
        33        35     1
        34        36     1
        35        36     1
        36        37     1
        36        47     1
        37        43     1
        38        39     1
        39        40     1
        40        41     1
        41        42     1
        44        45     1
