; ITP file created by ByteFF-joint-25, 2026-02-17 09:14:05.745673

[ atomtypes ]
;name           bonded.type        at.num        mass        charge   ptype           sigma         epsilon
 c0bf                                   6      0.0000       0.00000       A     3.39771e-01     4.50898e-01    ;  uncertainty sigma = 0.000007, epsilon = 0.000479
 c1bf                                   6      0.0000       0.00000       A     3.39774e-01     4.51167e-01    ;  uncertainty sigma = 0.000015, epsilon = 0.000796
 c2bf                                   6      0.0000       0.00000       A     3.39771e-01     4.50898e-01    ;  uncertainty sigma = 0.000007, epsilon = 0.000479
 c3bf                                   6      0.0000       0.00000       A     3.39771e-01     4.50898e-01    ;  uncertainty sigma = 0.000007, epsilon = 0.000479
 c4bf                                   6      0.0000       0.00000       A     3.31532e-01     4.13402e-01    ;  uncertainty sigma = 0.000010, epsilon = 0.001004
 c5bf                                   6      0.0000       0.00000       A     3.31524e-01     4.13573e-01    ;  uncertainty sigma = 0.000007, epsilon = 0.000695
 c6bf                                   6      0.0000       0.00000       A     3.31521e-01     4.13586e-01    ;  uncertainty sigma = 0.000004, epsilon = 0.000464
 c7bf                                   6      0.0000       0.00000       A     3.31547e-01     4.13294e-01    ;  uncertainty sigma = 0.000014, epsilon = 0.001189
 c8bf                                   6      0.0000       0.00000       A     3.31545e-01     4.13410e-01    ;  uncertainty sigma = 0.000018, epsilon = 0.000636
 c9bf                                   6      0.0000       0.00000       A     3.31545e-01     4.13403e-01    ;  uncertainty sigma = 0.000008, epsilon = 0.000917
 c10bf                                  6      0.0000       0.00000       A     3.39768e-01     4.50236e-01    ;  uncertainty sigma = 0.000016, epsilon = 0.001357
 o11bf                                  8      0.0000       0.00000       A     3.15596e-01     3.04721e-01    ;  uncertainty sigma = 0.000023, epsilon = 0.001821
 c12bf                                  6      0.0000       0.00000       A     3.39760e-01     4.51227e-01    ;  uncertainty sigma = 0.000012, epsilon = 0.000864
 c13bf                                  6      0.0000       0.00000       A     3.39783e-01     4.51074e-01    ;  uncertainty sigma = 0.000011, epsilon = 0.000818
 c14bf                                  6      0.0000       0.00000       A     3.39747e-01     4.50838e-01    ;  uncertainty sigma = 0.000012, epsilon = 0.000751
 c15bf                                  6      0.0000       0.00000       A     3.39751e-01     4.51241e-01    ;  uncertainty sigma = 0.000035, epsilon = 0.000722
 c16bf                                  6      0.0000       0.00000       A     3.39801e-01     4.50713e-01    ;  uncertainty sigma = 0.000017, epsilon = 0.001619
 c17bf                                  6      0.0000       0.00000       A     3.31511e-01     4.13647e-01    ;  uncertainty sigma = 0.000007, epsilon = 0.000209
 c18bf                                  6      0.0000       0.00000       A     3.31519e-01     4.13190e-01    ;  uncertainty sigma = 0.000007, epsilon = 0.001065
 c19bf                                  6      0.0000       0.00000       A     3.31505e-01     4.13907e-01    ;  uncertainty sigma = 0.000005, epsilon = 0.000329
 c20bf                                  6      0.0000       0.00000       A     3.31504e-01     4.12960e-01    ;  uncertainty sigma = 0.000009, epsilon = 0.000649
 s21bf                                 16      0.0000       0.00000       A     3.53224e-01     1.18201e+00    ;  uncertainty sigma = 0.000011, epsilon = 0.000357
 n22bf                                  7      0.0000       0.00000       A     3.27905e-01     6.45891e-01    ;  uncertainty sigma = 0.000025, epsilon = 0.004460
 h23bf                                  1      0.0000       0.00000       A     2.60023e-01     8.66594e-02    ;  uncertainty sigma = 0.000006, epsilon = 0.000286
 h24bf                                  1      0.0000       0.00000       A     2.60023e-01     8.66594e-02    ;  uncertainty sigma = 0.000006, epsilon = 0.000286
 h25bf                                  1      0.0000       0.00000       A     2.60023e-01     8.66594e-02    ;  uncertainty sigma = 0.000006, epsilon = 0.000286
 h26bf                                  1      0.0000       0.00000       A     2.60023e-01     8.66594e-02    ;  uncertainty sigma = 0.000006, epsilon = 0.000286
 h27bf                                  1      0.0000       0.00000       A     2.60023e-01     8.66594e-02    ;  uncertainty sigma = 0.000006, epsilon = 0.000286
 h28bf                                  1      0.0000       0.00000       A     2.60023e-01     8.66594e-02    ;  uncertainty sigma = 0.000006, epsilon = 0.000286
 h29bf                                  1      0.0000       0.00000       A     2.60023e-01     8.66594e-02    ;  uncertainty sigma = 0.000006, epsilon = 0.000286
 h30bf                                  1      0.0000       0.00000       A     2.60023e-01     8.66594e-02    ;  uncertainty sigma = 0.000006, epsilon = 0.000286
 h31bf                                  1      0.0000       0.00000       A     2.60023e-01     8.66594e-02    ;  uncertainty sigma = 0.000006, epsilon = 0.000286
 h32bf                                  1      0.0000       0.00000       A     2.62546e-01     6.71182e-02    ;  uncertainty sigma = 0.000010, epsilon = 0.000474
 h33bf                                  1      0.0000       0.00000       A     2.62578e-01     6.70680e-02    ;  uncertainty sigma = 0.000013, epsilon = 0.000535
 h34bf                                  1      0.0000       0.00000       A     2.62494e-01     6.70936e-02    ;  uncertainty sigma = 0.000026, epsilon = 0.000462
 h35bf                                  1      0.0000       0.00000       A     2.42257e-01     8.77137e-02    ;  uncertainty sigma = 0.000247, epsilon = 0.001732
 h36bf                                  1      0.0000       0.00000       A     2.42227e-01     8.66832e-02    ;  uncertainty sigma = 0.000023, epsilon = 0.000687
 h37bf                                  1      0.0000       0.00000       A     2.42227e-01     8.66832e-02    ;  uncertainty sigma = 0.000023, epsilon = 0.000687
 h38bf                                  1      0.0000       0.00000       A     2.60028e-01     8.66444e-02    ;  uncertainty sigma = 0.000004, epsilon = 0.000701
 h39bf                                  1      0.0000       0.00000       A     2.60028e-01     8.66444e-02    ;  uncertainty sigma = 0.000004, epsilon = 0.000701
 h40bf                                  1      0.0000       0.00000       A     2.60034e-01     8.66404e-02    ;  uncertainty sigma = 0.000009, epsilon = 0.000744
 h41bf                                  1      0.0000       0.00000       A     2.60034e-01     8.66404e-02    ;  uncertainty sigma = 0.000009, epsilon = 0.000744
 h42bf                                  1      0.0000       0.00000       A     2.59958e-01     8.64155e-02    ;  uncertainty sigma = 0.000053, epsilon = 0.001079
 h43bf                                  1      0.0000       0.00000       A     2.42274e-01     8.74725e-02    ;  uncertainty sigma = 0.000073, epsilon = 0.001032
 h44bf                                  1      0.0000       0.00000       A     2.62521e-01     6.73613e-02    ;  uncertainty sigma = 0.000020, epsilon = 0.000831
 h45bf                                  1      0.0000       0.00000       A     2.62579e-01     6.72223e-02    ;  uncertainty sigma = 0.000012, epsilon = 0.000449
 h46bf                                  1      0.0000       0.00000       A     2.53628e-01     6.70385e-02    ;  uncertainty sigma = 0.000018, epsilon = 0.000684
 h47bf                                  1      0.0000       0.00000       A     1.10672e-01     4.07783e-02    ;  uncertainty sigma = 0.000103, epsilon = 0.000716

[ moleculetype ]
;name             nrexcl
 MOL                   3

[ atoms ]
;       nr            type      resi   res      atom      cgnr      charge          mass ; qtot
         1            c0bf         1   UNL        c0         1    -0.08520       12.0110 ; qtot   -0.085
         2            c1bf         1   UNL        c1         2    -0.00014       12.0110 ; qtot   -0.085
         3            c2bf         1   UNL        c2         3    -0.08520       12.0110 ; qtot   -0.171
         4            c3bf         1   UNL        c3         4    -0.08520       12.0110 ; qtot   -0.256
         5            c4bf         1   UNL        c4         5    -0.09788       12.0110 ; qtot   -0.354
         6            c5bf         1   UNL        c5         6    -0.08952       12.0110 ; qtot   -0.443
         7            c6bf         1   UNL        c6         7    -0.18908       12.0110 ; qtot   -0.632
         8            c7bf         1   UNL        c7         8     0.15358       12.0110 ; qtot   -0.479
         9            c8bf         1   UNL        c8         9    -0.14359       12.0110 ; qtot   -0.622
        10            c9bf         1   UNL        c9        10    -0.07740       12.0110 ; qtot   -0.700
        11           c10bf         1   UNL       c10        11     0.20092       12.0110 ; qtot   -0.499
        12           o11bf         1   UNL       o11        12    -0.41412       15.9990 ; qtot   -0.913
        13           c12bf         1   UNL       c12        13     0.13226       12.0110 ; qtot   -0.781
        14           c13bf         1   UNL       c13        14    -0.10917       12.0110 ; qtot   -0.890
        15           c14bf         1   UNL       c14        15    -0.06775       12.0110 ; qtot   -0.957
        16           c15bf         1   UNL       c15        16    -0.09568       12.0110 ; qtot   -1.053
        17           c16bf         1   UNL       c16        17     0.28939       12.0110 ; qtot   -0.764
        18           c17bf         1   UNL       c17        18    -0.07608       12.0110 ; qtot   -0.840
        19           c18bf         1   UNL       c18        19    -0.13737       12.0110 ; qtot   -0.977
        20           c19bf         1   UNL       c19        20    -0.15119       12.0110 ; qtot   -1.128
        21           c20bf         1   UNL       c20        21    -0.09710       12.0110 ; qtot   -1.226
        22           s21bf         1   UNL       s21        22    -0.12464       32.0670 ; qtot   -1.350
        23           n22bf         1   UNL       n22        23    -0.73444       14.0070 ; qtot   -2.085
        24           h23bf         1   UNL       h23        24     0.03604        1.0080 ; qtot   -2.049
        25           h24bf         1   UNL       h24        25     0.03604        1.0080 ; qtot   -2.013
        26           h25bf         1   UNL       h25        26     0.03604        1.0080 ; qtot   -1.976
        27           h26bf         1   UNL       h26        27     0.03604        1.0080 ; qtot   -1.940
        28           h27bf         1   UNL       h27        28     0.03604        1.0080 ; qtot   -1.904
        29           h28bf         1   UNL       h28        29     0.03604        1.0080 ; qtot   -1.868
        30           h29bf         1   UNL       h29        30     0.03604        1.0080 ; qtot   -1.832
        31           h30bf         1   UNL       h30        31     0.03604        1.0080 ; qtot   -1.796
        32           h31bf         1   UNL       h31        32     0.03604        1.0080 ; qtot   -1.760
        33           h32bf         1   UNL       h32        33     0.13382        1.0080 ; qtot   -1.626
        34           h33bf         1   UNL       h33        34     0.13027        1.0080 ; qtot   -1.496
        35           h34bf         1   UNL       h34        35     0.13358        1.0080 ; qtot   -1.363
        36           h35bf         1   UNL       h35        36     0.05510        1.0080 ; qtot   -1.307
        37           h36bf         1   UNL       h36        37     0.04503        1.0080 ; qtot   -1.262
        38           h37bf         1   UNL       h37        38     0.04503        1.0080 ; qtot   -1.217
        39           h38bf         1   UNL       h38        39     0.04999        1.0080 ; qtot   -1.167
        40           h39bf         1   UNL       h39        40     0.04999        1.0080 ; qtot   -1.117
        41           h40bf         1   UNL       h40        41     0.04974        1.0080 ; qtot   -1.068
        42           h41bf         1   UNL       h41        42     0.04974        1.0080 ; qtot   -1.018
        43           h42bf         1   UNL       h42        43     0.07003        1.0080 ; qtot   -0.948
        44           h43bf         1   UNL       h43        44     0.05892        1.0080 ; qtot   -0.889
        45           h44bf         1   UNL       h44        45     0.15630        1.0080 ; qtot   -0.733
        46           h45bf         1   UNL       h45        46     0.15387        1.0080 ; qtot   -0.579
        47           h46bf         1   UNL       h46        47     0.16945        1.0080 ; qtot   -0.409
        48           h47bf         1   UNL       h47        48     0.40938        1.0080 ; qtot   -0.000

[ bonds ]
;       ai        aj funct               r               k
         1         2     1        0.153655   198668.802539    ;  uncertainty r = 0.000045, k = 2.713816
         1        24     1        0.109659   308676.642969    ;  uncertainty r = 0.000022, k = 1.372194
         1        25     1        0.109659   308676.642969    ;  uncertainty r = 0.000022, k = 1.372181
         1        26     1        0.109659   308676.642969    ;  uncertainty r = 0.000022, k = 1.372181
         2         3     1        0.153655   198668.802539    ;  uncertainty r = 0.000045, k = 2.713816
         2         4     1        0.153655   198668.802539    ;  uncertainty r = 0.000045, k = 2.713816
         2         5     1        0.151796   210318.793530    ;  uncertainty r = 0.000061, k = 4.451951
         3        27     1        0.109659   308676.642969    ;  uncertainty r = 0.000022, k = 1.372181
         3        28     1        0.109659   308676.642969    ;  uncertainty r = 0.000022, k = 1.372181
         3        29     1        0.109659   308676.642969    ;  uncertainty r = 0.000022, k = 1.372181
         4        30     1        0.109659   308676.642969    ;  uncertainty r = 0.000022, k = 1.372181
         4        31     1        0.109659   308676.642969    ;  uncertainty r = 0.000022, k = 1.372181
         4        32     1        0.109659   308676.642969    ;  uncertainty r = 0.000022, k = 1.372181
         5         6     1        0.139993   342791.437549    ;  uncertainty r = 0.000055, k = 3.149911
         5        10     1        0.139700   338297.595801    ;  uncertainty r = 0.000123, k = 7.301107
         6         7     1        0.139231   369247.448730    ;  uncertainty r = 0.000086, k = 6.036942
         6        33     1        0.108722   334842.297217    ;  uncertainty r = 0.000029, k = 1.142352
         7         8     1        0.140549   370290.741797    ;  uncertainty r = 0.000114, k = 7.494330
         7        34     1        0.108971   336337.673730    ;  uncertainty r = 0.000020, k = 1.947178
         8         9     1        0.140572   348559.223535    ;  uncertainty r = 0.000135, k = 26.324667
         8        23     1        0.140010   343773.901221    ;  uncertainty r = 0.000121, k = 9.655968
         9        10     1        0.139506   351460.545605    ;  uncertainty r = 0.000076, k = 4.528009
         9        11     1        0.151132   219519.826807    ;  uncertainty r = 0.000133, k = 8.491658
        10        35     1        0.108815   334998.354492    ;  uncertainty r = 0.000071, k = 3.653158
        11        12     1        0.143343   228670.309375    ;  uncertainty r = 0.000152, k = 7.092680
        11        16     1        0.153624   196480.719165    ;  uncertainty r = 0.000086, k = 13.690034
        11        36     1        0.110147   303476.010645    ;  uncertainty r = 0.000108, k = 3.179118
        12        13     1        0.143168   244828.940869    ;  uncertainty r = 0.000068, k = 3.576382
        13        14     1        0.153172   212727.632446    ;  uncertainty r = 0.000055, k = 6.224625
        13        37     1        0.109789   309021.189648    ;  uncertainty r = 0.000034, k = 2.302443
        13        38     1        0.109789   309021.189648    ;  uncertainty r = 0.000034, k = 2.302443
        14        15     1        0.153536   217120.666455    ;  uncertainty r = 0.000054, k = 3.370370
        14        39     1        0.109704   309214.607715    ;  uncertainty r = 0.000022, k = 1.317596
        14        40     1        0.109704   309214.607715    ;  uncertainty r = 0.000022, k = 1.317596
        15        16     1        0.153414   203593.442554    ;  uncertainty r = 0.000118, k = 6.299896
        15        41     1        0.109599   307529.158496    ;  uncertainty r = 0.000015, k = 0.891964
        15        42     1        0.109599   307529.158496    ;  uncertainty r = 0.000015, k = 0.891964
        16        17     1        0.153770   193680.217603    ;  uncertainty r = 0.000059, k = 8.896218
        16        43     1        0.109708   307573.567529    ;  uncertainty r = 0.000058, k = 4.278528
        17        18     1        0.150591   220948.040723    ;  uncertainty r = 0.000080, k = 8.948741
        17        23     1        0.146348   250554.258643    ;  uncertainty r = 0.000151, k = 28.078105
        17        44     1        0.110002   298550.668359    ;  uncertainty r = 0.000082, k = 4.101206
        18        19     1        0.137042   410074.008545    ;  uncertainty r = 0.000075, k = 2.699622
        18        22     1        0.174377   170372.727710    ;  uncertainty r = 0.000088, k = 4.371035
        19        20     1        0.143186   263746.499512    ;  uncertainty r = 0.000041, k = 4.743260
        19        45     1        0.108627   333806.537598    ;  uncertainty r = 0.000027, k = 1.839374
        20        21     1        0.136924   429026.501953    ;  uncertainty r = 0.000020, k = 1.141782
        20        46     1        0.108621   333832.789746    ;  uncertainty r = 0.000028, k = 1.698817
        21        22     1        0.173301   181865.793164    ;  uncertainty r = 0.000066, k = 1.952026
        21        47     1        0.108457   341965.592969    ;  uncertainty r = 0.000021, k = 1.529333
        23        48     1        0.101449   412425.618799    ;  uncertainty r = 0.000043, k = 2.715758

[ angles ]
;       ai        aj        ak funct           theta             cth
         1         2         3     1      108.458336      575.992949    ;  uncertainty theta = 0.002954, k = 0.058059
         1         2         4     1      108.458336      575.992949    ;  uncertainty theta = 0.002954, k = 0.058059
         1         2         5     1      108.206223      553.041217    ;  uncertainty theta = 0.002231, k = 0.088894
         2         1        24     1      107.702896      383.895439    ;  uncertainty theta = 0.000831, k = 0.040751
         2         1        25     1      107.702896      383.895439    ;  uncertainty theta = 0.000831, k = 0.040751
         2         1        26     1      107.702896      383.895439    ;  uncertainty theta = 0.000831, k = 0.040751
         2         3        27     1      107.702896      383.895439    ;  uncertainty theta = 0.000831, k = 0.040751
         2         3        28     1      107.702896      383.895439    ;  uncertainty theta = 0.000831, k = 0.040751
         2         3        29     1      107.702896      383.895439    ;  uncertainty theta = 0.000831, k = 0.040751
         2         4        30     1      107.702896      383.895439    ;  uncertainty theta = 0.000831, k = 0.040751
         2         4        31     1      107.702896      383.895439    ;  uncertainty theta = 0.000831, k = 0.040751
         2         4        32     1      107.702896      383.895439    ;  uncertainty theta = 0.000831, k = 0.040751
         2         5         6     1      120.109047      398.552559    ;  uncertainty theta = 0.004264, k = 0.135852
         2         5        10     1      119.806641      384.076369    ;  uncertainty theta = 0.004197, k = 0.110948
         3         2         4     1      108.458336      575.992949    ;  uncertainty theta = 0.002954, k = 0.058059
         3         2         5     1      108.206223      553.041217    ;  uncertainty theta = 0.002231, k = 0.088894
         4         2         5     1      108.206223      553.041217    ;  uncertainty theta = 0.002231, k = 0.088894
         5         6         7     1      122.384155      522.517540    ;  uncertainty theta = 0.002685, k = 0.108360
         5         6        33     1      118.233627      267.978062    ;  uncertainty theta = 0.002193, k = 0.135442
         5        10         9     1      124.384354      517.573524    ;  uncertainty theta = 0.003376, k = 0.178809
         5        10        35     1      117.703430      270.875982    ;  uncertainty theta = 0.002530, k = 0.122471
         6         5        10     1      119.761192      460.192150    ;  uncertainty theta = 0.003180, k = 0.102434
         6         7         8     1      120.522171      517.708264    ;  uncertainty theta = 0.002594, k = 0.091069
         6         7        34     1      121.044777      286.771460    ;  uncertainty theta = 0.002320, k = 0.093268
         7         6        33     1      119.123611      294.047589    ;  uncertainty theta = 0.002566, k = 0.039043
         7         8         9     1      118.587730      384.023922    ;  uncertainty theta = 0.004492, k = 0.149453
         7         8        23     1      123.134399      578.725548    ;  uncertainty theta = 0.003439, k = 0.115516
         8         7        34     1      119.046043      279.637413    ;  uncertainty theta = 0.004498, k = 0.174807
         8         9        10     1      120.505493      451.596901    ;  uncertainty theta = 0.006463, k = 0.103626
         8         9        11     1      120.396255      352.055037    ;  uncertainty theta = 0.009504, k = 0.458520
         8        23        17     1      114.232384      398.147891    ;  uncertainty theta = 0.004812, k = 0.167805
         8        23        48     1      111.130920      386.809638    ;  uncertainty theta = 0.005667, k = 0.186797
         9         8        23     1      122.254112      503.825525    ;  uncertainty theta = 0.009969, k = 0.235156
         9        10        35     1      117.400352      276.734226    ;  uncertainty theta = 0.004636, k = 0.134329
         9        11        12     1      109.357323      666.364438    ;  uncertainty theta = 0.004559, k = 0.339003
         9        11        16     1      111.466080      551.938716    ;  uncertainty theta = 0.004842, k = 0.173727
         9        11        36     1      108.389328      392.542176    ;  uncertainty theta = 0.005065, k = 0.097089
        10         9        11     1      119.288002      396.916332    ;  uncertainty theta = 0.004149, k = 0.086665
        11        12        13     1      110.400124      531.965505    ;  uncertainty theta = 0.004549, k = 0.180609
        11        16        15     1      110.070175      578.819524    ;  uncertainty theta = 0.003349, k = 0.130756
        11        16        17     1      109.718079      552.665311    ;  uncertainty theta = 0.004340, k = 0.208096
        11        16        43     1      106.563698      399.668339    ;  uncertainty theta = 0.003211, k = 0.086932
        12        11        16     1      111.009888      672.998341    ;  uncertainty theta = 0.004232, k = 0.046903
        12        11        36     1      106.437134      440.964175    ;  uncertainty theta = 0.004328, k = 0.147171
        12        13        14     1      110.960571      700.234562    ;  uncertainty theta = 0.002687, k = 0.154210
        12        13        37     1      107.002396      457.038668    ;  uncertainty theta = 0.002578, k = 0.134213
        12        13        38     1      107.002396      457.038668    ;  uncertainty theta = 0.002578, k = 0.134213
        13        14        15     1      108.914284      622.062533    ;  uncertainty theta = 0.003067, k = 0.049226
        13        14        39     1      108.345497      394.463812    ;  uncertainty theta = 0.002157, k = 0.073389
        13        14        40     1      108.345497      394.463812    ;  uncertainty theta = 0.002157, k = 0.073389
        14        13        37     1      110.167160      413.788062    ;  uncertainty theta = 0.002756, k = 0.093369
        14        13        38     1      110.167160      413.788062    ;  uncertainty theta = 0.002756, k = 0.093369
        14        15        16     1      109.450760      586.841943    ;  uncertainty theta = 0.002536, k = 0.138802
        14        15        41     1      108.972733      411.204888    ;  uncertainty theta = 0.002057, k = 0.093761
        14        15        42     1      108.972717      411.204951    ;  uncertainty theta = 0.002057, k = 0.093761
        15        14        39     1      109.068893      397.235610    ;  uncertainty theta = 0.001333, k = 0.047754
        15        14        40     1      109.068893      397.235610    ;  uncertainty theta = 0.001333, k = 0.047754
        15        16        17     1      110.450027      548.988542    ;  uncertainty theta = 0.002555, k = 0.178992
        15        16        43     1      108.158035      401.378304    ;  uncertainty theta = 0.004078, k = 0.093643
        16        11        36     1      107.533913      391.338485    ;  uncertainty theta = 0.004731, k = 0.133059
        16        15        41     1      108.015335      387.966756    ;  uncertainty theta = 0.001169, k = 0.067365
        16        15        42     1      108.015335      387.966756    ;  uncertainty theta = 0.001169, k = 0.067365
        16        17        18     1      111.445068      540.697089    ;  uncertainty theta = 0.003790, k = 0.286946
        16        17        23     1      108.672989      698.606124    ;  uncertainty theta = 0.004131, k = 0.111311
        16        17        44     1      107.197304      384.980032    ;  uncertainty theta = 0.002249, k = 0.112415
        17        16        43     1      105.787888      389.206615    ;  uncertainty theta = 0.001218, k = 0.081068
        17        18        19     1      126.802231      365.797002    ;  uncertainty theta = 0.004671, k = 0.078207
        17        18        22     1      117.401207      340.944575    ;  uncertainty theta = 0.007242, k = 0.267424
        17        23        48     1      109.980331      355.306900    ;  uncertainty theta = 0.004782, k = 0.101496
        18        17        23     1      110.832314      656.898023    ;  uncertainty theta = 0.002391, k = 0.193342
        18        17        44     1      106.056137      414.260466    ;  uncertainty theta = 0.004415, k = 0.056115
        18        19        20     1      113.402100      642.872277    ;  uncertainty theta = 0.004030, k = 0.099241
        18        19        45     1      120.747047      243.909943    ;  uncertainty theta = 0.003544, k = 0.059891
        18        22        21     1       92.010010     1192.047367    ;  uncertainty theta = 0.002268, k = 0.118436
        19        18        22     1      111.968239      468.255333    ;  uncertainty theta = 0.003651, k = 0.069288
        19        20        21     1      112.740341      627.154250    ;  uncertainty theta = 0.003296, k = 0.051203
        19        20        46     1      122.279274      251.898813    ;  uncertainty theta = 0.002243, k = 0.048132
        20        19        45     1      122.096756      255.904133    ;  uncertainty theta = 0.003097, k = 0.067438
        20        21        22     1      110.981590      521.670889    ;  uncertainty theta = 0.003093, k = 0.135296
        20        21        47     1      126.028236      248.952772    ;  uncertainty theta = 0.001233, k = 0.042407
        21        20        46     1      121.862381      256.651349    ;  uncertainty theta = 0.003042, k = 0.050558
        22        21        47     1      116.607605      236.076531    ;  uncertainty theta = 0.002063, k = 0.079188
        23        17        44     1      107.874290      453.313570    ;  uncertainty theta = 0.004710, k = 0.130071
        24         1        25     1      105.347046      318.192287    ;  uncertainty theta = 0.000899, k = 0.012007
        24         1        26     1      105.347046      318.192287    ;  uncertainty theta = 0.000899, k = 0.012007
        25         1        26     1      105.347046      318.192287    ;  uncertainty theta = 0.000899, k = 0.012007
        27         3        28     1      105.347046      318.192287    ;  uncertainty theta = 0.000899, k = 0.012007
        27         3        29     1      105.347046      318.192287    ;  uncertainty theta = 0.000899, k = 0.012007
        28         3        29     1      105.347046      318.192287    ;  uncertainty theta = 0.000899, k = 0.012007
        30         4        31     1      105.347046      318.192287    ;  uncertainty theta = 0.000899, k = 0.012007
        30         4        32     1      105.347046      318.192287    ;  uncertainty theta = 0.000899, k = 0.012007
        31         4        32     1      105.347046      318.192287    ;  uncertainty theta = 0.000899, k = 0.012007
        37        13        38     1      106.657860      326.870818    ;  uncertainty theta = 0.001578, k = 0.083868
        39        14        40     1      104.884750      311.601574    ;  uncertainty theta = 0.001172, k = 0.053340
        41        15        42     1      104.428123      316.030507    ;  uncertainty theta = 0.002135, k = 0.028782

[ dihedrals ] ; propers for gromacs 4.5 or higher, use funct 9
;       ai        aj        ak        al funct           phase               k        pn
         1         2         3        27     9        0.000000       -1.188573         1    ;  uncertainty k = 0.286327
         1         2         3        27     9      180.000000       -0.229296         2    ;  uncertainty k = 0.093120
         1         2         3        27     9        0.000000        0.805967         3    ;  uncertainty k = 0.037188
         1         2         3        27     9      180.000000       -0.066025         4    ;  uncertainty k = 0.043591
         1         2         3        28     9        0.000000       -1.188573         1    ;  uncertainty k = 0.286327
         1         2         3        28     9      180.000000       -0.229296         2    ;  uncertainty k = 0.093120
         1         2         3        28     9        0.000000        0.805967         3    ;  uncertainty k = 0.037188
         1         2         3        28     9      180.000000       -0.066025         4    ;  uncertainty k = 0.043591
         1         2         3        29     9        0.000000       -1.188573         1    ;  uncertainty k = 0.286327
         1         2         3        29     9      180.000000       -0.229296         2    ;  uncertainty k = 0.093120
         1         2         3        29     9        0.000000        0.805967         3    ;  uncertainty k = 0.037188
         1         2         3        29     9      180.000000       -0.066025         4    ;  uncertainty k = 0.043591
         1         2         4        30     9        0.000000       -1.188573         1    ;  uncertainty k = 0.286327
         1         2         4        30     9      180.000000       -0.229296         2    ;  uncertainty k = 0.093120
         1         2         4        30     9        0.000000        0.805967         3    ;  uncertainty k = 0.037188
         1         2         4        30     9      180.000000       -0.066025         4    ;  uncertainty k = 0.043591
         1         2         4        31     9        0.000000       -1.188573         1    ;  uncertainty k = 0.286327
         1         2         4        31     9      180.000000       -0.229296         2    ;  uncertainty k = 0.093120
         1         2         4        31     9        0.000000        0.805967         3    ;  uncertainty k = 0.037188
         1         2         4        31     9      180.000000       -0.066025         4    ;  uncertainty k = 0.043591
         1         2         4        32     9        0.000000       -1.188573         1    ;  uncertainty k = 0.286327
         1         2         4        32     9      180.000000       -0.229296         2    ;  uncertainty k = 0.093120
         1         2         4        32     9        0.000000        0.805967         3    ;  uncertainty k = 0.037188
         1         2         4        32     9      180.000000       -0.066025         4    ;  uncertainty k = 0.043591
         1         2         5         6     9        0.000000       -0.257729         1    ;  uncertainty k = 0.371272
         1         2         5         6     9      180.000000        2.542545         2    ;  uncertainty k = 0.166545
         1         2         5         6     9        0.000000        0.361656         3    ;  uncertainty k = 0.070149
         1         2         5         6     9      180.000000        0.359540         4    ;  uncertainty k = 0.061766
         1         2         5        10     9        0.000000       -0.123494         1    ;  uncertainty k = 0.475832
         1         2         5        10     9      180.000000        2.583715         2    ;  uncertainty k = 0.233642
         1         2         5        10     9        0.000000        0.303046         3    ;  uncertainty k = 0.103944
         1         2         5        10     9      180.000000        0.385902         4    ;  uncertainty k = 0.055046
         2         5         6         7     9        0.000000        0.169611         1    ;  uncertainty k = 0.238215
         2         5         6         7     9      180.000000        8.090942         2    ;  uncertainty k = 0.337293
         2         5         6         7     9        0.000000        1.352291         3    ;  uncertainty k = 0.274746
         2         5         6         7     9      180.000000        1.836903         4    ;  uncertainty k = 0.171365
         2         5         6        33     9        0.000000       -0.322151         1    ;  uncertainty k = 0.625487
         2         5         6        33     9      180.000000        7.620869         2    ;  uncertainty k = 0.555706
         2         5         6        33     9        0.000000        0.560175         3    ;  uncertainty k = 0.260777
         2         5         6        33     9      180.000000        0.966847         4    ;  uncertainty k = 0.215082
         2         5        10         9     9        0.000000        0.053020         1    ;  uncertainty k = 0.151026
         2         5        10         9     9      180.000000        8.800650         2    ;  uncertainty k = 0.448315
         2         5        10         9     9        0.000000        1.287065         3    ;  uncertainty k = 0.240187
         2         5        10         9     9      180.000000        1.688444         4    ;  uncertainty k = 0.136397
         2         5        10        35     9        0.000000       -0.224769         1    ;  uncertainty k = 0.659056
         2         5        10        35     9      180.000000        7.875344         2    ;  uncertainty k = 0.558845
         2         5        10        35     9        0.000000        0.633676         3    ;  uncertainty k = 0.256250
         2         5        10        35     9      180.000000        1.051674         4    ;  uncertainty k = 0.159944
         3         2         1        24     9        0.000000       -1.188573         1    ;  uncertainty k = 0.286329
         3         2         1        24     9      180.000000       -0.229296         2    ;  uncertainty k = 0.093121
         3         2         1        24     9        0.000000        0.805968         3    ;  uncertainty k = 0.037187
         3         2         1        24     9      180.000000       -0.066025         4    ;  uncertainty k = 0.043591
         3         2         1        25     9        0.000000       -1.188573         1    ;  uncertainty k = 0.286327
         3         2         1        25     9      180.000000       -0.229296         2    ;  uncertainty k = 0.093120
         3         2         1        25     9        0.000000        0.805967         3    ;  uncertainty k = 0.037188
         3         2         1        25     9      180.000000       -0.066025         4    ;  uncertainty k = 0.043591
         3         2         1        26     9        0.000000       -1.188573         1    ;  uncertainty k = 0.286327
         3         2         1        26     9      180.000000       -0.229296         2    ;  uncertainty k = 0.093120
         3         2         1        26     9        0.000000        0.805967         3    ;  uncertainty k = 0.037188
         3         2         1        26     9      180.000000       -0.066025         4    ;  uncertainty k = 0.043591
         3         2         4        30     9        0.000000       -1.188573         1    ;  uncertainty k = 0.286327
         3         2         4        30     9      180.000000       -0.229296         2    ;  uncertainty k = 0.093120
         3         2         4        30     9        0.000000        0.805967         3    ;  uncertainty k = 0.037188
         3         2         4        30     9      180.000000       -0.066025         4    ;  uncertainty k = 0.043591
         3         2         4        31     9        0.000000       -1.188573         1    ;  uncertainty k = 0.286327
         3         2         4        31     9      180.000000       -0.229296         2    ;  uncertainty k = 0.093120
         3         2         4        31     9        0.000000        0.805967         3    ;  uncertainty k = 0.037188
         3         2         4        31     9      180.000000       -0.066025         4    ;  uncertainty k = 0.043591
         3         2         4        32     9        0.000000       -1.188573         1    ;  uncertainty k = 0.286327
         3         2         4        32     9      180.000000       -0.229296         2    ;  uncertainty k = 0.093120
         3         2         4        32     9        0.000000        0.805967         3    ;  uncertainty k = 0.037188
         3         2         4        32     9      180.000000       -0.066025         4    ;  uncertainty k = 0.043591
         3         2         5         6     9        0.000000       -0.257729         1    ;  uncertainty k = 0.371272
         3         2         5         6     9      180.000000        2.542545         2    ;  uncertainty k = 0.166545
         3         2         5         6     9        0.000000        0.361656         3    ;  uncertainty k = 0.070149
         3         2         5         6     9      180.000000        0.359540         4    ;  uncertainty k = 0.061766
         3         2         5        10     9        0.000000       -0.123494         1    ;  uncertainty k = 0.475832
         3         2         5        10     9      180.000000        2.583715         2    ;  uncertainty k = 0.233642
         3         2         5        10     9        0.000000        0.303046         3    ;  uncertainty k = 0.103944
         3         2         5        10     9      180.000000        0.385902         4    ;  uncertainty k = 0.055046
         4         2         1        24     9        0.000000       -1.188573         1    ;  uncertainty k = 0.286329
         4         2         1        24     9      180.000000       -0.229296         2    ;  uncertainty k = 0.093121
         4         2         1        24     9        0.000000        0.805968         3    ;  uncertainty k = 0.037187
         4         2         1        24     9      180.000000       -0.066025         4    ;  uncertainty k = 0.043591
         4         2         1        25     9        0.000000       -1.188573         1    ;  uncertainty k = 0.286327
         4         2         1        25     9      180.000000       -0.229296         2    ;  uncertainty k = 0.093120
         4         2         1        25     9        0.000000        0.805967         3    ;  uncertainty k = 0.037188
         4         2         1        25     9      180.000000       -0.066025         4    ;  uncertainty k = 0.043591
         4         2         1        26     9        0.000000       -1.188573         1    ;  uncertainty k = 0.286327
         4         2         1        26     9      180.000000       -0.229296         2    ;  uncertainty k = 0.093120
         4         2         1        26     9        0.000000        0.805967         3    ;  uncertainty k = 0.037188
         4         2         1        26     9      180.000000       -0.066025         4    ;  uncertainty k = 0.043591
         4         2         3        27     9        0.000000       -1.188573         1    ;  uncertainty k = 0.286327
         4         2         3        27     9      180.000000       -0.229296         2    ;  uncertainty k = 0.093120
         4         2         3        27     9        0.000000        0.805967         3    ;  uncertainty k = 0.037188
         4         2         3        27     9      180.000000       -0.066025         4    ;  uncertainty k = 0.043591
         4         2         3        28     9        0.000000       -1.188573         1    ;  uncertainty k = 0.286327
         4         2         3        28     9      180.000000       -0.229296         2    ;  uncertainty k = 0.093120
         4         2         3        28     9        0.000000        0.805967         3    ;  uncertainty k = 0.037188
         4         2         3        28     9      180.000000       -0.066025         4    ;  uncertainty k = 0.043591
         4         2         3        29     9        0.000000       -1.188573         1    ;  uncertainty k = 0.286327
         4         2         3        29     9      180.000000       -0.229296         2    ;  uncertainty k = 0.093120
         4         2         3        29     9        0.000000        0.805967         3    ;  uncertainty k = 0.037188
         4         2         3        29     9      180.000000       -0.066025         4    ;  uncertainty k = 0.043591
         4         2         5         6     9        0.000000       -0.257729         1    ;  uncertainty k = 0.371272
         4         2         5         6     9      180.000000        2.542545         2    ;  uncertainty k = 0.166545
         4         2         5         6     9        0.000000        0.361656         3    ;  uncertainty k = 0.070149
         4         2         5         6     9      180.000000        0.359540         4    ;  uncertainty k = 0.061766
         4         2         5        10     9        0.000000       -0.123494         1    ;  uncertainty k = 0.475832
         4         2         5        10     9      180.000000        2.583715         2    ;  uncertainty k = 0.233642
         4         2         5        10     9        0.000000        0.303046         3    ;  uncertainty k = 0.103944
         4         2         5        10     9      180.000000        0.385902         4    ;  uncertainty k = 0.055046
         5         2         1        24     9        0.000000        0.794443         1    ;  uncertainty k = 0.477537
         5         2         1        24     9      180.000000       -0.515178         2    ;  uncertainty k = 0.038671
         5         2         1        24     9        0.000000        0.711171         3    ;  uncertainty k = 0.051878
         5         2         1        24     9      180.000000        0.033781         4    ;  uncertainty k = 0.064289
         5         2         1        25     9        0.000000        0.794441         1    ;  uncertainty k = 0.477538
         5         2         1        25     9      180.000000       -0.515178         2    ;  uncertainty k = 0.038670
         5         2         1        25     9        0.000000        0.711171         3    ;  uncertainty k = 0.051879
         5         2         1        25     9      180.000000        0.033782         4    ;  uncertainty k = 0.064289
         5         2         1        26     9        0.000000        0.794441         1    ;  uncertainty k = 0.477538
         5         2         1        26     9      180.000000       -0.515178         2    ;  uncertainty k = 0.038670
         5         2         1        26     9        0.000000        0.711171         3    ;  uncertainty k = 0.051879
         5         2         1        26     9      180.000000        0.033782         4    ;  uncertainty k = 0.064289
         5         2         3        27     9        0.000000        0.794441         1    ;  uncertainty k = 0.477538
         5         2         3        27     9      180.000000       -0.515178         2    ;  uncertainty k = 0.038670
         5         2         3        27     9        0.000000        0.711171         3    ;  uncertainty k = 0.051879
         5         2         3        27     9      180.000000        0.033782         4    ;  uncertainty k = 0.064289
         5         2         3        28     9        0.000000        0.794441         1    ;  uncertainty k = 0.477538
         5         2         3        28     9      180.000000       -0.515178         2    ;  uncertainty k = 0.038670
         5         2         3        28     9        0.000000        0.711171         3    ;  uncertainty k = 0.051879
         5         2         3        28     9      180.000000        0.033782         4    ;  uncertainty k = 0.064289
         5         2         3        29     9        0.000000        0.794441         1    ;  uncertainty k = 0.477538
         5         2         3        29     9      180.000000       -0.515178         2    ;  uncertainty k = 0.038670
         5         2         3        29     9        0.000000        0.711171         3    ;  uncertainty k = 0.051879
         5         2         3        29     9      180.000000        0.033782         4    ;  uncertainty k = 0.064289
         5         2         4        30     9        0.000000        0.794441         1    ;  uncertainty k = 0.477538
         5         2         4        30     9      180.000000       -0.515178         2    ;  uncertainty k = 0.038670
         5         2         4        30     9        0.000000        0.711171         3    ;  uncertainty k = 0.051879
         5         2         4        30     9      180.000000        0.033782         4    ;  uncertainty k = 0.064289
         5         2         4        31     9        0.000000        0.794441         1    ;  uncertainty k = 0.477538
         5         2         4        31     9      180.000000       -0.515178         2    ;  uncertainty k = 0.038670
         5         2         4        31     9        0.000000        0.711171         3    ;  uncertainty k = 0.051879
         5         2         4        31     9      180.000000        0.033782         4    ;  uncertainty k = 0.064289
         5         2         4        32     9        0.000000        0.794441         1    ;  uncertainty k = 0.477538
         5         2         4        32     9      180.000000       -0.515178         2    ;  uncertainty k = 0.038670
         5         2         4        32     9        0.000000        0.711171         3    ;  uncertainty k = 0.051879
         5         2         4        32     9      180.000000        0.033782         4    ;  uncertainty k = 0.064289
         5         6         7         8     9        0.000000       -0.152333         1    ;  uncertainty k = 0.142634
         5         6         7         8     9      180.000000       13.418674         2    ;  uncertainty k = 0.319317
         5         6         7         8     9        0.000000       -0.587772         3    ;  uncertainty k = 0.546885
         5         6         7         8     9      180.000000        0.834283         4    ;  uncertainty k = 0.308763
         5         6         7        34     9        0.000000        0.062587         1    ;  uncertainty k = 0.250392
         5         6         7        34     9      180.000000        7.894405         2    ;  uncertainty k = 0.350795
         5         6         7        34     9        0.000000        1.434093         3    ;  uncertainty k = 0.284072
         5         6         7        34     9      180.000000        1.905596         4    ;  uncertainty k = 0.256226
         5        10         9         8     9        0.000000       -0.113742         1    ;  uncertainty k = 0.286130
         5        10         9         8     9      180.000000       11.755485         2    ;  uncertainty k = 0.401213
         5        10         9         8     9        0.000000       -0.305304         3    ;  uncertainty k = 0.505681
         5        10         9         8     9      180.000000        0.879011         4    ;  uncertainty k = 0.430129
         5        10         9        11     9        0.000000        0.005940         1    ;  uncertainty k = 0.448564
         5        10         9        11     9      180.000000        9.259758         2    ;  uncertainty k = 0.328263
         5        10         9        11     9        0.000000        1.311201         3    ;  uncertainty k = 0.204590
         5        10         9        11     9      180.000000        1.903350         4    ;  uncertainty k = 0.368345
         6         5        10         9     9        0.000000        0.061932         1    ;  uncertainty k = 0.266372
         6         5        10         9     9      180.000000       10.762086         2    ;  uncertainty k = 0.434644
         6         5        10         9     9        0.000000       -0.023753         3    ;  uncertainty k = 0.550833
         6         5        10         9     9      180.000000        1.079298         4    ;  uncertainty k = 0.489846
         6         5        10        35     9        0.000000        0.104356         1    ;  uncertainty k = 0.175314
         6         5        10        35     9      180.000000        7.746722         2    ;  uncertainty k = 0.371621
         6         5        10        35     9        0.000000        1.470945         3    ;  uncertainty k = 0.342446
         6         5        10        35     9      180.000000        1.696370         4    ;  uncertainty k = 0.172368
         6         7         8         9     9        0.000000        0.151849         1    ;  uncertainty k = 0.194994
         6         7         8         9     9      180.000000        7.858565         2    ;  uncertainty k = 0.510262
         6         7         8         9     9        0.000000        0.259365         3    ;  uncertainty k = 0.564861
         6         7         8         9     9      180.000000        1.350718         4    ;  uncertainty k = 0.180961
         6         7         8        23     9        0.000000        0.228912         1    ;  uncertainty k = 0.301037
         6         7         8        23     9      180.000000       10.496955         2    ;  uncertainty k = 0.495968
         6         7         8        23     9        0.000000        1.243718         3    ;  uncertainty k = 0.241593
         6         7         8        23     9      180.000000        1.646105         4    ;  uncertainty k = 0.224841
         7         6         5        10     9        0.000000       -0.190874         1    ;  uncertainty k = 0.060121
         7         6         5        10     9      180.000000       11.166509         2    ;  uncertainty k = 0.403867
         7         6         5        10     9        0.000000       -0.348354         3    ;  uncertainty k = 0.213135
         7         6         5        10     9      180.000000        0.958016         4    ;  uncertainty k = 0.254499
         7         8         9        10     9        0.000000        0.258294         1    ;  uncertainty k = 0.119552
         7         8         9        10     9      180.000000        6.240287         2    ;  uncertainty k = 0.527784
         7         8         9        10     9        0.000000        0.299181         3    ;  uncertainty k = 0.452352
         7         8         9        10     9      180.000000        1.318289         4    ;  uncertainty k = 0.222485
         7         8         9        11     9        0.000000        0.541077         1    ;  uncertainty k = 0.512021
         7         8         9        11     9      180.000000        5.626868         2    ;  uncertainty k = 0.515796
         7         8         9        11     9        0.000000        1.276838         3    ;  uncertainty k = 0.231778
         7         8         9        11     9      180.000000        1.594992         4    ;  uncertainty k = 0.293475
         7         8        23        17     9        0.000000        0.414760         1    ;  uncertainty k = 0.935615
         7         8        23        17     9      180.000000        3.670716         2    ;  uncertainty k = 1.048657
         7         8        23        17     9        0.000000        0.410927         3    ;  uncertainty k = 0.497922
         7         8        23        17     9      180.000000        0.398882         4    ;  uncertainty k = 0.256179
         7         8        23        48     9        0.000000        1.777023         1    ;  uncertainty k = 0.766899
         7         8        23        48     9      180.000000        4.543526         2    ;  uncertainty k = 0.391972
         7         8        23        48     9        0.000000        0.701768         3    ;  uncertainty k = 0.304140
         7         8        23        48     9      180.000000        0.014137         4    ;  uncertainty k = 0.168950
         8         7         6        33     9        0.000000        0.284562         1    ;  uncertainty k = 0.487327
         8         7         6        33     9      180.000000        9.203360         2    ;  uncertainty k = 0.521721
         8         7         6        33     9        0.000000        1.250757         3    ;  uncertainty k = 0.290982
         8         7         6        33     9      180.000000        1.573949         4    ;  uncertainty k = 0.315318
         8         9        10        35     9        0.000000        0.169078         1    ;  uncertainty k = 0.395742
         8         9        10        35     9      180.000000        8.361331         2    ;  uncertainty k = 0.474168
         8         9        10        35     9        0.000000        1.386594         3    ;  uncertainty k = 0.272136
         8         9        10        35     9      180.000000        1.536633         4    ;  uncertainty k = 0.204079
         8         9        11        12     9        0.000000       -1.752492         1    ;  uncertainty k = 2.444220
         8         9        11        12     9      180.000000        0.384465         2    ;  uncertainty k = 1.174681
         8         9        11        12     9        0.000000        1.551867         3    ;  uncertainty k = 0.287609
         8         9        11        12     9      180.000000       -0.024799         4    ;  uncertainty k = 0.187727
         8         9        11        16     9        0.000000        0.469119         1    ;  uncertainty k = 2.714788
         8         9        11        16     9      180.000000       -0.341978         2    ;  uncertainty k = 1.479646
         8         9        11        16     9        0.000000        0.173914         3    ;  uncertainty k = 0.564262
         8         9        11        16     9      180.000000        0.674850         4    ;  uncertainty k = 0.241575
         8         9        11        36     9        0.000000       -0.286445         1    ;  uncertainty k = 0.744845
         8         9        11        36     9      180.000000        2.118726         2    ;  uncertainty k = 0.283390
         8         9        11        36     9        0.000000        0.467802         3    ;  uncertainty k = 0.209441
         8         9        11        36     9      180.000000       -0.206216         4    ;  uncertainty k = 0.138225
         8        23        17        16     9        0.000000        1.109900         1    ;  uncertainty k = 1.015113
         8        23        17        16     9      180.000000        0.190480         2    ;  uncertainty k = 0.724761
         8        23        17        16     9        0.000000        0.368523         3    ;  uncertainty k = 0.290595
         8        23        17        16     9      180.000000        0.176313         4    ;  uncertainty k = 0.118185
         8        23        17        18     9        0.000000       -0.387250         1    ;  uncertainty k = 0.655922
         8        23        17        18     9      180.000000       -0.432255         2    ;  uncertainty k = 0.609624
         8        23        17        18     9        0.000000        1.003766         3    ;  uncertainty k = 0.277730
         8        23        17        18     9      180.000000        0.297825         4    ;  uncertainty k = 0.158769
         8        23        17        44     9        0.000000       -0.666195         1    ;  uncertainty k = 0.427298
         8        23        17        44     9      180.000000       -0.563744         2    ;  uncertainty k = 0.292232
         8        23        17        44     9        0.000000        0.711156         3    ;  uncertainty k = 0.125489
         8        23        17        44     9      180.000000        0.211743         4    ;  uncertainty k = 0.094568
         9         8         7        34     9        0.000000        0.097635         1    ;  uncertainty k = 0.915241
         9         8         7        34     9      180.000000        6.158033         2    ;  uncertainty k = 0.689209
         9         8         7        34     9        0.000000        1.302220         3    ;  uncertainty k = 0.308328
         9         8         7        34     9      180.000000        1.293502         4    ;  uncertainty k = 0.188417
         9         8        23        17     9        0.000000        4.224938         1    ;  uncertainty k = 2.225517
         9         8        23        17     9      180.000000        1.626752         2    ;  uncertainty k = 0.613395
         9         8        23        17     9        0.000000       -0.039506         3    ;  uncertainty k = 0.333696
         9         8        23        17     9      180.000000        0.674181         4    ;  uncertainty k = 0.288065
         9         8        23        48     9        0.000000       12.249259         1    ;  uncertainty k = 0.662634
         9         8        23        48     9      180.000000        4.870801         2    ;  uncertainty k = 0.403103
         9         8        23        48     9        0.000000        0.176042         3    ;  uncertainty k = 0.208802
         9         8        23        48     9      180.000000        0.220561         4    ;  uncertainty k = 0.160830
         9        11        12        13     9        0.000000       -2.891819         1    ;  uncertainty k = 1.290737
         9        11        12        13     9      180.000000       -0.568730         2    ;  uncertainty k = 0.432255
         9        11        12        13     9        0.000000        1.028436         3    ;  uncertainty k = 0.594016
         9        11        12        13     9      180.000000       -0.075973         4    ;  uncertainty k = 0.122616
         9        11        16        15     9        0.000000       -1.376344         1    ;  uncertainty k = 1.310381
         9        11        16        15     9      180.000000       -1.108282         2    ;  uncertainty k = 0.359044
         9        11        16        15     9        0.000000        0.695687         3    ;  uncertainty k = 0.201794
         9        11        16        15     9      180.000000       -0.211876         4    ;  uncertainty k = 0.170384
         9        11        16        17     9        0.000000        1.679115         1    ;  uncertainty k = 1.612213
         9        11        16        17     9      180.000000       -2.645164         2    ;  uncertainty k = 0.092683
         9        11        16        17     9        0.000000        0.311233         3    ;  uncertainty k = 0.309349
         9        11        16        17     9      180.000000       -0.069015         4    ;  uncertainty k = 0.130781
         9        11        16        43     9        0.000000       -0.439127         1    ;  uncertainty k = 1.048536
         9        11        16        43     9      180.000000        0.817600         2    ;  uncertainty k = 0.531385
         9        11        16        43     9        0.000000        0.025292         3    ;  uncertainty k = 0.088506
         9        11        16        43     9      180.000000       -0.067570         4    ;  uncertainty k = 0.110231
        10         5         6        33     9        0.000000        0.151317         1    ;  uncertainty k = 0.166030
        10         5         6        33     9      180.000000        7.285280         2    ;  uncertainty k = 0.645949
        10         5         6        33     9        0.000000        1.357278         3    ;  uncertainty k = 0.319034
        10         5         6        33     9      180.000000        1.619462         4    ;  uncertainty k = 0.231962
        10         9         8        23     9        0.000000        0.545079         1    ;  uncertainty k = 0.530534
        10         9         8        23     9      180.000000        7.878482         2    ;  uncertainty k = 0.246113
        10         9         8        23     9        0.000000        0.998952         3    ;  uncertainty k = 0.161024
        10         9         8        23     9      180.000000        1.316024         4    ;  uncertainty k = 0.358755
        10         9        11        12     9        0.000000        0.006374         1    ;  uncertainty k = 0.533935
        10         9        11        12     9      180.000000        1.487925         2    ;  uncertainty k = 0.592746
        10         9        11        12     9        0.000000       -0.247521         3    ;  uncertainty k = 0.392305
        10         9        11        12     9      180.000000        0.097347         4    ;  uncertainty k = 0.155489
        10         9        11        16     9        0.000000       -1.671938         1    ;  uncertainty k = 0.874973
        10         9        11        16     9      180.000000       -0.037471         2    ;  uncertainty k = 0.560340
        10         9        11        16     9        0.000000       -0.222576         3    ;  uncertainty k = 0.154289
        10         9        11        16     9      180.000000        0.414546         4    ;  uncertainty k = 0.143015
        10         9        11        36     9        0.000000        0.550508         1    ;  uncertainty k = 0.855037
        10         9        11        36     9      180.000000        1.868594         2    ;  uncertainty k = 0.403712
        10         9        11        36     9        0.000000        0.085233         3    ;  uncertainty k = 0.154119
        10         9        11        36     9      180.000000       -0.015054         4    ;  uncertainty k = 0.137209
        11         9         8        23     9        0.000000       -0.073634         1    ;  uncertainty k = 0.581614
        11         9         8        23     9      180.000000        7.496573         2    ;  uncertainty k = 0.947469
        11         9         8        23     9        0.000000        0.727557         3    ;  uncertainty k = 0.500989
        11         9         8        23     9      180.000000        1.171734         4    ;  uncertainty k = 0.450088
        11         9        10        35     9        0.000000       -0.266654         1    ;  uncertainty k = 0.467354
        11         9        10        35     9      180.000000        8.287220         2    ;  uncertainty k = 0.686440
        11         9        10        35     9        0.000000        0.793262         3    ;  uncertainty k = 0.287946
        11         9        10        35     9      180.000000        1.139571         4    ;  uncertainty k = 0.439291
        11        12        13        14     9        0.000000       -1.155870         1    ;  uncertainty k = 2.431908
        11        12        13        14     9      180.000000       -0.854073         2    ;  uncertainty k = 1.152998
        11        12        13        14     9        0.000000        0.504113         3    ;  uncertainty k = 0.362226
        11        12        13        14     9      180.000000       -0.010885         4    ;  uncertainty k = 0.158695
        11        12        13        37     9        0.000000       -3.551657         1    ;  uncertainty k = 1.522227
        11        12        13        37     9      180.000000       -0.567398         2    ;  uncertainty k = 0.296820
        11        12        13        37     9        0.000000        0.353191         3    ;  uncertainty k = 0.222372
        11        12        13        37     9      180.000000       -0.111420         4    ;  uncertainty k = 0.124639
        11        12        13        38     9        0.000000       -3.551657         1    ;  uncertainty k = 1.522227
        11        12        13        38     9      180.000000       -0.567398         2    ;  uncertainty k = 0.296820
        11        12        13        38     9        0.000000        0.353191         3    ;  uncertainty k = 0.222372
        11        12        13        38     9      180.000000       -0.111420         4    ;  uncertainty k = 0.124639
        11        16        15        14     9        0.000000       -3.607985         1    ;  uncertainty k = 0.245870
        11        16        15        14     9      180.000000        0.030214         2    ;  uncertainty k = 0.549009
        11        16        15        14     9        0.000000        1.110851         3    ;  uncertainty k = 0.234926
        11        16        15        14     9      180.000000       -0.833500         4    ;  uncertainty k = 0.123528
        11        16        15        41     9        0.000000       -0.465181         1    ;  uncertainty k = 0.414191
        11        16        15        41     9      180.000000       -0.654564         2    ;  uncertainty k = 0.137459
        11        16        15        41     9        0.000000        0.336707         3    ;  uncertainty k = 0.103554
        11        16        15        41     9      180.000000       -0.015176         4    ;  uncertainty k = 0.041746
        11        16        15        42     9        0.000000       -0.465181         1    ;  uncertainty k = 0.414191
        11        16        15        42     9      180.000000       -0.654564         2    ;  uncertainty k = 0.137459
        11        16        15        42     9        0.000000        0.336707         3    ;  uncertainty k = 0.103554
        11        16        15        42     9      180.000000       -0.015176         4    ;  uncertainty k = 0.041746
        11        16        17        18     9        0.000000       -0.988733         1    ;  uncertainty k = 0.903503
        11        16        17        18     9      180.000000       -0.155122         2    ;  uncertainty k = 0.438289
        11        16        17        18     9        0.000000        0.376676         3    ;  uncertainty k = 0.122122
        11        16        17        18     9      180.000000       -0.079038         4    ;  uncertainty k = 0.149447
        11        16        17        23     9        0.000000        0.517079         1    ;  uncertainty k = 2.034251
        11        16        17        23     9      180.000000       -1.184803         2    ;  uncertainty k = 0.490444
        11        16        17        23     9        0.000000        0.444930         3    ;  uncertainty k = 0.401000
        11        16        17        23     9      180.000000       -0.192304         4    ;  uncertainty k = 0.371342
        11        16        17        44     9        0.000000        0.813956         1    ;  uncertainty k = 0.865222
        11        16        17        44     9      180.000000       -1.359329         2    ;  uncertainty k = 0.651715
        11        16        17        44     9        0.000000       -0.474063         3    ;  uncertainty k = 0.125610
        11        16        17        44     9      180.000000        0.011842         4    ;  uncertainty k = 0.147129
        12        11        16        15     9        0.000000       -0.880680         1    ;  uncertainty k = 0.793894
        12        11        16        15     9      180.000000       -2.031910         2    ;  uncertainty k = 0.887610
        12        11        16        15     9        0.000000        0.968329         3    ;  uncertainty k = 0.206884
        12        11        16        15     9      180.000000       -0.068519         4    ;  uncertainty k = 0.193566
        12        11        16        17     9        0.000000       -0.356402         1    ;  uncertainty k = 1.372272
        12        11        16        17     9      180.000000       -3.912307         2    ;  uncertainty k = 1.555405
        12        11        16        17     9        0.000000        0.771786         3    ;  uncertainty k = 0.302165
        12        11        16        17     9      180.000000        0.117544         4    ;  uncertainty k = 0.291384
        12        11        16        43     9        0.000000       -0.735117         1    ;  uncertainty k = 0.606701
        12        11        16        43     9      180.000000        0.630378         2    ;  uncertainty k = 0.566276
        12        11        16        43     9        0.000000        0.178974         3    ;  uncertainty k = 0.276814
        12        11        16        43     9      180.000000       -0.152523         4    ;  uncertainty k = 0.146675
        12        13        14        15     9        0.000000       -2.427368         1    ;  uncertainty k = 0.954175
        12        13        14        15     9      180.000000       -1.563350         2    ;  uncertainty k = 0.560305
        12        13        14        15     9        0.000000        1.766073         3    ;  uncertainty k = 0.456132
        12        13        14        15     9      180.000000       -0.736180         4    ;  uncertainty k = 0.192039
        12        13        14        39     9        0.000000       -1.402347         1    ;  uncertainty k = 0.480629
        12        13        14        39     9      180.000000       -0.566401         2    ;  uncertainty k = 0.316849
        12        13        14        39     9        0.000000        1.272075         3    ;  uncertainty k = 0.171818
        12        13        14        39     9      180.000000       -0.147225         4    ;  uncertainty k = 0.121816
        12        13        14        40     9        0.000000       -1.402347         1    ;  uncertainty k = 0.480629
        12        13        14        40     9      180.000000       -0.566401         2    ;  uncertainty k = 0.316849
        12        13        14        40     9        0.000000        1.272075         3    ;  uncertainty k = 0.171818
        12        13        14        40     9      180.000000       -0.147225         4    ;  uncertainty k = 0.121816
        13        12        11        16     9        0.000000        3.300449         1    ;  uncertainty k = 1.764801
        13        12        11        16     9      180.000000       -1.847095         2    ;  uncertainty k = 0.770059
        13        12        11        16     9        0.000000        0.452181         3    ;  uncertainty k = 0.319657
        13        12        11        16     9      180.000000       -0.112867         4    ;  uncertainty k = 0.199144
        13        12        11        36     9        0.000000       -1.928294         1    ;  uncertainty k = 0.671144
        13        12        11        36     9      180.000000       -0.669383         2    ;  uncertainty k = 0.422069
        13        12        11        36     9        0.000000        0.512738         3    ;  uncertainty k = 0.023465
        13        12        11        36     9      180.000000       -0.092448         4    ;  uncertainty k = 0.159873
        13        14        15        16     9        0.000000       -5.879223         1    ;  uncertainty k = 1.155350
        13        14        15        16     9      180.000000       -0.109336         2    ;  uncertainty k = 0.825790
        13        14        15        16     9        0.000000        1.292346         3    ;  uncertainty k = 0.250684
        13        14        15        16     9      180.000000       -0.983028         4    ;  uncertainty k = 0.107741
        13        14        15        41     9        0.000000       -1.385107         1    ;  uncertainty k = 0.536002
        13        14        15        41     9      180.000000       -0.446134         2    ;  uncertainty k = 0.251370
        13        14        15        41     9        0.000000        0.453670         3    ;  uncertainty k = 0.146574
        13        14        15        41     9      180.000000        0.053142         4    ;  uncertainty k = 0.043329
        13        14        15        42     9        0.000000       -1.385107         1    ;  uncertainty k = 0.536002
        13        14        15        42     9      180.000000       -0.446134         2    ;  uncertainty k = 0.251370
        13        14        15        42     9        0.000000        0.453670         3    ;  uncertainty k = 0.146574
        13        14        15        42     9      180.000000        0.053142         4    ;  uncertainty k = 0.043329
        14        15        16        17     9        0.000000       -3.544413         1    ;  uncertainty k = 0.830202
        14        15        16        17     9      180.000000       -0.024764         2    ;  uncertainty k = 0.194149
        14        15        16        17     9        0.000000        1.200749         3    ;  uncertainty k = 0.177842
        14        15        16        17     9      180.000000       -0.593934         4    ;  uncertainty k = 0.202269
        14        15        16        43     9        0.000000       -2.421391         1    ;  uncertainty k = 0.547760
        14        15        16        43     9      180.000000        0.241696         2    ;  uncertainty k = 0.366460
        14        15        16        43     9        0.000000        0.080865         3    ;  uncertainty k = 0.048343
        14        15        16        43     9      180.000000       -0.105710         4    ;  uncertainty k = 0.073566
        15        14        13        37     9        0.000000        2.247421         1    ;  uncertainty k = 0.638022
        15        14        13        37     9      180.000000       -2.516121         2    ;  uncertainty k = 0.478799
        15        14        13        37     9        0.000000       -0.005385         3    ;  uncertainty k = 0.268353
        15        14        13        37     9      180.000000        0.353023         4    ;  uncertainty k = 0.103859
        15        14        13        38     9        0.000000        2.247421         1    ;  uncertainty k = 0.638022
        15        14        13        38     9      180.000000       -2.516121         2    ;  uncertainty k = 0.478799
        15        14        13        38     9        0.000000       -0.005385         3    ;  uncertainty k = 0.268353
        15        14        13        38     9      180.000000        0.353023         4    ;  uncertainty k = 0.103859
        15        16        11        36     9        0.000000        0.457643         1    ;  uncertainty k = 0.494539
        15        16        11        36     9      180.000000       -0.428359         2    ;  uncertainty k = 0.423943
        15        16        11        36     9        0.000000       -0.130899         3    ;  uncertainty k = 0.095499
        15        16        11        36     9      180.000000       -0.044373         4    ;  uncertainty k = 0.118596
        15        16        17        18     9        0.000000       -0.727354         1    ;  uncertainty k = 0.795028
        15        16        17        18     9      180.000000        0.080768         2    ;  uncertainty k = 0.148441
        15        16        17        18     9        0.000000        0.937115         3    ;  uncertainty k = 0.133494
        15        16        17        18     9      180.000000       -0.027764         4    ;  uncertainty k = 0.062398
        15        16        17        23     9        0.000000       -2.848733         1    ;  uncertainty k = 0.576938
        15        16        17        23     9      180.000000        0.457015         2    ;  uncertainty k = 0.367881
        15        16        17        23     9        0.000000        1.145829         3    ;  uncertainty k = 0.237489
        15        16        17        23     9      180.000000       -0.334391         4    ;  uncertainty k = 0.265961
        15        16        17        44     9        0.000000       -0.229813         1    ;  uncertainty k = 0.494013
        15        16        17        44     9      180.000000       -0.229764         2    ;  uncertainty k = 0.112879
        15        16        17        44     9        0.000000        0.078880         3    ;  uncertainty k = 0.183325
        15        16        17        44     9      180.000000       -0.131652         4    ;  uncertainty k = 0.099917
        16        15        14        39     9        0.000000       -0.702881         1    ;  uncertainty k = 0.208982
        16        15        14        39     9      180.000000       -0.712201         2    ;  uncertainty k = 0.151116
        16        15        14        39     9        0.000000        0.380315         3    ;  uncertainty k = 0.132329
        16        15        14        39     9      180.000000       -0.035649         4    ;  uncertainty k = 0.120022
        16        15        14        40     9        0.000000       -0.702881         1    ;  uncertainty k = 0.208982
        16        15        14        40     9      180.000000       -0.712201         2    ;  uncertainty k = 0.151116
        16        15        14        40     9        0.000000        0.380315         3    ;  uncertainty k = 0.132329
        16        15        14        40     9      180.000000       -0.035649         4    ;  uncertainty k = 0.120022
        16        17        18        19     9        0.000000        0.717741         1    ;  uncertainty k = 0.455338
        16        17        18        19     9      180.000000        0.947412         2    ;  uncertainty k = 0.367844
        16        17        18        19     9        0.000000        0.128232         3    ;  uncertainty k = 0.126152
        16        17        18        19     9      180.000000        0.142524         4    ;  uncertainty k = 0.131056
        16        17        18        22     9        0.000000       -2.111845         1    ;  uncertainty k = 1.148105
        16        17        18        22     9      180.000000        0.236483         2    ;  uncertainty k = 0.359676
        16        17        18        22     9        0.000000        0.323716         3    ;  uncertainty k = 0.237267
        16        17        18        22     9      180.000000        0.082559         4    ;  uncertainty k = 0.054801
        16        17        23        48     9        0.000000        3.915473         1    ;  uncertainty k = 1.153016
        16        17        23        48     9      180.000000       -1.698790         2    ;  uncertainty k = 1.254106
        16        17        23        48     9        0.000000        0.534971         3    ;  uncertainty k = 0.286674
        16        17        23        48     9      180.000000        0.004040         4    ;  uncertainty k = 0.054196
        17        16        11        36     9        0.000000        1.162754         1    ;  uncertainty k = 1.075091
        17        16        11        36     9      180.000000       -1.161683         2    ;  uncertainty k = 0.509209
        17        16        11        36     9        0.000000       -0.195849         3    ;  uncertainty k = 0.049327
        17        16        11        36     9      180.000000        0.005231         4    ;  uncertainty k = 0.188860
        17        16        15        41     9        0.000000        0.115680         1    ;  uncertainty k = 0.247377
        17        16        15        41     9      180.000000       -0.642664         2    ;  uncertainty k = 0.286360
        17        16        15        41     9        0.000000        0.543369         3    ;  uncertainty k = 0.129408
        17        16        15        41     9      180.000000       -0.053746         4    ;  uncertainty k = 0.091404
        17        16        15        42     9        0.000000        0.115680         1    ;  uncertainty k = 0.247377
        17        16        15        42     9      180.000000       -0.642664         2    ;  uncertainty k = 0.286360
        17        16        15        42     9        0.000000        0.543369         3    ;  uncertainty k = 0.129408
        17        16        15        42     9      180.000000       -0.053746         4    ;  uncertainty k = 0.091404
        17        18        19        20     9        0.000000        0.395405         1    ;  uncertainty k = 0.356266
        17        18        19        20     9      180.000000       14.561981         2    ;  uncertainty k = 0.425790
        17        18        19        20     9        0.000000        2.073059         3    ;  uncertainty k = 0.551906
        17        18        19        20     9      180.000000        1.150670         4    ;  uncertainty k = 0.212572
        17        18        19        45     9        0.000000        0.164032         1    ;  uncertainty k = 0.442340
        17        18        19        45     9      180.000000        8.973012         2    ;  uncertainty k = 0.851667
        17        18        19        45     9        0.000000        1.097595         3    ;  uncertainty k = 0.123248
        17        18        19        45     9      180.000000        0.653547         4    ;  uncertainty k = 0.435476
        17        18        22        21     9        0.000000        0.384930         1    ;  uncertainty k = 1.384334
        17        18        22        21     9      180.000000        9.661696         2    ;  uncertainty k = 0.410464
        17        18        22        21     9        0.000000        1.185506         3    ;  uncertainty k = 0.441695
        17        18        22        21     9      180.000000        0.189046         4    ;  uncertainty k = 0.158263
        18        17        16        43     9        0.000000        0.543516         1    ;  uncertainty k = 0.217910
        18        17        16        43     9      180.000000        0.223528         2    ;  uncertainty k = 0.750491
        18        17        16        43     9        0.000000        0.451676         3    ;  uncertainty k = 0.145692
        18        17        16        43     9      180.000000       -0.055995         4    ;  uncertainty k = 0.095556
        18        17        23        48     9        0.000000        6.235876         1    ;  uncertainty k = 0.472937
        18        17        23        48     9      180.000000       -2.034608         2    ;  uncertainty k = 0.722043
        18        17        23        48     9        0.000000        0.583207         3    ;  uncertainty k = 0.371972
        18        17        23        48     9      180.000000       -0.035951         4    ;  uncertainty k = 0.222740
        18        19        20        21     9        0.000000       -0.571493         1    ;  uncertainty k = 0.641711
        18        19        20        21     9      180.000000       12.630979         2    ;  uncertainty k = 0.977644
        18        19        20        21     9        0.000000       -4.823161         3    ;  uncertainty k = 0.701786
        18        19        20        21     9      180.000000        1.538856         4    ;  uncertainty k = 0.715802
        18        19        20        46     9        0.000000       -0.312008         1    ;  uncertainty k = 0.433920
        18        19        20        46     9      180.000000        7.205653         2    ;  uncertainty k = 0.185421
        18        19        20        46     9        0.000000        1.158615         3    ;  uncertainty k = 0.231502
        18        19        20        46     9      180.000000        0.435820         4    ;  uncertainty k = 0.242656
        18        22        21        20     9        0.000000       -0.244291         1    ;  uncertainty k = 0.496651
        18        22        21        20     9      180.000000       13.882868         2    ;  uncertainty k = 0.759349
        18        22        21        20     9        0.000000       -8.594884         3    ;  uncertainty k = 0.676276
        18        22        21        20     9      180.000000        1.769894         4    ;  uncertainty k = 0.659269
        18        22        21        47     9        0.000000        0.220297         1    ;  uncertainty k = 1.264765
        18        22        21        47     9      180.000000        7.309745         2    ;  uncertainty k = 1.101863
        18        22        21        47     9        0.000000        0.495518         3    ;  uncertainty k = 0.634621
        18        22        21        47     9      180.000000        0.259131         4    ;  uncertainty k = 0.298562
        19        18        17        23     9        0.000000       -0.085358         1    ;  uncertainty k = 0.856765
        19        18        17        23     9      180.000000        2.079114         2    ;  uncertainty k = 0.614810
        19        18        17        23     9        0.000000        0.392666         3    ;  uncertainty k = 0.221327
        19        18        17        23     9      180.000000        0.188083         4    ;  uncertainty k = 0.112187
        19        18        17        44     9        0.000000       -0.865832         1    ;  uncertainty k = 0.287132
        19        18        17        44     9      180.000000        1.746755         2    ;  uncertainty k = 0.337189
        19        18        17        44     9        0.000000        0.427079         3    ;  uncertainty k = 0.158301
        19        18        17        44     9      180.000000        0.095817         4    ;  uncertainty k = 0.098756
        19        18        22        21     9        0.000000        0.143448         1    ;  uncertainty k = 0.805313
        19        18        22        21     9      180.000000       12.222298         2    ;  uncertainty k = 0.686458
        19        18        22        21     9        0.000000       -7.823001         3    ;  uncertainty k = 0.903006
        19        18        22        21     9      180.000000        1.821418         4    ;  uncertainty k = 0.673115
        19        20        21        22     9        0.000000       -0.553941         1    ;  uncertainty k = 0.409734
        19        20        21        22     9      180.000000       19.261790         2    ;  uncertainty k = 0.530870
        19        20        21        22     9        0.000000       -4.107874         3    ;  uncertainty k = 0.425221
        19        20        21        22     9      180.000000        1.167922         4    ;  uncertainty k = 0.808811
        19        20        21        47     9        0.000000       -0.119773         1    ;  uncertainty k = 0.188458
        19        20        21        47     9      180.000000       14.679531         2    ;  uncertainty k = 0.119537
        19        20        21        47     9        0.000000        1.625199         3    ;  uncertainty k = 0.281997
        19        20        21        47     9      180.000000        0.979679         4    ;  uncertainty k = 0.149610
        20        19        18        22     9        0.000000       -0.727121         1    ;  uncertainty k = 0.436623
        20        19        18        22     9      180.000000       18.771762         2    ;  uncertainty k = 0.590330
        20        19        18        22     9        0.000000       -3.488560         3    ;  uncertainty k = 0.829295
        20        19        18        22     9      180.000000        1.093859         4    ;  uncertainty k = 0.750214
        21        20        19        45     9        0.000000       -0.158775         1    ;  uncertainty k = 0.346545
        21        20        19        45     9      180.000000        7.111887         2    ;  uncertainty k = 0.210514
        21        20        19        45     9        0.000000        0.885454         3    ;  uncertainty k = 0.294608
        21        20        19        45     9      180.000000        0.563968         4    ;  uncertainty k = 0.213817
        22        18        17        23     9        0.000000       -2.331618         1    ;  uncertainty k = 0.545619
        22        18        17        23     9      180.000000        0.220575         2    ;  uncertainty k = 0.844672
        22        18        17        23     9        0.000000        0.674272         3    ;  uncertainty k = 0.203711
        22        18        17        23     9      180.000000        0.306128         4    ;  uncertainty k = 0.159629
        22        18        17        44     9        0.000000        1.258062         1    ;  uncertainty k = 0.807369
        22        18        17        44     9      180.000000        1.297423         2    ;  uncertainty k = 0.331200
        22        18        17        44     9        0.000000        0.597005         3    ;  uncertainty k = 0.195854
        22        18        17        44     9      180.000000        0.195636         4    ;  uncertainty k = 0.069067
        22        18        19        45     9        0.000000        0.083401         1    ;  uncertainty k = 0.681118
        22        18        19        45     9      180.000000       11.803549         2    ;  uncertainty k = 0.529403
        22        18        19        45     9        0.000000        1.974630         3    ;  uncertainty k = 0.405572
        22        18        19        45     9      180.000000        1.281678         4    ;  uncertainty k = 0.271011
        22        21        20        46     9        0.000000       -0.031928         1    ;  uncertainty k = 0.618913
        22        21        20        46     9      180.000000       13.458530         2    ;  uncertainty k = 0.399838
        22        21        20        46     9        0.000000        2.173956         3    ;  uncertainty k = 0.394322
        22        21        20        46     9      180.000000        1.173712         4    ;  uncertainty k = 0.379416
        23         8         7        34     9        0.000000       -0.341404         1    ;  uncertainty k = 0.654432
        23         8         7        34     9      180.000000        8.086760         2    ;  uncertainty k = 0.282351
        23         8         7        34     9        0.000000        1.026020         3    ;  uncertainty k = 0.168924
        23         8         7        34     9      180.000000        1.237444         4    ;  uncertainty k = 0.289508
        23        17        16        43     9        0.000000       -0.834417         1    ;  uncertainty k = 0.618460
        23        17        16        43     9      180.000000        0.277412         2    ;  uncertainty k = 0.516310
        23        17        16        43     9        0.000000        0.616871         3    ;  uncertainty k = 0.251726
        23        17        16        43     9      180.000000        0.039911         4    ;  uncertainty k = 0.108500
        33         6         7        34     9        0.000000        0.028357         1    ;  uncertainty k = 0.533498
        33         6         7        34     9      180.000000        7.769212         2    ;  uncertainty k = 0.404666
        33         6         7        34     9        0.000000       -0.363551         3    ;  uncertainty k = 0.311033
        33         6         7        34     9      180.000000        0.241057         4    ;  uncertainty k = 0.183618
        36        11        16        43     9        0.000000        2.084917         1    ;  uncertainty k = 0.441509
        36        11        16        43     9      180.000000        0.807799         2    ;  uncertainty k = 0.480518
        36        11        16        43     9        0.000000       -0.488571         3    ;  uncertainty k = 0.226884
        36        11        16        43     9      180.000000       -0.173495         4    ;  uncertainty k = 0.070545
        37        13        14        39     9        0.000000       -0.275422         1    ;  uncertainty k = 0.375952
        37        13        14        39     9      180.000000        0.799485         2    ;  uncertainty k = 0.449344
        37        13        14        39     9        0.000000        0.199782         3    ;  uncertainty k = 0.150863
        37        13        14        39     9      180.000000       -0.352515         4    ;  uncertainty k = 0.069447
        37        13        14        40     9        0.000000       -0.275422         1    ;  uncertainty k = 0.375952
        37        13        14        40     9      180.000000        0.799485         2    ;  uncertainty k = 0.449344
        37        13        14        40     9        0.000000        0.199782         3    ;  uncertainty k = 0.150863
        37        13        14        40     9      180.000000       -0.352515         4    ;  uncertainty k = 0.069447
        38        13        14        39     9        0.000000       -0.275422         1    ;  uncertainty k = 0.375952
        38        13        14        39     9      180.000000        0.799485         2    ;  uncertainty k = 0.449344
        38        13        14        39     9        0.000000        0.199782         3    ;  uncertainty k = 0.150863
        38        13        14        39     9      180.000000       -0.352515         4    ;  uncertainty k = 0.069447
        38        13        14        40     9        0.000000       -0.275422         1    ;  uncertainty k = 0.375952
        38        13        14        40     9      180.000000        0.799485         2    ;  uncertainty k = 0.449344
        38        13        14        40     9        0.000000        0.199782         3    ;  uncertainty k = 0.150863
        38        13        14        40     9      180.000000       -0.352515         4    ;  uncertainty k = 0.069447
        39        14        15        41     9        0.000000        1.873187         1    ;  uncertainty k = 0.393653
        39        14        15        41     9      180.000000        0.114969         2    ;  uncertainty k = 0.142594
        39        14        15        41     9        0.000000        0.319230         3    ;  uncertainty k = 0.093640
        39        14        15        41     9      180.000000        0.071186         4    ;  uncertainty k = 0.022008
        39        14        15        42     9        0.000000        1.873187         1    ;  uncertainty k = 0.393653
        39        14        15        42     9      180.000000        0.114969         2    ;  uncertainty k = 0.142594
        39        14        15        42     9        0.000000        0.319230         3    ;  uncertainty k = 0.093640
        39        14        15        42     9      180.000000        0.071186         4    ;  uncertainty k = 0.022008
        40        14        15        41     9        0.000000        1.873187         1    ;  uncertainty k = 0.393653
        40        14        15        41     9      180.000000        0.114969         2    ;  uncertainty k = 0.142594
        40        14        15        41     9        0.000000        0.319230         3    ;  uncertainty k = 0.093640
        40        14        15        41     9      180.000000        0.071186         4    ;  uncertainty k = 0.022008
        40        14        15        42     9        0.000000        1.873187         1    ;  uncertainty k = 0.393653
        40        14        15        42     9      180.000000        0.114969         2    ;  uncertainty k = 0.142594
        40        14        15        42     9        0.000000        0.319230         3    ;  uncertainty k = 0.093640
        40        14        15        42     9      180.000000        0.071186         4    ;  uncertainty k = 0.022008
        41        15        16        43     9        0.000000        1.576494         1    ;  uncertainty k = 0.300776
        41        15        16        43     9      180.000000       -0.015268         2    ;  uncertainty k = 0.336107
        41        15        16        43     9        0.000000       -0.057435         3    ;  uncertainty k = 0.108833
        41        15        16        43     9      180.000000        0.006592         4    ;  uncertainty k = 0.059606
        42        15        16        43     9        0.000000        1.576494         1    ;  uncertainty k = 0.300776
        42        15        16        43     9      180.000000       -0.015268         2    ;  uncertainty k = 0.336107
        42        15        16        43     9        0.000000       -0.057435         3    ;  uncertainty k = 0.108833
        42        15        16        43     9      180.000000        0.006592         4    ;  uncertainty k = 0.059606
        43        16        17        44     9        0.000000        1.137212         1    ;  uncertainty k = 0.355439
        43        16        17        44     9      180.000000       -0.040916         2    ;  uncertainty k = 0.253375
        43        16        17        44     9        0.000000       -0.279200         3    ;  uncertainty k = 0.158253
        43        16        17        44     9      180.000000       -0.271950         4    ;  uncertainty k = 0.132975
        44        17        23        48     9        0.000000        0.530061         1    ;  uncertainty k = 0.493949
        44        17        23        48     9      180.000000       -0.970735         2    ;  uncertainty k = 0.100409
        44        17        23        48     9        0.000000        0.477184         3    ;  uncertainty k = 0.281331
        44        17        23        48     9      180.000000        0.042099         4    ;  uncertainty k = 0.101265
        45        19        20        46     9        0.000000       -0.135771         1    ;  uncertainty k = 0.953065
        45        19        20        46     9      180.000000        5.301774         2    ;  uncertainty k = 0.669893
        45        19        20        46     9        0.000000        1.152731         3    ;  uncertainty k = 0.531387
        45        19        20        46     9      180.000000        0.139335         4    ;  uncertainty k = 0.116745
        46        20        21        47     9        0.000000       -0.306550         1    ;  uncertainty k = 0.241294
        46        20        21        47     9      180.000000        7.471712         2    ;  uncertainty k = 0.464314
        46        20        21        47     9        0.000000        1.029935         3    ;  uncertainty k = 0.412687
        46        20        21        47     9      180.000000        0.517476         4    ;  uncertainty k = 0.291064

[ dihedrals ] ; impropers
;       ai        aj        ak        al funct           phase               k        pn
         5         2         6        10     4      180.000000       12.714653         2    ;  uncertainty k = 0.097697
         5         6        10         2     4      180.000000       12.714653         2    ;  uncertainty k = 0.097697
         5        10         2         6     4      180.000000       12.714653         2    ;  uncertainty k = 0.097697
         6         5         7        33     4      180.000000        4.379457         2    ;  uncertainty k = 0.146726
         6         7        33         5     4      180.000000        4.379457         2    ;  uncertainty k = 0.146726
         6        33         5         7     4      180.000000        4.379457         2    ;  uncertainty k = 0.146726
         7         6         8        34     4      180.000000        1.859836         2    ;  uncertainty k = 0.414888
         7         8        34         6     4      180.000000        1.859836         2    ;  uncertainty k = 0.414888
         7        34         6         8     4      180.000000        1.859836         2    ;  uncertainty k = 0.414888
         8         7         9        23     4      180.000000       20.811273         2    ;  uncertainty k = 0.135073
         8         9        23         7     4      180.000000       20.811273         2    ;  uncertainty k = 0.135073
         8        23         7         9     4      180.000000       20.811273         2    ;  uncertainty k = 0.135073
         9         8        10        11     4      180.000000       11.044465         2    ;  uncertainty k = 0.210015
         9        10        11         8     4      180.000000       11.044465         2    ;  uncertainty k = 0.210015
         9        11         8        10     4      180.000000       11.044465         2    ;  uncertainty k = 0.210015
        10         5         9        35     4      180.000000        3.928093         2    ;  uncertainty k = 0.322640
        10         9        35         5     4      180.000000        3.928093         2    ;  uncertainty k = 0.322640
        10        35         5         9     4      180.000000        3.928093         2    ;  uncertainty k = 0.322640
        18        17        19        22     4      180.000000        2.506120         2    ;  uncertainty k = 0.561230
        18        19        22        17     4      180.000000        2.506120         2    ;  uncertainty k = 0.561230
        18        22        17        19     4      180.000000        2.506120         2    ;  uncertainty k = 0.561230
        19        18        20        45     4      180.000000        1.178814         2    ;  uncertainty k = 0.484515
        19        20        45        18     4      180.000000        1.178814         2    ;  uncertainty k = 0.484515
        19        45        18        20     4      180.000000        1.178814         2    ;  uncertainty k = 0.484515
        20        19        21        46     4      180.000000        1.171306         2    ;  uncertainty k = 0.365556
        20        21        46        19     4      180.000000        1.171306         2    ;  uncertainty k = 0.365556
        20        46        19        21     4      180.000000        1.171306         2    ;  uncertainty k = 0.365556

[ pairs ]
;       ai        aj funct
         1         6     1
         1        10     1
         1        27     1
         1        28     1
         1        29     1
         1        30     1
         1        31     1
         1        32     1
         2         7     1
         2         9     1
         2        33     1
         2        35     1
         3         6     1
         3        10     1
         3        24     1
         3        25     1
         3        26     1
         3        30     1
         3        31     1
         3        32     1
         4         6     1
         4        10     1
         4        24     1
         4        25     1
         4        26     1
         4        27     1
         4        28     1
         4        29     1
         5         8     1
         5        11     1
         5        24     1
         5        25     1
         5        26     1
         5        27     1
         5        28     1
         5        29     1
         5        30     1
         5        31     1
         5        32     1
         5        34     1
         6         9     1
         6        23     1
         6        35     1
         7        10     1
         7        11     1
         7        17     1
         7        48     1
         8        12     1
         8        16     1
         8        18     1
         8        33     1
         8        35     1
         8        36     1
         8        44     1
         9        13     1
         9        15     1
         9        17     1
         9        34     1
         9        43     1
         9        48     1
        10        12     1
        10        16     1
        10        23     1
        10        33     1
        10        36     1
        11        14     1
        11        18     1
        11        23     1
        11        35     1
        11        37     1
        11        38     1
        11        41     1
        11        42     1
        11        44     1
        12        15     1
        12        17     1
        12        39     1
        12        40     1
        12        43     1
        13        16     1
        13        36     1
        13        41     1
        13        42     1
        14        17     1
        14        43     1
        15        18     1
        15        23     1
        15        36     1
        15        37     1
        15        38     1
        15        44     1
        16        19     1
        16        22     1
        16        39     1
        16        40     1
        16        48     1
        17        20     1
        17        21     1
        17        36     1
        17        41     1
        17        42     1
        17        45     1
        18        43     1
        18        46     1
        18        47     1
        18        48     1
        19        23     1
        19        44     1
        19        47     1
        21        45     1
        22        23     1
        22        44     1
        22        45     1
        22        46     1
        23        34     1
        23        43     1
        33        34     1
        36        43     1
        37        39     1
        37        40     1
        38        39     1
        38        40     1
        39        41     1
        39        42     1
        40        41     1
        40        42     1
        41        43     1
        42        43     1
        43        44     1
        44        48     1
        45        46     1
        46        47     1
