; ITP file created by ByteFF-joint-25, 2026-02-17 09:12:09.046458

[ atomtypes ]
;name           bonded.type        at.num        mass        charge   ptype           sigma         epsilon
 c0bf                                   6      0.0000       0.00000       A     3.39771e-01     4.50898e-01    ;  uncertainty sigma = 0.000007, epsilon = 0.000479
 c1bf                                   6      0.0000       0.00000       A     3.39774e-01     4.51167e-01    ;  uncertainty sigma = 0.000015, epsilon = 0.000796
 c2bf                                   6      0.0000       0.00000       A     3.39771e-01     4.50898e-01    ;  uncertainty sigma = 0.000007, epsilon = 0.000479
 c3bf                                   6      0.0000       0.00000       A     3.39771e-01     4.50898e-01    ;  uncertainty sigma = 0.000007, epsilon = 0.000479
 c4bf                                   6      0.0000       0.00000       A     3.31532e-01     4.13402e-01    ;  uncertainty sigma = 0.000010, epsilon = 0.001004
 c5bf                                   6      0.0000       0.00000       A     3.31524e-01     4.13573e-01    ;  uncertainty sigma = 0.000007, epsilon = 0.000695
 c6bf                                   6      0.0000       0.00000       A     3.31520e-01     4.13574e-01    ;  uncertainty sigma = 0.000004, epsilon = 0.000453
 c7bf                                   6      0.0000       0.00000       A     3.31548e-01     4.13221e-01    ;  uncertainty sigma = 0.000016, epsilon = 0.001142
 c8bf                                   6      0.0000       0.00000       A     3.31544e-01     4.13430e-01    ;  uncertainty sigma = 0.000017, epsilon = 0.000654
 c9bf                                   6      0.0000       0.00000       A     3.31545e-01     4.13403e-01    ;  uncertainty sigma = 0.000008, epsilon = 0.000917
 c10bf                                  6      0.0000       0.00000       A     3.39772e-01     4.50225e-01    ;  uncertainty sigma = 0.000016, epsilon = 0.001417
 o11bf                                  8      0.0000       0.00000       A     3.15596e-01     3.04740e-01    ;  uncertainty sigma = 0.000023, epsilon = 0.001772
 c12bf                                  6      0.0000       0.00000       A     3.39760e-01     4.51227e-01    ;  uncertainty sigma = 0.000012, epsilon = 0.000864
 c13bf                                  6      0.0000       0.00000       A     3.39784e-01     4.51076e-01    ;  uncertainty sigma = 0.000011, epsilon = 0.000821
 c14bf                                  6      0.0000       0.00000       A     3.39747e-01     4.50865e-01    ;  uncertainty sigma = 0.000011, epsilon = 0.000702
 c15bf                                  6      0.0000       0.00000       A     3.39746e-01     4.51244e-01    ;  uncertainty sigma = 0.000036, epsilon = 0.000863
 c16bf                                  6      0.0000       0.00000       A     3.39775e-01     4.51806e-01    ;  uncertainty sigma = 0.000009, epsilon = 0.001750
 c17bf                                  6      0.0000       0.00000       A     3.31524e-01     4.13287e-01    ;  uncertainty sigma = 0.000007, epsilon = 0.000845
 c18bf                                  6      0.0000       0.00000       A     3.31525e-01     4.13478e-01    ;  uncertainty sigma = 0.000005, epsilon = 0.000448
 c19bf                                  6      0.0000       0.00000       A     3.31531e-01     4.13811e-01    ;  uncertainty sigma = 0.000006, epsilon = 0.000399
 c20bf                                  6      0.0000       0.00000       A     3.31528e-01     4.13186e-01    ;  uncertainty sigma = 0.000014, epsilon = 0.000765
 o21bf                                  8      0.0000       0.00000       A     3.24341e-01     3.88971e-01    ;  uncertainty sigma = 0.000029, epsilon = 0.001630
 c22bf                                  6      0.0000       0.00000       A     3.31528e-01     4.13314e-01    ;  uncertainty sigma = 0.000006, epsilon = 0.000294
 f23bf                                  9      0.0000       0.00000       A     3.03418e-01     3.47449e-01    ;  uncertainty sigma = 0.000030, epsilon = 0.000651
 c24bf                                  6      0.0000       0.00000       A     3.31520e-01     4.13352e-01    ;  uncertainty sigma = 0.000008, epsilon = 0.000745
 n25bf                                  7      0.0000       0.00000       A     3.27909e-01     6.44315e-01    ;  uncertainty sigma = 0.000015, epsilon = 0.004120
 h26bf                                  1      0.0000       0.00000       A     2.60023e-01     8.66594e-02    ;  uncertainty sigma = 0.000006, epsilon = 0.000286
 h27bf                                  1      0.0000       0.00000       A     2.60023e-01     8.66594e-02    ;  uncertainty sigma = 0.000006, epsilon = 0.000286
 h28bf                                  1      0.0000       0.00000       A     2.60023e-01     8.66594e-02    ;  uncertainty sigma = 0.000006, epsilon = 0.000286
 h29bf                                  1      0.0000       0.00000       A     2.60023e-01     8.66594e-02    ;  uncertainty sigma = 0.000006, epsilon = 0.000286
 h30bf                                  1      0.0000       0.00000       A     2.60023e-01     8.66594e-02    ;  uncertainty sigma = 0.000006, epsilon = 0.000286
 h31bf                                  1      0.0000       0.00000       A     2.60023e-01     8.66594e-02    ;  uncertainty sigma = 0.000006, epsilon = 0.000286
 h32bf                                  1      0.0000       0.00000       A     2.60023e-01     8.66594e-02    ;  uncertainty sigma = 0.000006, epsilon = 0.000286
 h33bf                                  1      0.0000       0.00000       A     2.60023e-01     8.66594e-02    ;  uncertainty sigma = 0.000006, epsilon = 0.000286
 h34bf                                  1      0.0000       0.00000       A     2.60023e-01     8.66594e-02    ;  uncertainty sigma = 0.000006, epsilon = 0.000286
 h35bf                                  1      0.0000       0.00000       A     2.62546e-01     6.71182e-02    ;  uncertainty sigma = 0.000010, epsilon = 0.000474
 h36bf                                  1      0.0000       0.00000       A     2.62578e-01     6.70680e-02    ;  uncertainty sigma = 0.000013, epsilon = 0.000535
 h37bf                                  1      0.0000       0.00000       A     2.62494e-01     6.70936e-02    ;  uncertainty sigma = 0.000026, epsilon = 0.000462
 h38bf                                  1      0.0000       0.00000       A     2.42261e-01     8.77192e-02    ;  uncertainty sigma = 0.000247, epsilon = 0.001654
 h39bf                                  1      0.0000       0.00000       A     2.42227e-01     8.66832e-02    ;  uncertainty sigma = 0.000023, epsilon = 0.000687
 h40bf                                  1      0.0000       0.00000       A     2.42227e-01     8.66832e-02    ;  uncertainty sigma = 0.000023, epsilon = 0.000687
 h41bf                                  1      0.0000       0.00000       A     2.60028e-01     8.66444e-02    ;  uncertainty sigma = 0.000004, epsilon = 0.000701
 h42bf                                  1      0.0000       0.00000       A     2.60028e-01     8.66444e-02    ;  uncertainty sigma = 0.000004, epsilon = 0.000701
 h43bf                                  1      0.0000       0.00000       A     2.60033e-01     8.66495e-02    ;  uncertainty sigma = 0.000008, epsilon = 0.000752
 h44bf                                  1      0.0000       0.00000       A     2.60033e-01     8.66495e-02    ;  uncertainty sigma = 0.000008, epsilon = 0.000752
 h45bf                                  1      0.0000       0.00000       A     2.59938e-01     8.64077e-02    ;  uncertainty sigma = 0.000052, epsilon = 0.000980
 h46bf                                  1      0.0000       0.00000       A     2.42303e-01     8.69598e-02    ;  uncertainty sigma = 0.000074, epsilon = 0.001557
 h47bf                                  1      0.0000       0.00000       A     2.62564e-01     6.70544e-02    ;  uncertainty sigma = 0.000011, epsilon = 0.000511
 h48bf                                  1      0.0000       0.00000       A     2.62554e-01     6.69142e-02    ;  uncertainty sigma = 0.000009, epsilon = 0.000320
 h49bf                                  1      0.0000       0.00000       A     5.38016e-02     1.94195e-02    ;  uncertainty sigma = 0.000082, epsilon = 0.001297
 h50bf                                  1      0.0000       0.00000       A     2.62563e-01     6.71949e-02    ;  uncertainty sigma = 0.000014, epsilon = 0.000425
 h51bf                                  1      0.0000       0.00000       A     1.10675e-01     4.07502e-02    ;  uncertainty sigma = 0.000109, epsilon = 0.000764

[ moleculetype ]
;name             nrexcl
 MOL                   3

[ atoms ]
;       nr            type      resi   res      atom      cgnr      charge          mass ; qtot
         1            c0bf         1   UNL        c0         1    -0.08520       12.0110 ; qtot   -0.085
         2            c1bf         1   UNL        c1         2    -0.00014       12.0110 ; qtot   -0.085
         3            c2bf         1   UNL        c2         3    -0.08520       12.0110 ; qtot   -0.171
         4            c3bf         1   UNL        c3         4    -0.08520       12.0110 ; qtot   -0.256
         5            c4bf         1   UNL        c4         5    -0.09788       12.0110 ; qtot   -0.354
         6            c5bf         1   UNL        c5         6    -0.08956       12.0110 ; qtot   -0.443
         7            c6bf         1   UNL        c6         7    -0.19001       12.0110 ; qtot   -0.633
         8            c7bf         1   UNL        c7         8     0.15421       12.0110 ; qtot   -0.479
         9            c8bf         1   UNL        c8         9    -0.14428       12.0110 ; qtot   -0.623
        10            c9bf         1   UNL        c9        10    -0.07747       12.0110 ; qtot   -0.701
        11           c10bf         1   UNL       c10        11     0.20079       12.0110 ; qtot   -0.500
        12           o11bf         1   UNL       o11        12    -0.41448       15.9990 ; qtot   -0.914
        13           c12bf         1   UNL       c12        13     0.13235       12.0110 ; qtot   -0.782
        14           c13bf         1   UNL       c13        14    -0.10923       12.0110 ; qtot   -0.891
        15           c14bf         1   UNL       c14        15    -0.06734       12.0110 ; qtot   -0.959
        16           c15bf         1   UNL       c15        16    -0.09516       12.0110 ; qtot   -1.054
        17           c16bf         1   UNL       c16        17     0.26086       12.0110 ; qtot   -0.793
        18           c17bf         1   UNL       c17        18    -0.10268       12.0110 ; qtot   -0.896
        19           c18bf         1   UNL       c18        19    -0.09665       12.0110 ; qtot   -0.992
        20           c19bf         1   UNL       c19        20    -0.15933       12.0110 ; qtot   -1.152
        21           c20bf         1   UNL       c20        21     0.10675       12.0110 ; qtot   -1.045
        22           o21bf         1   UNL       o21        22    -0.48296       15.9990 ; qtot   -1.528
        23           c22bf         1   UNL       c22        23     0.05445       12.0110 ; qtot   -1.473
        24           f23bf         1   UNL       f23        24    -0.14786       18.9980 ; qtot   -1.621
        25           c24bf         1   UNL       c24        25    -0.11837       12.0110 ; qtot   -1.740
        26           n25bf         1   UNL       n25        26    -0.73704       14.0070 ; qtot   -2.477
        27           h26bf         1   UNL       h26        27     0.03604        1.0080 ; qtot   -2.441
        28           h27bf         1   UNL       h27        28     0.03604        1.0080 ; qtot   -2.405
        29           h28bf         1   UNL       h28        29     0.03604        1.0080 ; qtot   -2.369
        30           h29bf         1   UNL       h29        30     0.03604        1.0080 ; qtot   -2.332
        31           h30bf         1   UNL       h30        31     0.03604        1.0080 ; qtot   -2.296
        32           h31bf         1   UNL       h31        32     0.03604        1.0080 ; qtot   -2.260
        33           h32bf         1   UNL       h32        33     0.03604        1.0080 ; qtot   -2.224
        34           h33bf         1   UNL       h33        34     0.03604        1.0080 ; qtot   -2.188
        35           h34bf         1   UNL       h34        35     0.03604        1.0080 ; qtot   -2.152
        36           h35bf         1   UNL       h35        36     0.13382        1.0080 ; qtot   -2.018
        37           h36bf         1   UNL       h36        37     0.13013        1.0080 ; qtot   -1.888
        38           h37bf         1   UNL       h37        38     0.13358        1.0080 ; qtot   -1.755
        39           h38bf         1   UNL       h38        39     0.05466        1.0080 ; qtot   -1.700
        40           h39bf         1   UNL       h39        40     0.04503        1.0080 ; qtot   -1.655
        41           h40bf         1   UNL       h40        41     0.04503        1.0080 ; qtot   -1.610
        42           h41bf         1   UNL       h41        42     0.04980        1.0080 ; qtot   -1.560
        43           h42bf         1   UNL       h42        43     0.04980        1.0080 ; qtot   -1.510
        44           h43bf         1   UNL       h43        44     0.04883        1.0080 ; qtot   -1.462
        45           h44bf         1   UNL       h44        45     0.04883        1.0080 ; qtot   -1.413
        46           h45bf         1   UNL       h45        46     0.06824        1.0080 ; qtot   -1.345
        47           h46bf         1   UNL       h46        47     0.05536        1.0080 ; qtot   -1.289
        48           h47bf         1   UNL       h47        48     0.14332        1.0080 ; qtot   -1.146
        49           h48bf         1   UNL       h48        49     0.14811        1.0080 ; qtot   -0.998
        50           h49bf         1   UNL       h49        50     0.43138        1.0080 ; qtot   -0.566
        51           h50bf         1   UNL       h50        51     0.15752        1.0080 ; qtot   -0.409
        52           h51bf         1   UNL       h51        52     0.40883        1.0080 ; qtot   -0.000

[ bonds ]
;       ai        aj funct               r               k
         1         2     1        0.153655   198668.802539    ;  uncertainty r = 0.000045, k = 2.713816
         1        27     1        0.109659   308676.642969    ;  uncertainty r = 0.000022, k = 1.372181
         1        28     1        0.109659   308676.642969    ;  uncertainty r = 0.000022, k = 1.372181
         1        29     1        0.109659   308676.642969    ;  uncertainty r = 0.000022, k = 1.372181
         2         3     1        0.153655   198668.802539    ;  uncertainty r = 0.000045, k = 2.713816
         2         4     1        0.153655   198668.802539    ;  uncertainty r = 0.000045, k = 2.713816
         2         5     1        0.151796   210318.793530    ;  uncertainty r = 0.000061, k = 4.451951
         3        30     1        0.109659   308676.642969    ;  uncertainty r = 0.000022, k = 1.372181
         3        31     1        0.109659   308676.642969    ;  uncertainty r = 0.000022, k = 1.372181
         3        32     1        0.109659   308676.642969    ;  uncertainty r = 0.000022, k = 1.372181
         4        33     1        0.109659   308676.642969    ;  uncertainty r = 0.000022, k = 1.372181
         4        34     1        0.109659   308676.642969    ;  uncertainty r = 0.000022, k = 1.372181
         4        35     1        0.109659   308676.642969    ;  uncertainty r = 0.000022, k = 1.372181
         5         6     1        0.139993   342791.437549    ;  uncertainty r = 0.000055, k = 3.149911
         5        10     1        0.139700   338297.595801    ;  uncertainty r = 0.000123, k = 7.301107
         6         7     1        0.139237   369140.269482    ;  uncertainty r = 0.000080, k = 6.065488
         6        36     1        0.108722   334842.297217    ;  uncertainty r = 0.000029, k = 1.142352
         7         8     1        0.140556   370764.429639    ;  uncertainty r = 0.000088, k = 8.886515
         7        37     1        0.108972   336335.554150    ;  uncertainty r = 0.000020, k = 1.961542
         8         9     1        0.140580   348886.762500    ;  uncertainty r = 0.000150, k = 26.865167
         8        26     1        0.139955   343991.477393    ;  uncertainty r = 0.000126, k = 9.082273
         9        10     1        0.139506   351465.065674    ;  uncertainty r = 0.000069, k = 4.526229
         9        11     1        0.151140   219659.591406    ;  uncertainty r = 0.000135, k = 8.576939
        10        38     1        0.108815   334998.354492    ;  uncertainty r = 0.000071, k = 3.653158
        11        12     1        0.143377   228456.972363    ;  uncertainty r = 0.000155, k = 7.247613
        11        16     1        0.153627   195602.536279    ;  uncertainty r = 0.000088, k = 12.969362
        11        39     1        0.110152   303302.128467    ;  uncertainty r = 0.000111, k = 3.228048
        12        13     1        0.143168   244780.880029    ;  uncertainty r = 0.000065, k = 3.739102
        13        14     1        0.153178   212664.543018    ;  uncertainty r = 0.000056, k = 6.267561
        13        40     1        0.109789   309021.189648    ;  uncertainty r = 0.000034, k = 2.302443
        13        41     1        0.109789   309021.189648    ;  uncertainty r = 0.000034, k = 2.302443
        14        15     1        0.153534   217236.809229    ;  uncertainty r = 0.000050, k = 3.270349
        14        42     1        0.109705   309216.752832    ;  uncertainty r = 0.000022, k = 1.341909
        14        43     1        0.109705   309216.752832    ;  uncertainty r = 0.000022, k = 1.341909
        15        16     1        0.153450   203518.772046    ;  uncertainty r = 0.000107, k = 7.150166
        15        44     1        0.109614   307449.482715    ;  uncertainty r = 0.000015, k = 1.009302
        15        45     1        0.109614   307449.482715    ;  uncertainty r = 0.000015, k = 1.009302
        16        17     1        0.153774   193571.825342    ;  uncertainty r = 0.000050, k = 9.548430
        16        46     1        0.109725   307252.846973    ;  uncertainty r = 0.000064, k = 4.562683
        17        18     1        0.151625   220169.261035    ;  uncertainty r = 0.000095, k = 8.002029
        17        26     1        0.146385   247740.043652    ;  uncertainty r = 0.000109, k = 18.673899
        17        47     1        0.110046   298390.320850    ;  uncertainty r = 0.000132, k = 4.211492
        18        19     1        0.139754   351462.282129    ;  uncertainty r = 0.000042, k = 1.423057
        18        25     1        0.139854   357090.865332    ;  uncertainty r = 0.000054, k = 2.506831
        19        20     1        0.139317   368233.114746    ;  uncertainty r = 0.000025, k = 2.978643
        19        48     1        0.108767   334031.825977    ;  uncertainty r = 0.000025, k = 1.130937
        20        21     1        0.139383   370661.693848    ;  uncertainty r = 0.000057, k = 3.934397
        20        49     1        0.108855   337114.435986    ;  uncertainty r = 0.000039, k = 1.861880
        21        22     1        0.137310   341331.455469    ;  uncertainty r = 0.000034, k = 8.334363
        21        23     1        0.139322   368329.032129    ;  uncertainty r = 0.000057, k = 6.281971
        22        50     1        0.097367   473576.448926    ;  uncertainty r = 0.000016, k = 2.581571
        23        24     1        0.136278   334048.501709    ;  uncertainty r = 0.000081, k = 2.108426
        23        25     1        0.138474   354157.213281    ;  uncertainty r = 0.000057, k = 4.864982
        25        51     1        0.108794   336573.585547    ;  uncertainty r = 0.000043, k = 1.514414
        26        52     1        0.101439   412844.299707    ;  uncertainty r = 0.000047, k = 2.472828

[ angles ]
;       ai        aj        ak funct           theta             cth
         1         2         3     1      108.458336      575.992949    ;  uncertainty theta = 0.002954, k = 0.058059
         1         2         4     1      108.458336      575.992949    ;  uncertainty theta = 0.002954, k = 0.058059
         1         2         5     1      108.206223      553.041217    ;  uncertainty theta = 0.002231, k = 0.088894
         2         1        27     1      107.702896      383.895439    ;  uncertainty theta = 0.000831, k = 0.040751
         2         1        28     1      107.702896      383.895439    ;  uncertainty theta = 0.000831, k = 0.040751
         2         1        29     1      107.702896      383.895439    ;  uncertainty theta = 0.000831, k = 0.040751
         2         3        30     1      107.702896      383.895439    ;  uncertainty theta = 0.000831, k = 0.040751
         2         3        31     1      107.702896      383.895439    ;  uncertainty theta = 0.000831, k = 0.040751
         2         3        32     1      107.702896      383.895439    ;  uncertainty theta = 0.000831, k = 0.040751
         2         4        33     1      107.702896      383.895439    ;  uncertainty theta = 0.000831, k = 0.040751
         2         4        34     1      107.702896      383.895439    ;  uncertainty theta = 0.000831, k = 0.040751
         2         4        35     1      107.702896      383.895439    ;  uncertainty theta = 0.000831, k = 0.040751
         2         5         6     1      120.109047      398.552559    ;  uncertainty theta = 0.004264, k = 0.135852
         2         5        10     1      119.806641      384.076369    ;  uncertainty theta = 0.004197, k = 0.110948
         3         2         4     1      108.458336      575.992949    ;  uncertainty theta = 0.002954, k = 0.058059
         3         2         5     1      108.206223      553.041217    ;  uncertainty theta = 0.002231, k = 0.088894
         4         2         5     1      108.206223      553.041217    ;  uncertainty theta = 0.002231, k = 0.088894
         5         6         7     1      122.393967      522.473616    ;  uncertainty theta = 0.002616, k = 0.107910
         5         6        36     1      118.233627      267.978062    ;  uncertainty theta = 0.002193, k = 0.135442
         5        10         9     1      124.389503      517.781811    ;  uncertainty theta = 0.003370, k = 0.178894
         5        10        38     1      117.703430      270.875982    ;  uncertainty theta = 0.002530, k = 0.122471
         6         5        10     1      119.761192      460.192150    ;  uncertainty theta = 0.003180, k = 0.102434
         6         7         8     1      120.532883      517.885587    ;  uncertainty theta = 0.002391, k = 0.088136
         6         7        37     1      121.047104      286.721503    ;  uncertainty theta = 0.002259, k = 0.093934
         7         6        36     1      119.129318      294.022626    ;  uncertainty theta = 0.002554, k = 0.038659
         7         8         9     1      118.556580      383.888480    ;  uncertainty theta = 0.004778, k = 0.147699
         7         8        26     1      123.195900      579.546566    ;  uncertainty theta = 0.003901, k = 0.120660
         8         7        37     1      119.057823      279.340257    ;  uncertainty theta = 0.004521, k = 0.179263
         8         9        10     1      120.515137      452.226806    ;  uncertainty theta = 0.006284, k = 0.104613
         8         9        11     1      120.415794      351.816456    ;  uncertainty theta = 0.009651, k = 0.461985
         8        26        17     1      114.187012      391.801951    ;  uncertainty theta = 0.007491, k = 0.140401
         8        26        52     1      111.105759      386.782824    ;  uncertainty theta = 0.005516, k = 0.186771
         9         8        26     1      122.194290      502.597031    ;  uncertainty theta = 0.010067, k = 0.233866
         9        10        38     1      117.408249      276.965337    ;  uncertainty theta = 0.004617, k = 0.131514
         9        11        12     1      109.353409      665.587663    ;  uncertainty theta = 0.004575, k = 0.332702
         9        11        16     1      111.544296      551.923522    ;  uncertainty theta = 0.004568, k = 0.186003
         9        11        39     1      108.387650      392.924978    ;  uncertainty theta = 0.004955, k = 0.093178
        10         9        11     1      119.300781      396.675549    ;  uncertainty theta = 0.004070, k = 0.083047
        11        12        13     1      110.401779      532.300168    ;  uncertainty theta = 0.004560, k = 0.182598
        11        16        15     1      110.013840      581.632437    ;  uncertainty theta = 0.002884, k = 0.110911
        11        16        17     1      109.629944      551.824885    ;  uncertainty theta = 0.004313, k = 0.142366
        11        16        46     1      106.469582      399.712263    ;  uncertainty theta = 0.003053, k = 0.096959
        12        11        16     1      111.093277      674.279857    ;  uncertainty theta = 0.004074, k = 0.049561
        12        11        39     1      106.434341      440.799875    ;  uncertainty theta = 0.004574, k = 0.148273
        12        13        14     1      110.976463      700.365439    ;  uncertainty theta = 0.002752, k = 0.153829
        12        13        40     1      107.002464      457.051022    ;  uncertainty theta = 0.002563, k = 0.135517
        12        13        41     1      107.002464      457.051022    ;  uncertainty theta = 0.002563, k = 0.135517
        13        14        15     1      108.895325      622.021865    ;  uncertainty theta = 0.003135, k = 0.047303
        13        14        42     1      108.338806      394.557948    ;  uncertainty theta = 0.002162, k = 0.073352
        13        14        43     1      108.338806      394.557948    ;  uncertainty theta = 0.002162, k = 0.073352
        14        13        40     1      110.168640      413.776155    ;  uncertainty theta = 0.002719, k = 0.093986
        14        13        41     1      110.168640      413.776155    ;  uncertainty theta = 0.002719, k = 0.093986
        14        15        16     1      109.502563      587.733380    ;  uncertainty theta = 0.002573, k = 0.134699
        14        15        44     1      108.974266      411.308600    ;  uncertainty theta = 0.001957, k = 0.092227
        14        15        45     1      108.974266      411.308600    ;  uncertainty theta = 0.001957, k = 0.092227
        15        14        42     1      109.084801      397.643278    ;  uncertainty theta = 0.001279, k = 0.048915
        15        14        43     1      109.084801      397.643278    ;  uncertainty theta = 0.001279, k = 0.048915
        15        16        17     1      110.621117      548.265331    ;  uncertainty theta = 0.001911, k = 0.179439
        15        16        46     1      108.075058      401.656435    ;  uncertainty theta = 0.003574, k = 0.096487
        16        11        39     1      107.638184      392.202182    ;  uncertainty theta = 0.004453, k = 0.127156
        16        15        44     1      108.080505      388.508877    ;  uncertainty theta = 0.001259, k = 0.065298
        16        15        45     1      108.080505      388.508877    ;  uncertainty theta = 0.001259, k = 0.065298
        16        17        18     1      111.543579      536.844880    ;  uncertainty theta = 0.002609, k = 0.149477
        16        17        26     1      108.464981      703.502546    ;  uncertainty theta = 0.004511, k = 0.110480
        16        17        47     1      107.140182      385.456874    ;  uncertainty theta = 0.002840, k = 0.129676
        17        16        46     1      105.872681      389.722433    ;  uncertainty theta = 0.001478, k = 0.095224
        17        18        19     1      120.342796      426.482846    ;  uncertainty theta = 0.003552, k = 0.120895
        17        18        25     1      119.615356      427.068508    ;  uncertainty theta = 0.003019, k = 0.100514
        17        26        52     1      110.024879      352.037640    ;  uncertainty theta = 0.003524, k = 0.093055
        18        17        26     1      110.869057      656.942777    ;  uncertainty theta = 0.001023, k = 0.176550
        18        17        47     1      106.207664      412.068680    ;  uncertainty theta = 0.002652, k = 0.089757
        18        19        20     1      121.471786      517.972828    ;  uncertainty theta = 0.002148, k = 0.059106
        18        19        48     1      118.893578      266.858531    ;  uncertainty theta = 0.001995, k = 0.076259
        18        25        23     1      120.946793      483.630045    ;  uncertainty theta = 0.002866, k = 0.151475
        18        25        51     1      120.351562      262.937276    ;  uncertainty theta = 0.001179, k = 0.020782
        19        18        25     1      120.437218      466.331526    ;  uncertainty theta = 0.002790, k = 0.094926
        19        20        21     1      119.380051      522.141506    ;  uncertainty theta = 0.001498, k = 0.052391
        19        20        49     1      121.331848      279.629911    ;  uncertainty theta = 0.000970, k = 0.057463
        20        19        48     1      119.628281      290.698046    ;  uncertainty theta = 0.001824, k = 0.067611
        20        21        22     1      122.104050      475.201426    ;  uncertainty theta = 0.002913, k = 0.263633
        20        21        23     1      116.874527      346.931846    ;  uncertainty theta = 0.006593, k = 0.195679
        21        20        49     1      119.092712      293.587123    ;  uncertainty theta = 0.000967, k = 0.089710
        21        22        50     1      110.102539      463.403633    ;  uncertainty theta = 0.004694, k = 0.060318
        21        23        24     1      116.855492      458.393986    ;  uncertainty theta = 0.002445, k = 0.101632
        21        23        25     1      123.157738      360.853720    ;  uncertainty theta = 0.004805, k = 0.222599
        22        21        23     1      122.866005      578.277499    ;  uncertainty theta = 0.002106, k = 0.267839
        23        25        51     1      119.095985      282.588736    ;  uncertainty theta = 0.001043, k = 0.071612
        24        23        25     1      120.189293      511.508301    ;  uncertainty theta = 0.001788, k = 0.058441
        26        17        47     1      107.929588      455.757471    ;  uncertainty theta = 0.003688, k = 0.110368
        27         1        28     1      105.347046      318.192287    ;  uncertainty theta = 0.000899, k = 0.012007
        27         1        29     1      105.347046      318.192287    ;  uncertainty theta = 0.000899, k = 0.012007
        28         1        29     1      105.347046      318.192287    ;  uncertainty theta = 0.000899, k = 0.012007
        30         3        31     1      105.347046      318.192287    ;  uncertainty theta = 0.000899, k = 0.012007
        30         3        32     1      105.347046      318.192287    ;  uncertainty theta = 0.000899, k = 0.012007
        31         3        32     1      105.347046      318.192287    ;  uncertainty theta = 0.000899, k = 0.012007
        33         4        34     1      105.347046      318.192287    ;  uncertainty theta = 0.000899, k = 0.012007
        33         4        35     1      105.347046      318.192287    ;  uncertainty theta = 0.000899, k = 0.012007
        34         4        35     1      105.347046      318.192287    ;  uncertainty theta = 0.000899, k = 0.012007
        40        13        41     1      106.657860      326.870818    ;  uncertainty theta = 0.001578, k = 0.083868
        42        14        43     1      104.879105      311.636177    ;  uncertainty theta = 0.001144, k = 0.054355
        44        15        45     1      104.421707      316.120302    ;  uncertainty theta = 0.002040, k = 0.027811

[ dihedrals ] ; propers for gromacs 4.5 or higher, use funct 9
;       ai        aj        ak        al funct           phase               k        pn
         1         2         3        30     9        0.000000       -1.188573         1    ;  uncertainty k = 0.286327
         1         2         3        30     9      180.000000       -0.229296         2    ;  uncertainty k = 0.093120
         1         2         3        30     9        0.000000        0.805967         3    ;  uncertainty k = 0.037188
         1         2         3        30     9      180.000000       -0.066025         4    ;  uncertainty k = 0.043591
         1         2         3        31     9        0.000000       -1.188573         1    ;  uncertainty k = 0.286327
         1         2         3        31     9      180.000000       -0.229296         2    ;  uncertainty k = 0.093120
         1         2         3        31     9        0.000000        0.805967         3    ;  uncertainty k = 0.037188
         1         2         3        31     9      180.000000       -0.066025         4    ;  uncertainty k = 0.043591
         1         2         3        32     9        0.000000       -1.188573         1    ;  uncertainty k = 0.286327
         1         2         3        32     9      180.000000       -0.229296         2    ;  uncertainty k = 0.093120
         1         2         3        32     9        0.000000        0.805967         3    ;  uncertainty k = 0.037188
         1         2         3        32     9      180.000000       -0.066025         4    ;  uncertainty k = 0.043591
         1         2         4        33     9        0.000000       -1.188573         1    ;  uncertainty k = 0.286327
         1         2         4        33     9      180.000000       -0.229296         2    ;  uncertainty k = 0.093120
         1         2         4        33     9        0.000000        0.805967         3    ;  uncertainty k = 0.037188
         1         2         4        33     9      180.000000       -0.066025         4    ;  uncertainty k = 0.043591
         1         2         4        34     9        0.000000       -1.188573         1    ;  uncertainty k = 0.286327
         1         2         4        34     9      180.000000       -0.229296         2    ;  uncertainty k = 0.093120
         1         2         4        34     9        0.000000        0.805967         3    ;  uncertainty k = 0.037188
         1         2         4        34     9      180.000000       -0.066025         4    ;  uncertainty k = 0.043591
         1         2         4        35     9        0.000000       -1.188573         1    ;  uncertainty k = 0.286327
         1         2         4        35     9      180.000000       -0.229296         2    ;  uncertainty k = 0.093120
         1         2         4        35     9        0.000000        0.805967         3    ;  uncertainty k = 0.037188
         1         2         4        35     9      180.000000       -0.066025         4    ;  uncertainty k = 0.043591
         1         2         5         6     9        0.000000       -0.257729         1    ;  uncertainty k = 0.371272
         1         2         5         6     9      180.000000        2.542545         2    ;  uncertainty k = 0.166545
         1         2         5         6     9        0.000000        0.361656         3    ;  uncertainty k = 0.070149
         1         2         5         6     9      180.000000        0.359540         4    ;  uncertainty k = 0.061766
         1         2         5        10     9        0.000000       -0.123494         1    ;  uncertainty k = 0.475832
         1         2         5        10     9      180.000000        2.583715         2    ;  uncertainty k = 0.233642
         1         2         5        10     9        0.000000        0.303046         3    ;  uncertainty k = 0.103944
         1         2         5        10     9      180.000000        0.385902         4    ;  uncertainty k = 0.055046
         2         5         6         7     9        0.000000        0.171939         1    ;  uncertainty k = 0.238000
         2         5         6         7     9      180.000000        8.086207         2    ;  uncertainty k = 0.335582
         2         5         6         7     9        0.000000        1.350918         3    ;  uncertainty k = 0.274556
         2         5         6         7     9      180.000000        1.836981         4    ;  uncertainty k = 0.170914
         2         5         6        36     9        0.000000       -0.322151         1    ;  uncertainty k = 0.625487
         2         5         6        36     9      180.000000        7.620869         2    ;  uncertainty k = 0.555706
         2         5         6        36     9        0.000000        0.560175         3    ;  uncertainty k = 0.260777
         2         5         6        36     9      180.000000        0.966847         4    ;  uncertainty k = 0.215082
         2         5        10         9     9        0.000000        0.053312         1    ;  uncertainty k = 0.148911
         2         5        10         9     9      180.000000        8.798372         2    ;  uncertainty k = 0.444984
         2         5        10         9     9        0.000000        1.286363         3    ;  uncertainty k = 0.240884
         2         5        10         9     9      180.000000        1.689620         4    ;  uncertainty k = 0.135796
         2         5        10        38     9        0.000000       -0.224769         1    ;  uncertainty k = 0.659056
         2         5        10        38     9      180.000000        7.875344         2    ;  uncertainty k = 0.558845
         2         5        10        38     9        0.000000        0.633676         3    ;  uncertainty k = 0.256250
         2         5        10        38     9      180.000000        1.051674         4    ;  uncertainty k = 0.159944
         3         2         1        27     9        0.000000       -1.188573         1    ;  uncertainty k = 0.286327
         3         2         1        27     9      180.000000       -0.229296         2    ;  uncertainty k = 0.093120
         3         2         1        27     9        0.000000        0.805967         3    ;  uncertainty k = 0.037188
         3         2         1        27     9      180.000000       -0.066025         4    ;  uncertainty k = 0.043591
         3         2         1        28     9        0.000000       -1.188573         1    ;  uncertainty k = 0.286327
         3         2         1        28     9      180.000000       -0.229296         2    ;  uncertainty k = 0.093120
         3         2         1        28     9        0.000000        0.805967         3    ;  uncertainty k = 0.037188
         3         2         1        28     9      180.000000       -0.066025         4    ;  uncertainty k = 0.043591
         3         2         1        29     9        0.000000       -1.188573         1    ;  uncertainty k = 0.286327
         3         2         1        29     9      180.000000       -0.229296         2    ;  uncertainty k = 0.093120
         3         2         1        29     9        0.000000        0.805967         3    ;  uncertainty k = 0.037188
         3         2         1        29     9      180.000000       -0.066025         4    ;  uncertainty k = 0.043591
         3         2         4        33     9        0.000000       -1.188573         1    ;  uncertainty k = 0.286327
         3         2         4        33     9      180.000000       -0.229296         2    ;  uncertainty k = 0.093120
         3         2         4        33     9        0.000000        0.805967         3    ;  uncertainty k = 0.037188
         3         2         4        33     9      180.000000       -0.066025         4    ;  uncertainty k = 0.043591
         3         2         4        34     9        0.000000       -1.188573         1    ;  uncertainty k = 0.286327
         3         2         4        34     9      180.000000       -0.229296         2    ;  uncertainty k = 0.093120
         3         2         4        34     9        0.000000        0.805967         3    ;  uncertainty k = 0.037188
         3         2         4        34     9      180.000000       -0.066025         4    ;  uncertainty k = 0.043591
         3         2         4        35     9        0.000000       -1.188573         1    ;  uncertainty k = 0.286327
         3         2         4        35     9      180.000000       -0.229296         2    ;  uncertainty k = 0.093120
         3         2         4        35     9        0.000000        0.805967         3    ;  uncertainty k = 0.037188
         3         2         4        35     9      180.000000       -0.066025         4    ;  uncertainty k = 0.043591
         3         2         5         6     9        0.000000       -0.257729         1    ;  uncertainty k = 0.371272
         3         2         5         6     9      180.000000        2.542545         2    ;  uncertainty k = 0.166545
         3         2         5         6     9        0.000000        0.361656         3    ;  uncertainty k = 0.070149
         3         2         5         6     9      180.000000        0.359540         4    ;  uncertainty k = 0.061766
         3         2         5        10     9        0.000000       -0.123494         1    ;  uncertainty k = 0.475832
         3         2         5        10     9      180.000000        2.583715         2    ;  uncertainty k = 0.233642
         3         2         5        10     9        0.000000        0.303046         3    ;  uncertainty k = 0.103944
         3         2         5        10     9      180.000000        0.385902         4    ;  uncertainty k = 0.055046
         4         2         1        27     9        0.000000       -1.188573         1    ;  uncertainty k = 0.286327
         4         2         1        27     9      180.000000       -0.229296         2    ;  uncertainty k = 0.093120
         4         2         1        27     9        0.000000        0.805967         3    ;  uncertainty k = 0.037188
         4         2         1        27     9      180.000000       -0.066025         4    ;  uncertainty k = 0.043591
         4         2         1        28     9        0.000000       -1.188573         1    ;  uncertainty k = 0.286327
         4         2         1        28     9      180.000000       -0.229296         2    ;  uncertainty k = 0.093120
         4         2         1        28     9        0.000000        0.805967         3    ;  uncertainty k = 0.037188
         4         2         1        28     9      180.000000       -0.066025         4    ;  uncertainty k = 0.043591
         4         2         1        29     9        0.000000       -1.188573         1    ;  uncertainty k = 0.286327
         4         2         1        29     9      180.000000       -0.229296         2    ;  uncertainty k = 0.093120
         4         2         1        29     9        0.000000        0.805967         3    ;  uncertainty k = 0.037188
         4         2         1        29     9      180.000000       -0.066025         4    ;  uncertainty k = 0.043591
         4         2         3        30     9        0.000000       -1.188573         1    ;  uncertainty k = 0.286327
         4         2         3        30     9      180.000000       -0.229296         2    ;  uncertainty k = 0.093120
         4         2         3        30     9        0.000000        0.805967         3    ;  uncertainty k = 0.037188
         4         2         3        30     9      180.000000       -0.066025         4    ;  uncertainty k = 0.043591
         4         2         3        31     9        0.000000       -1.188573         1    ;  uncertainty k = 0.286327
         4         2         3        31     9      180.000000       -0.229296         2    ;  uncertainty k = 0.093120
         4         2         3        31     9        0.000000        0.805967         3    ;  uncertainty k = 0.037188
         4         2         3        31     9      180.000000       -0.066025         4    ;  uncertainty k = 0.043591
         4         2         3        32     9        0.000000       -1.188573         1    ;  uncertainty k = 0.286327
         4         2         3        32     9      180.000000       -0.229296         2    ;  uncertainty k = 0.093120
         4         2         3        32     9        0.000000        0.805967         3    ;  uncertainty k = 0.037188
         4         2         3        32     9      180.000000       -0.066025         4    ;  uncertainty k = 0.043591
         4         2         5         6     9        0.000000       -0.257729         1    ;  uncertainty k = 0.371272
         4         2         5         6     9      180.000000        2.542545         2    ;  uncertainty k = 0.166545
         4         2         5         6     9        0.000000        0.361656         3    ;  uncertainty k = 0.070149
         4         2         5         6     9      180.000000        0.359540         4    ;  uncertainty k = 0.061766
         4         2         5        10     9        0.000000       -0.123494         1    ;  uncertainty k = 0.475832
         4         2         5        10     9      180.000000        2.583715         2    ;  uncertainty k = 0.233642
         4         2         5        10     9        0.000000        0.303046         3    ;  uncertainty k = 0.103944
         4         2         5        10     9      180.000000        0.385902         4    ;  uncertainty k = 0.055046
         5         2         1        27     9        0.000000        0.794441         1    ;  uncertainty k = 0.477538
         5         2         1        27     9      180.000000       -0.515178         2    ;  uncertainty k = 0.038670
         5         2         1        27     9        0.000000        0.711171         3    ;  uncertainty k = 0.051879
         5         2         1        27     9      180.000000        0.033782         4    ;  uncertainty k = 0.064289
         5         2         1        28     9        0.000000        0.794441         1    ;  uncertainty k = 0.477538
         5         2         1        28     9      180.000000       -0.515178         2    ;  uncertainty k = 0.038670
         5         2         1        28     9        0.000000        0.711171         3    ;  uncertainty k = 0.051879
         5         2         1        28     9      180.000000        0.033782         4    ;  uncertainty k = 0.064289
         5         2         1        29     9        0.000000        0.794441         1    ;  uncertainty k = 0.477538
         5         2         1        29     9      180.000000       -0.515178         2    ;  uncertainty k = 0.038670
         5         2         1        29     9        0.000000        0.711171         3    ;  uncertainty k = 0.051879
         5         2         1        29     9      180.000000        0.033782         4    ;  uncertainty k = 0.064289
         5         2         3        30     9        0.000000        0.794441         1    ;  uncertainty k = 0.477538
         5         2         3        30     9      180.000000       -0.515178         2    ;  uncertainty k = 0.038670
         5         2         3        30     9        0.000000        0.711171         3    ;  uncertainty k = 0.051879
         5         2         3        30     9      180.000000        0.033782         4    ;  uncertainty k = 0.064289
         5         2         3        31     9        0.000000        0.794441         1    ;  uncertainty k = 0.477538
         5         2         3        31     9      180.000000       -0.515178         2    ;  uncertainty k = 0.038670
         5         2         3        31     9        0.000000        0.711171         3    ;  uncertainty k = 0.051879
         5         2         3        31     9      180.000000        0.033782         4    ;  uncertainty k = 0.064289
         5         2         3        32     9        0.000000        0.794441         1    ;  uncertainty k = 0.477538
         5         2         3        32     9      180.000000       -0.515178         2    ;  uncertainty k = 0.038670
         5         2         3        32     9        0.000000        0.711171         3    ;  uncertainty k = 0.051879
         5         2         3        32     9      180.000000        0.033782         4    ;  uncertainty k = 0.064289
         5         2         4        33     9        0.000000        0.794441         1    ;  uncertainty k = 0.477538
         5         2         4        33     9      180.000000       -0.515178         2    ;  uncertainty k = 0.038670
         5         2         4        33     9        0.000000        0.711171         3    ;  uncertainty k = 0.051879
         5         2         4        33     9      180.000000        0.033782         4    ;  uncertainty k = 0.064289
         5         2         4        34     9        0.000000        0.794441         1    ;  uncertainty k = 0.477538
         5         2         4        34     9      180.000000       -0.515178         2    ;  uncertainty k = 0.038670
         5         2         4        34     9        0.000000        0.711171         3    ;  uncertainty k = 0.051879
         5         2         4        34     9      180.000000        0.033782         4    ;  uncertainty k = 0.064289
         5         2         4        35     9        0.000000        0.794441         1    ;  uncertainty k = 0.477538
         5         2         4        35     9      180.000000       -0.515178         2    ;  uncertainty k = 0.038670
         5         2         4        35     9        0.000000        0.711171         3    ;  uncertainty k = 0.051879
         5         2         4        35     9      180.000000        0.033782         4    ;  uncertainty k = 0.064289
         5         6         7         8     9        0.000000       -0.155468         1    ;  uncertainty k = 0.135277
         5         6         7         8     9      180.000000       13.414342         2    ;  uncertainty k = 0.323258
         5         6         7         8     9        0.000000       -0.600785         3    ;  uncertainty k = 0.543739
         5         6         7         8     9      180.000000        0.829597         4    ;  uncertainty k = 0.308178
         5         6         7        37     9        0.000000        0.062469         1    ;  uncertainty k = 0.250550
         5         6         7        37     9      180.000000        7.894300         2    ;  uncertainty k = 0.351151
         5         6         7        37     9        0.000000        1.433526         3    ;  uncertainty k = 0.283966
         5         6         7        37     9      180.000000        1.906668         4    ;  uncertainty k = 0.257360
         5        10         9         8     9        0.000000       -0.121505         1    ;  uncertainty k = 0.286778
         5        10         9         8     9      180.000000       11.743888         2    ;  uncertainty k = 0.405583
         5        10         9         8     9        0.000000       -0.311967         3    ;  uncertainty k = 0.505001
         5        10         9         8     9      180.000000        0.875857         4    ;  uncertainty k = 0.435062
         5        10         9        11     9        0.000000        0.013383         1    ;  uncertainty k = 0.445548
         5        10         9        11     9      180.000000        9.254939         2    ;  uncertainty k = 0.334286
         5        10         9        11     9        0.000000        1.311777         3    ;  uncertainty k = 0.203088
         5        10         9        11     9      180.000000        1.906218         4    ;  uncertainty k = 0.362906
         6         5        10         9     9        0.000000        0.061746         1    ;  uncertainty k = 0.262957
         6         5        10         9     9      180.000000       10.762515         2    ;  uncertainty k = 0.434453
         6         5        10         9     9        0.000000       -0.025899         3    ;  uncertainty k = 0.549492
         6         5        10         9     9      180.000000        1.078473         4    ;  uncertainty k = 0.491455
         6         5        10        38     9        0.000000        0.104356         1    ;  uncertainty k = 0.175314
         6         5        10        38     9      180.000000        7.746722         2    ;  uncertainty k = 0.371621
         6         5        10        38     9        0.000000        1.470945         3    ;  uncertainty k = 0.342446
         6         5        10        38     9      180.000000        1.696370         4    ;  uncertainty k = 0.172368
         6         7         8         9     9        0.000000        0.168773         1    ;  uncertainty k = 0.190884
         6         7         8         9     9      180.000000        7.830165         2    ;  uncertainty k = 0.539535
         6         7         8         9     9        0.000000        0.272536         3    ;  uncertainty k = 0.564024
         6         7         8         9     9      180.000000        1.353460         4    ;  uncertainty k = 0.180183
         6         7         8        26     9        0.000000        0.275061         1    ;  uncertainty k = 0.339155
         6         7         8        26     9      180.000000       10.446242         2    ;  uncertainty k = 0.469378
         6         7         8        26     9        0.000000        1.235221         3    ;  uncertainty k = 0.221334
         6         7         8        26     9      180.000000        1.643603         4    ;  uncertainty k = 0.226734
         7         6         5        10     9        0.000000       -0.191051         1    ;  uncertainty k = 0.058965
         7         6         5        10     9      180.000000       11.166450         2    ;  uncertainty k = 0.404883
         7         6         5        10     9        0.000000       -0.347580         3    ;  uncertainty k = 0.214175
         7         6         5        10     9      180.000000        0.958059         4    ;  uncertainty k = 0.255737
         7         8         9        10     9        0.000000        0.269323         1    ;  uncertainty k = 0.141584
         7         8         9        10     9      180.000000        6.202778         2    ;  uncertainty k = 0.549287
         7         8         9        10     9        0.000000        0.313409         3    ;  uncertainty k = 0.458873
         7         8         9        10     9      180.000000        1.318736         4    ;  uncertainty k = 0.218555
         7         8         9        11     9        0.000000        0.544770         1    ;  uncertainty k = 0.513661
         7         8         9        11     9      180.000000        5.606421         2    ;  uncertainty k = 0.506183
         7         8         9        11     9        0.000000        1.284269         3    ;  uncertainty k = 0.226982
         7         8         9        11     9      180.000000        1.590145         4    ;  uncertainty k = 0.290254
         7         8        26        17     9        0.000000        0.591050         1    ;  uncertainty k = 0.748692
         7         8        26        17     9      180.000000        3.798623         2    ;  uncertainty k = 0.929031
         7         8        26        17     9        0.000000        0.419239         3    ;  uncertainty k = 0.535218
         7         8        26        17     9      180.000000        0.390286         4    ;  uncertainty k = 0.268728
         7         8        26        52     9        0.000000        1.703197         1    ;  uncertainty k = 0.593671
         7         8        26        52     9      180.000000        4.585995         2    ;  uncertainty k = 0.346052
         7         8        26        52     9        0.000000        0.705300         3    ;  uncertainty k = 0.296874
         7         8        26        52     9      180.000000        0.009232         4    ;  uncertainty k = 0.176095
         8         7         6        36     9        0.000000        0.296133         1    ;  uncertainty k = 0.490824
         8         7         6        36     9      180.000000        9.215280         2    ;  uncertainty k = 0.526918
         8         7         6        36     9        0.000000        1.248290         3    ;  uncertainty k = 0.298927
         8         7         6        36     9      180.000000        1.573102         4    ;  uncertainty k = 0.321454
         8         9        10        38     9        0.000000        0.175805         1    ;  uncertainty k = 0.390708
         8         9        10        38     9      180.000000        8.355138         2    ;  uncertainty k = 0.472430
         8         9        10        38     9        0.000000        1.391218         3    ;  uncertainty k = 0.272198
         8         9        10        38     9      180.000000        1.534010         4    ;  uncertainty k = 0.205224
         8         9        11        12     9        0.000000       -1.797039         1    ;  uncertainty k = 2.413557
         8         9        11        12     9      180.000000        0.364145         2    ;  uncertainty k = 1.185535
         8         9        11        12     9        0.000000        1.554173         3    ;  uncertainty k = 0.299615
         8         9        11        12     9      180.000000       -0.028100         4    ;  uncertainty k = 0.190502
         8         9        11        16     9        0.000000        0.263986         1    ;  uncertainty k = 2.611129
         8         9        11        16     9      180.000000       -0.412873         2    ;  uncertainty k = 1.514091
         8         9        11        16     9        0.000000        0.181604         3    ;  uncertainty k = 0.559095
         8         9        11        16     9      180.000000        0.676430         4    ;  uncertainty k = 0.227974
         8         9        11        39     9        0.000000       -0.308199         1    ;  uncertainty k = 0.714999
         8         9        11        39     9      180.000000        2.097654         2    ;  uncertainty k = 0.274265
         8         9        11        39     9        0.000000        0.466852         3    ;  uncertainty k = 0.208972
         8         9        11        39     9      180.000000       -0.202948         4    ;  uncertainty k = 0.135341
         8        26        17        16     9        0.000000        0.706947         1    ;  uncertainty k = 1.221099
         8        26        17        16     9      180.000000        0.255429         2    ;  uncertainty k = 0.573821
         8        26        17        16     9        0.000000        0.367111         3    ;  uncertainty k = 0.266553
         8        26        17        16     9      180.000000        0.143990         4    ;  uncertainty k = 0.155505
         8        26        17        18     9        0.000000       -1.161280         1    ;  uncertainty k = 0.875347
         8        26        17        18     9      180.000000        0.054996         2    ;  uncertainty k = 0.255415
         8        26        17        18     9        0.000000        1.027448         3    ;  uncertainty k = 0.283432
         8        26        17        18     9      180.000000        0.190155         4    ;  uncertainty k = 0.112086
         8        26        17        47     9        0.000000       -0.861356         1    ;  uncertainty k = 0.375633
         8        26        17        47     9      180.000000       -0.521703         2    ;  uncertainty k = 0.440997
         8        26        17        47     9        0.000000        0.716916         3    ;  uncertainty k = 0.163152
         8        26        17        47     9      180.000000        0.203989         4    ;  uncertainty k = 0.098279
         9         8         7        37     9        0.000000        0.101974         1    ;  uncertainty k = 0.915912
         9         8         7        37     9      180.000000        6.129402         2    ;  uncertainty k = 0.676417
         9         8         7        37     9        0.000000        1.299071         3    ;  uncertainty k = 0.313960
         9         8         7        37     9      180.000000        1.283877         4    ;  uncertainty k = 0.186152
         9         8        26        17     9        0.000000        4.167632         1    ;  uncertainty k = 1.961294
         9         8        26        17     9      180.000000        1.730107         2    ;  uncertainty k = 0.799672
         9         8        26        17     9        0.000000        0.014833         3    ;  uncertainty k = 0.406938
         9         8        26        17     9      180.000000        0.712159         4    ;  uncertainty k = 0.245228
         9         8        26        52     9        0.000000       11.971116         1    ;  uncertainty k = 0.596969
         9         8        26        52     9      180.000000        4.831488         2    ;  uncertainty k = 0.466234
         9         8        26        52     9        0.000000        0.184242         3    ;  uncertainty k = 0.226557
         9         8        26        52     9      180.000000        0.229650         4    ;  uncertainty k = 0.167452
         9        11        12        13     9        0.000000       -2.908905         1    ;  uncertainty k = 1.268600
         9        11        12        13     9      180.000000       -0.556788         2    ;  uncertainty k = 0.431008
         9        11        12        13     9        0.000000        1.020761         3    ;  uncertainty k = 0.599231
         9        11        12        13     9      180.000000       -0.075934         4    ;  uncertainty k = 0.116471
         9        11        16        15     9        0.000000       -1.405917         1    ;  uncertainty k = 1.099569
         9        11        16        15     9      180.000000       -1.085850         2    ;  uncertainty k = 0.304044
         9        11        16        15     9        0.000000        0.685334         3    ;  uncertainty k = 0.205556
         9        11        16        15     9      180.000000       -0.205197         4    ;  uncertainty k = 0.171377
         9        11        16        17     9        0.000000        1.352728         1    ;  uncertainty k = 1.477607
         9        11        16        17     9      180.000000       -2.403664         2    ;  uncertainty k = 0.208934
         9        11        16        17     9        0.000000        0.286731         3    ;  uncertainty k = 0.239260
         9        11        16        17     9      180.000000       -0.099764         4    ;  uncertainty k = 0.136969
         9        11        16        46     9        0.000000       -0.381405         1    ;  uncertainty k = 1.096007
         9        11        16        46     9      180.000000        0.800572         2    ;  uncertainty k = 0.529471
         9        11        16        46     9        0.000000        0.020161         3    ;  uncertainty k = 0.085891
         9        11        16        46     9      180.000000       -0.066535         4    ;  uncertainty k = 0.112541
        10         5         6        36     9        0.000000        0.151317         1    ;  uncertainty k = 0.166030
        10         5         6        36     9      180.000000        7.285280         2    ;  uncertainty k = 0.645949
        10         5         6        36     9        0.000000        1.357278         3    ;  uncertainty k = 0.319034
        10         5         6        36     9      180.000000        1.619462         4    ;  uncertainty k = 0.231962
        10         9         8        26     9        0.000000        0.551613         1    ;  uncertainty k = 0.588267
        10         9         8        26     9      180.000000        7.811741         2    ;  uncertainty k = 0.289915
        10         9         8        26     9        0.000000        0.985498         3    ;  uncertainty k = 0.155573
        10         9         8        26     9      180.000000        1.311522         4    ;  uncertainty k = 0.365226
        10         9        11        12     9        0.000000        0.029504         1    ;  uncertainty k = 0.537850
        10         9        11        12     9      180.000000        1.518645         2    ;  uncertainty k = 0.603396
        10         9        11        12     9        0.000000       -0.247888         3    ;  uncertainty k = 0.393516
        10         9        11        12     9      180.000000        0.099463         4    ;  uncertainty k = 0.154523
        10         9        11        16     9        0.000000       -1.690293         1    ;  uncertainty k = 0.850027
        10         9        11        16     9      180.000000       -0.016531         2    ;  uncertainty k = 0.538473
        10         9        11        16     9        0.000000       -0.220831         3    ;  uncertainty k = 0.173201
        10         9        11        16     9      180.000000        0.411700         4    ;  uncertainty k = 0.145653
        10         9        11        39     9        0.000000        0.532042         1    ;  uncertainty k = 0.855853
        10         9        11        39     9      180.000000        1.861813         2    ;  uncertainty k = 0.393114
        10         9        11        39     9        0.000000        0.083067         3    ;  uncertainty k = 0.146567
        10         9        11        39     9      180.000000       -0.015524         4    ;  uncertainty k = 0.138656
        11         9         8        26     9        0.000000       -0.048994         1    ;  uncertainty k = 0.566919
        11         9         8        26     9      180.000000        7.554264         2    ;  uncertainty k = 0.981122
        11         9         8        26     9        0.000000        0.686328         3    ;  uncertainty k = 0.535367
        11         9         8        26     9      180.000000        1.171150         4    ;  uncertainty k = 0.480820
        11         9        10        38     9        0.000000       -0.261558         1    ;  uncertainty k = 0.472481
        11         9        10        38     9      180.000000        8.276882         2    ;  uncertainty k = 0.669561
        11         9        10        38     9        0.000000        0.792831         3    ;  uncertainty k = 0.291965
        11         9        10        38     9      180.000000        1.141421         4    ;  uncertainty k = 0.436595
        11        12        13        14     9        0.000000       -1.126437         1    ;  uncertainty k = 2.457225
        11        12        13        14     9      180.000000       -0.873610         2    ;  uncertainty k = 1.147945
        11        12        13        14     9        0.000000        0.501840         3    ;  uncertainty k = 0.360693
        11        12        13        14     9      180.000000       -0.008709         4    ;  uncertainty k = 0.156777
        11        12        13        40     9        0.000000       -3.571317         1    ;  uncertainty k = 1.523572
        11        12        13        40     9      180.000000       -0.555371         2    ;  uncertainty k = 0.291500
        11        12        13        40     9        0.000000        0.353963         3    ;  uncertainty k = 0.223686
        11        12        13        40     9      180.000000       -0.116305         4    ;  uncertainty k = 0.126924
        11        12        13        41     9        0.000000       -3.571317         1    ;  uncertainty k = 1.523572
        11        12        13        41     9      180.000000       -0.555371         2    ;  uncertainty k = 0.291500
        11        12        13        41     9        0.000000        0.353963         3    ;  uncertainty k = 0.223686
        11        12        13        41     9      180.000000       -0.116305         4    ;  uncertainty k = 0.126924
        11        16        15        14     9        0.000000       -3.633298         1    ;  uncertainty k = 0.319439
        11        16        15        14     9      180.000000        0.033971         2    ;  uncertainty k = 0.526050
        11        16        15        14     9        0.000000        1.108029         3    ;  uncertainty k = 0.235192
        11        16        15        14     9      180.000000       -0.828261         4    ;  uncertainty k = 0.113799
        11        16        15        44     9        0.000000       -0.463214         1    ;  uncertainty k = 0.384421
        11        16        15        44     9      180.000000       -0.656605         2    ;  uncertainty k = 0.117714
        11        16        15        44     9        0.000000        0.334480         3    ;  uncertainty k = 0.109150
        11        16        15        44     9      180.000000       -0.006047         4    ;  uncertainty k = 0.043439
        11        16        15        45     9        0.000000       -0.463214         1    ;  uncertainty k = 0.384421
        11        16        15        45     9      180.000000       -0.656605         2    ;  uncertainty k = 0.117714
        11        16        15        45     9        0.000000        0.334480         3    ;  uncertainty k = 0.109150
        11        16        15        45     9      180.000000       -0.006047         4    ;  uncertainty k = 0.043439
        11        16        17        18     9        0.000000       -0.536910         1    ;  uncertainty k = 0.981242
        11        16        17        18     9      180.000000       -0.349205         2    ;  uncertainty k = 0.423077
        11        16        17        18     9        0.000000        0.395482         3    ;  uncertainty k = 0.190757
        11        16        17        18     9      180.000000       -0.037894         4    ;  uncertainty k = 0.160378
        11        16        17        26     9        0.000000        0.095413         1    ;  uncertainty k = 1.968553
        11        16        17        26     9      180.000000       -1.214691         2    ;  uncertainty k = 0.284060
        11        16        17        26     9        0.000000        0.556495         3    ;  uncertainty k = 0.434950
        11        16        17        26     9      180.000000       -0.172821         4    ;  uncertainty k = 0.369237
        11        16        17        47     9        0.000000        0.746250         1    ;  uncertainty k = 0.728092
        11        16        17        47     9      180.000000       -1.369924         2    ;  uncertainty k = 0.734102
        11        16        17        47     9        0.000000       -0.440285         3    ;  uncertainty k = 0.151806
        11        16        17        47     9      180.000000        0.031848         4    ;  uncertainty k = 0.150323
        12        11        16        15     9        0.000000       -0.879172         1    ;  uncertainty k = 0.686607
        12        11        16        15     9      180.000000       -2.100558         2    ;  uncertainty k = 0.902972
        12        11        16        15     9        0.000000        0.990224         3    ;  uncertainty k = 0.204771
        12        11        16        15     9      180.000000       -0.053501         4    ;  uncertainty k = 0.198396
        12        11        16        17     9        0.000000       -0.356588         1    ;  uncertainty k = 1.367098
        12        11        16        17     9      180.000000       -3.890252         2    ;  uncertainty k = 1.369052
        12        11        16        17     9        0.000000        0.764550         3    ;  uncertainty k = 0.292085
        12        11        16        17     9      180.000000        0.111499         4    ;  uncertainty k = 0.252469
        12        11        16        46     9        0.000000       -0.677445         1    ;  uncertainty k = 0.589245
        12        11        16        46     9      180.000000        0.580888         2    ;  uncertainty k = 0.560669
        12        11        16        46     9        0.000000        0.181308         3    ;  uncertainty k = 0.288898
        12        11        16        46     9      180.000000       -0.140361         4    ;  uncertainty k = 0.144928
        12        13        14        15     9        0.000000       -2.462343         1    ;  uncertainty k = 0.959864
        12        13        14        15     9      180.000000       -1.583771         2    ;  uncertainty k = 0.556787
        12        13        14        15     9        0.000000        1.769043         3    ;  uncertainty k = 0.448300
        12        13        14        15     9      180.000000       -0.736934         4    ;  uncertainty k = 0.190753
        12        13        14        42     9        0.000000       -1.395870         1    ;  uncertainty k = 0.482616
        12        13        14        42     9      180.000000       -0.573586         2    ;  uncertainty k = 0.311178
        12        13        14        42     9        0.000000        1.274117         3    ;  uncertainty k = 0.171801
        12        13        14        42     9      180.000000       -0.148010         4    ;  uncertainty k = 0.122827
        12        13        14        43     9        0.000000       -1.395870         1    ;  uncertainty k = 0.482616
        12        13        14        43     9      180.000000       -0.573586         2    ;  uncertainty k = 0.311178
        12        13        14        43     9        0.000000        1.274117         3    ;  uncertainty k = 0.171801
        12        13        14        43     9      180.000000       -0.148010         4    ;  uncertainty k = 0.122827
        13        12        11        16     9        0.000000        3.388591         1    ;  uncertainty k = 1.678269
        13        12        11        16     9      180.000000       -1.838023         2    ;  uncertainty k = 0.753843
        13        12        11        16     9        0.000000        0.451292         3    ;  uncertainty k = 0.320364
        13        12        11        16     9      180.000000       -0.116879         4    ;  uncertainty k = 0.181906
        13        12        11        39     9        0.000000       -1.927134         1    ;  uncertainty k = 0.661958
        13        12        11        39     9      180.000000       -0.668882         2    ;  uncertainty k = 0.415430
        13        12        11        39     9        0.000000        0.507916         3    ;  uncertainty k = 0.022181
        13        12        11        39     9      180.000000       -0.094004         4    ;  uncertainty k = 0.161652
        13        14        15        16     9        0.000000       -5.960722         1    ;  uncertainty k = 1.129844
        13        14        15        16     9      180.000000       -0.066990         2    ;  uncertainty k = 0.851797
        13        14        15        16     9        0.000000        1.295417         3    ;  uncertainty k = 0.243440
        13        14        15        16     9      180.000000       -0.987255         4    ;  uncertainty k = 0.110698
        13        14        15        44     9        0.000000       -1.379071         1    ;  uncertainty k = 0.539158
        13        14        15        44     9      180.000000       -0.451203         2    ;  uncertainty k = 0.251637
        13        14        15        44     9        0.000000        0.450841         3    ;  uncertainty k = 0.147828
        13        14        15        44     9      180.000000        0.054343         4    ;  uncertainty k = 0.041244
        13        14        15        45     9        0.000000       -1.379071         1    ;  uncertainty k = 0.539158
        13        14        15        45     9      180.000000       -0.451203         2    ;  uncertainty k = 0.251637
        13        14        15        45     9        0.000000        0.450841         3    ;  uncertainty k = 0.147828
        13        14        15        45     9      180.000000        0.054343         4    ;  uncertainty k = 0.041244
        14        15        16        17     9        0.000000       -3.537695         1    ;  uncertainty k = 0.641473
        14        15        16        17     9      180.000000        0.042415         2    ;  uncertainty k = 0.228335
        14        15        16        17     9        0.000000        1.221527         3    ;  uncertainty k = 0.134808
        14        15        16        17     9      180.000000       -0.579234         4    ;  uncertainty k = 0.183471
        14        15        16        46     9        0.000000       -2.362527         1    ;  uncertainty k = 0.524247
        14        15        16        46     9      180.000000        0.198730         2    ;  uncertainty k = 0.350955
        14        15        16        46     9        0.000000        0.081586         3    ;  uncertainty k = 0.053915
        14        15        16        46     9      180.000000       -0.090244         4    ;  uncertainty k = 0.068935
        15        14        13        40     9        0.000000        2.252521         1    ;  uncertainty k = 0.656910
        15        14        13        40     9      180.000000       -2.521924         2    ;  uncertainty k = 0.482513
        15        14        13        40     9        0.000000       -0.008396         3    ;  uncertainty k = 0.267409
        15        14        13        40     9      180.000000        0.355114         4    ;  uncertainty k = 0.102352
        15        14        13        41     9        0.000000        2.252521         1    ;  uncertainty k = 0.656910
        15        14        13        41     9      180.000000       -2.521924         2    ;  uncertainty k = 0.482513
        15        14        13        41     9        0.000000       -0.008396         3    ;  uncertainty k = 0.267409
        15        14        13        41     9      180.000000        0.355114         4    ;  uncertainty k = 0.102352
        15        16        11        39     9        0.000000        0.428061         1    ;  uncertainty k = 0.593864
        15        16        11        39     9      180.000000       -0.436217         2    ;  uncertainty k = 0.452541
        15        16        11        39     9        0.000000       -0.125730         3    ;  uncertainty k = 0.077116
        15        16        11        39     9      180.000000       -0.034355         4    ;  uncertainty k = 0.119269
        15        16        17        18     9        0.000000       -0.425066         1    ;  uncertainty k = 0.412076
        15        16        17        18     9      180.000000        0.086774         2    ;  uncertainty k = 0.190782
        15        16        17        18     9        0.000000        1.032080         3    ;  uncertainty k = 0.139830
        15        16        17        18     9      180.000000       -0.036047         4    ;  uncertainty k = 0.071892
        15        16        17        26     9        0.000000       -2.791461         1    ;  uncertainty k = 0.499810
        15        16        17        26     9      180.000000        0.446593         2    ;  uncertainty k = 0.422270
        15        16        17        26     9        0.000000        1.231711         3    ;  uncertainty k = 0.205094
        15        16        17        26     9      180.000000       -0.341827         4    ;  uncertainty k = 0.254614
        15        16        17        47     9        0.000000       -0.247168         1    ;  uncertainty k = 0.470777
        15        16        17        47     9      180.000000       -0.264175         2    ;  uncertainty k = 0.126519
        15        16        17        47     9        0.000000        0.099328         3    ;  uncertainty k = 0.161920
        15        16        17        47     9      180.000000       -0.129982         4    ;  uncertainty k = 0.080501
        16        15        14        42     9        0.000000       -0.717906         1    ;  uncertainty k = 0.220494
        16        15        14        42     9      180.000000       -0.691481         2    ;  uncertainty k = 0.154271
        16        15        14        42     9        0.000000        0.379075         3    ;  uncertainty k = 0.122250
        16        15        14        42     9      180.000000       -0.036404         4    ;  uncertainty k = 0.118047
        16        15        14        43     9        0.000000       -0.717906         1    ;  uncertainty k = 0.220494
        16        15        14        43     9      180.000000       -0.691481         2    ;  uncertainty k = 0.154271
        16        15        14        43     9        0.000000        0.379075         3    ;  uncertainty k = 0.122250
        16        15        14        43     9      180.000000       -0.036404         4    ;  uncertainty k = 0.118047
        16        17        18        19     9        0.000000       -0.104029         1    ;  uncertainty k = 0.611044
        16        17        18        19     9      180.000000        1.646268         2    ;  uncertainty k = 0.263546
        16        17        18        19     9        0.000000        0.309048         3    ;  uncertainty k = 0.120325
        16        17        18        19     9      180.000000        0.227307         4    ;  uncertainty k = 0.059973
        16        17        18        25     9        0.000000       -0.228826         1    ;  uncertainty k = 0.708044
        16        17        18        25     9      180.000000        1.690003         2    ;  uncertainty k = 0.217604
        16        17        18        25     9        0.000000        0.287130         3    ;  uncertainty k = 0.127507
        16        17        18        25     9      180.000000        0.218831         4    ;  uncertainty k = 0.063059
        16        17        26        52     9        0.000000        3.625020         1    ;  uncertainty k = 0.998650
        16        17        26        52     9      180.000000       -1.809716         2    ;  uncertainty k = 1.320569
        16        17        26        52     9        0.000000        0.473100         3    ;  uncertainty k = 0.289834
        16        17        26        52     9      180.000000       -0.015315         4    ;  uncertainty k = 0.076932
        17        16        11        39     9        0.000000        0.927002         1    ;  uncertainty k = 0.921575
        17        16        11        39     9      180.000000       -1.095830         2    ;  uncertainty k = 0.517243
        17        16        11        39     9        0.000000       -0.210008         3    ;  uncertainty k = 0.060010
        17        16        11        39     9      180.000000        0.001080         4    ;  uncertainty k = 0.190769
        17        16        15        44     9        0.000000        0.039395         1    ;  uncertainty k = 0.361370
        17        16        15        44     9      180.000000       -0.609319         2    ;  uncertainty k = 0.246865
        17        16        15        44     9        0.000000        0.527439         3    ;  uncertainty k = 0.097494
        17        16        15        44     9      180.000000       -0.045335         4    ;  uncertainty k = 0.101699
        17        16        15        45     9        0.000000        0.039395         1    ;  uncertainty k = 0.361370
        17        16        15        45     9      180.000000       -0.609319         2    ;  uncertainty k = 0.246865
        17        16        15        45     9        0.000000        0.527439         3    ;  uncertainty k = 0.097494
        17        16        15        45     9      180.000000       -0.045335         4    ;  uncertainty k = 0.101699
        17        18        19        20     9        0.000000        0.313392         1    ;  uncertainty k = 0.213912
        17        18        19        20     9      180.000000        8.381287         2    ;  uncertainty k = 0.408317
        17        18        19        20     9        0.000000        1.426803         3    ;  uncertainty k = 0.290352
        17        18        19        20     9      180.000000        1.950635         4    ;  uncertainty k = 0.202442
        17        18        19        48     9        0.000000       -0.020817         1    ;  uncertainty k = 0.381863
        17        18        19        48     9      180.000000        7.565577         2    ;  uncertainty k = 0.334919
        17        18        19        48     9        0.000000        0.582775         3    ;  uncertainty k = 0.355928
        17        18        19        48     9      180.000000        0.851838         4    ;  uncertainty k = 0.161248
        17        18        25        23     9        0.000000        0.138094         1    ;  uncertainty k = 0.283387
        17        18        25        23     9      180.000000        8.429359         2    ;  uncertainty k = 0.491561
        17        18        25        23     9        0.000000        1.389948         3    ;  uncertainty k = 0.414782
        17        18        25        23     9      180.000000        1.810136         4    ;  uncertainty k = 0.187393
        17        18        25        51     9        0.000000       -0.086003         1    ;  uncertainty k = 0.576019
        17        18        25        51     9      180.000000        7.479278         2    ;  uncertainty k = 0.325255
        17        18        25        51     9        0.000000        0.515734         3    ;  uncertainty k = 0.302981
        17        18        25        51     9      180.000000        0.779319         4    ;  uncertainty k = 0.199430
        18        17        16        46     9        0.000000        0.513171         1    ;  uncertainty k = 0.210916
        18        17        16        46     9      180.000000        0.103767         2    ;  uncertainty k = 0.615103
        18        17        16        46     9        0.000000        0.421494         3    ;  uncertainty k = 0.093638
        18        17        16        46     9      180.000000       -0.041000         4    ;  uncertainty k = 0.096004
        18        17        26        52     9        0.000000        4.447740         1    ;  uncertainty k = 0.489978
        18        17        26        52     9      180.000000       -0.974020         2    ;  uncertainty k = 0.343626
        18        17        26        52     9        0.000000        0.439458         3    ;  uncertainty k = 0.329793
        18        17        26        52     9      180.000000       -0.043339         4    ;  uncertainty k = 0.178703
        18        19        20        21     9        0.000000       -0.156359         1    ;  uncertainty k = 0.127586
        18        19        20        21     9      180.000000       13.837289         2    ;  uncertainty k = 0.211401
        18        19        20        21     9        0.000000       -0.916821         3    ;  uncertainty k = 0.636703
        18        19        20        21     9      180.000000        0.906317         4    ;  uncertainty k = 0.339195
        18        19        20        49     9        0.000000        0.168013         1    ;  uncertainty k = 0.221164
        18        19        20        49     9      180.000000        7.742359         2    ;  uncertainty k = 0.479482
        18        19        20        49     9        0.000000        1.522039         3    ;  uncertainty k = 0.280070
        18        19        20        49     9      180.000000        1.866032         4    ;  uncertainty k = 0.131070
        18        25        23        21     9        0.000000       -0.233205         1    ;  uncertainty k = 0.404324
        18        25        23        21     9      180.000000        9.133903         2    ;  uncertainty k = 0.452467
        18        25        23        21     9        0.000000        0.254463         3    ;  uncertainty k = 0.486219
        18        25        23        21     9      180.000000        1.253589         4    ;  uncertainty k = 0.322478
        18        25        23        24     9        0.000000       -0.002637         1    ;  uncertainty k = 0.263438
        18        25        23        24     9      180.000000       13.175766         2    ;  uncertainty k = 0.633797
        18        25        23        24     9        0.000000        1.552717         3    ;  uncertainty k = 0.308286
        18        25        23        24     9      180.000000        1.522057         4    ;  uncertainty k = 0.240349
        19        18        17        26     9        0.000000       -0.544002         1    ;  uncertainty k = 0.361382
        19        18        17        26     9      180.000000        2.563250         2    ;  uncertainty k = 0.240371
        19        18        17        26     9        0.000000        0.645767         3    ;  uncertainty k = 0.254555
        19        18        17        26     9      180.000000        0.408879         4    ;  uncertainty k = 0.030601
        19        18        17        47     9        0.000000       -0.641095         1    ;  uncertainty k = 0.289302
        19        18        17        47     9      180.000000        2.232667         2    ;  uncertainty k = 0.300103
        19        18        17        47     9        0.000000        0.491439         3    ;  uncertainty k = 0.087089
        19        18        17        47     9      180.000000        0.234631         4    ;  uncertainty k = 0.055752
        19        18        25        23     9        0.000000       -0.078126         1    ;  uncertainty k = 0.141584
        19        18        25        23     9      180.000000       11.046878         2    ;  uncertainty k = 0.294941
        19        18        25        23     9        0.000000       -0.266761         3    ;  uncertainty k = 0.356380
        19        18        25        23     9      180.000000        1.044439         4    ;  uncertainty k = 0.331800
        19        18        25        51     9        0.000000        0.188098         1    ;  uncertainty k = 0.123372
        19        18        25        51     9      180.000000        6.981400         2    ;  uncertainty k = 0.486881
        19        18        25        51     9        0.000000        1.464373         3    ;  uncertainty k = 0.357610
        19        18        25        51     9      180.000000        1.588043         4    ;  uncertainty k = 0.164026
        19        20        21        22     9        0.000000       -0.109506         1    ;  uncertainty k = 0.258614
        19        20        21        22     9      180.000000       10.933231         2    ;  uncertainty k = 0.342711
        19        20        21        22     9        0.000000        1.173580         3    ;  uncertainty k = 0.171930
        19        20        21        22     9      180.000000        1.537207         4    ;  uncertainty k = 0.055253
        19        20        21        23     9        0.000000        0.021364         1    ;  uncertainty k = 0.146341
        19        20        21        23     9      180.000000        8.095798         2    ;  uncertainty k = 0.640920
        19        20        21        23     9        0.000000        0.299462         3    ;  uncertainty k = 0.424086
        19        20        21        23     9      180.000000        1.375647         4    ;  uncertainty k = 0.297851
        20        19        18        25     9        0.000000       -0.246268         1    ;  uncertainty k = 0.095499
        20        19        18        25     9      180.000000       11.774514         2    ;  uncertainty k = 0.303450
        20        19        18        25     9        0.000000       -0.548580         3    ;  uncertainty k = 0.242060
        20        19        18        25     9      180.000000        0.858808         4    ;  uncertainty k = 0.340247
        20        21        22        50     9        0.000000        7.050618         1    ;  uncertainty k = 0.600613
        20        21        22        50     9      180.000000        4.700660         2    ;  uncertainty k = 0.394756
        20        21        22        50     9        0.000000        0.604503         3    ;  uncertainty k = 0.136790
        20        21        22        50     9      180.000000        0.224534         4    ;  uncertainty k = 0.061240
        20        21        23        24     9        0.000000        0.217964         1    ;  uncertainty k = 0.332692
        20        21        23        24     9      180.000000        8.191939         2    ;  uncertainty k = 0.442353
        20        21        23        24     9        0.000000        1.350427         3    ;  uncertainty k = 0.140916
        20        21        23        24     9      180.000000        1.632834         4    ;  uncertainty k = 0.196794
        20        21        23        25     9        0.000000       -0.102880         1    ;  uncertainty k = 0.736093
        20        21        23        25     9      180.000000        5.202173         2    ;  uncertainty k = 1.346322
        20        21        23        25     9        0.000000        0.324521         3    ;  uncertainty k = 0.381160
        20        21        23        25     9      180.000000        1.231321         4    ;  uncertainty k = 0.377864
        21        20        19        48     9        0.000000        0.051489         1    ;  uncertainty k = 0.284695
        21        20        19        48     9      180.000000        8.171573         2    ;  uncertainty k = 0.427776
        21        20        19        48     9        0.000000        1.244963         3    ;  uncertainty k = 0.300305
        21        20        19        48     9      180.000000        1.765150         4    ;  uncertainty k = 0.131994
        21        23        25        51     9        0.000000        0.124407         1    ;  uncertainty k = 0.217533
        21        23        25        51     9      180.000000        6.206885         2    ;  uncertainty k = 0.775152
        21        23        25        51     9        0.000000        1.200743         3    ;  uncertainty k = 0.271937
        21        23        25        51     9      180.000000        1.491762         4    ;  uncertainty k = 0.110712
        22        21        20        49     9        0.000000       -0.071741         1    ;  uncertainty k = 0.158847
        22        21        20        49     9      180.000000        8.276596         2    ;  uncertainty k = 0.473422
        22        21        20        49     9        0.000000        0.871473         3    ;  uncertainty k = 0.226390
        22        21        20        49     9      180.000000        1.123052         4    ;  uncertainty k = 0.358524
        22        21        23        24     9        0.000000       -0.077861         1    ;  uncertainty k = 0.671560
        22        21        23        24     9      180.000000       12.148295         2    ;  uncertainty k = 0.488547
        22        21        23        24     9        0.000000        1.009721         3    ;  uncertainty k = 0.160312
        22        21        23        24     9      180.000000        1.132328         4    ;  uncertainty k = 0.247100
        22        21        23        25     9        0.000000       -0.073881         1    ;  uncertainty k = 0.100892
        22        21        23        25     9      180.000000        7.786193         2    ;  uncertainty k = 0.359220
        22        21        23        25     9        0.000000        0.988969         3    ;  uncertainty k = 0.139611
        22        21        23        25     9      180.000000        1.422710         4    ;  uncertainty k = 0.123905
        23        21        20        49     9        0.000000       -0.073574         1    ;  uncertainty k = 0.402229
        23        21        20        49     9      180.000000        5.595503         2    ;  uncertainty k = 0.577409
        23        21        20        49     9        0.000000        1.177897         3    ;  uncertainty k = 0.360831
        23        21        20        49     9      180.000000        1.372660         4    ;  uncertainty k = 0.198769
        23        21        22        50     9        0.000000       10.159731         1    ;  uncertainty k = 0.500994
        23        21        22        50     9      180.000000        3.682138         2    ;  uncertainty k = 0.496915
        23        21        22        50     9        0.000000        0.700602         3    ;  uncertainty k = 0.182874
        23        21        22        50     9      180.000000        0.241215         4    ;  uncertainty k = 0.138807
        24        23        25        51     9        0.000000       -0.229469         1    ;  uncertainty k = 0.266441
        24        23        25        51     9      180.000000        9.347289         2    ;  uncertainty k = 0.467292
        24        23        25        51     9        0.000000        0.844527         3    ;  uncertainty k = 0.210826
        24        23        25        51     9      180.000000        1.121901         4    ;  uncertainty k = 0.266821
        25        18        17        26     9        0.000000       -0.665239         1    ;  uncertainty k = 0.375580
        25        18        17        26     9      180.000000        2.573248         2    ;  uncertainty k = 0.243021
        25        18        17        26     9        0.000000        0.675030         3    ;  uncertainty k = 0.224464
        25        18        17        26     9      180.000000        0.416523         4    ;  uncertainty k = 0.038040
        25        18        17        47     9        0.000000       -0.397932         1    ;  uncertainty k = 0.235843
        25        18        17        47     9      180.000000        2.181819         2    ;  uncertainty k = 0.305079
        25        18        17        47     9        0.000000        0.482008         3    ;  uncertainty k = 0.094429
        25        18        17        47     9      180.000000        0.235038         4    ;  uncertainty k = 0.085640
        25        18        19        48     9        0.000000        0.133573         1    ;  uncertainty k = 0.195465
        25        18        19        48     9      180.000000        7.317520         2    ;  uncertainty k = 0.504583
        25        18        19        48     9        0.000000        1.426864         3    ;  uncertainty k = 0.420051
        25        18        19        48     9      180.000000        1.584967         4    ;  uncertainty k = 0.158644
        26         8         7        37     9        0.000000       -0.323884         1    ;  uncertainty k = 0.647806
        26         8         7        37     9      180.000000        8.078759         2    ;  uncertainty k = 0.274360
        26         8         7        37     9        0.000000        1.040695         3    ;  uncertainty k = 0.154407
        26         8         7        37     9      180.000000        1.233016         4    ;  uncertainty k = 0.296042
        26        17        16        46     9        0.000000       -0.937416         1    ;  uncertainty k = 0.580477
        26        17        16        46     9      180.000000        0.167579         2    ;  uncertainty k = 0.418348
        26        17        16        46     9        0.000000        0.641575         3    ;  uncertainty k = 0.274054
        26        17        16        46     9      180.000000        0.054360         4    ;  uncertainty k = 0.091138
        36         6         7        37     9        0.000000        0.029802         1    ;  uncertainty k = 0.527471
        36         6         7        37     9      180.000000        7.765192         2    ;  uncertainty k = 0.405104
        36         6         7        37     9        0.000000       -0.364688         3    ;  uncertainty k = 0.308167
        36         6         7        37     9      180.000000        0.241056         4    ;  uncertainty k = 0.183554
        39        11        16        46     9        0.000000        2.055951         1    ;  uncertainty k = 0.460858
        39        11        16        46     9      180.000000        0.801066         2    ;  uncertainty k = 0.474691
        39        11        16        46     9        0.000000       -0.495403         3    ;  uncertainty k = 0.235505
        39        11        16        46     9      180.000000       -0.176208         4    ;  uncertainty k = 0.072900
        40        13        14        42     9        0.000000       -0.274868         1    ;  uncertainty k = 0.378415
        40        13        14        42     9      180.000000        0.798974         2    ;  uncertainty k = 0.452569
        40        13        14        42     9        0.000000        0.200805         3    ;  uncertainty k = 0.151528
        40        13        14        42     9      180.000000       -0.352311         4    ;  uncertainty k = 0.070139
        40        13        14        43     9        0.000000       -0.274868         1    ;  uncertainty k = 0.378415
        40        13        14        43     9      180.000000        0.798974         2    ;  uncertainty k = 0.452569
        40        13        14        43     9        0.000000        0.200805         3    ;  uncertainty k = 0.151528
        40        13        14        43     9      180.000000       -0.352311         4    ;  uncertainty k = 0.070139
        41        13        14        42     9        0.000000       -0.274868         1    ;  uncertainty k = 0.378415
        41        13        14        42     9      180.000000        0.798974         2    ;  uncertainty k = 0.452569
        41        13        14        42     9        0.000000        0.200805         3    ;  uncertainty k = 0.151528
        41        13        14        42     9      180.000000       -0.352311         4    ;  uncertainty k = 0.070139
        41        13        14        43     9        0.000000       -0.274868         1    ;  uncertainty k = 0.378415
        41        13        14        43     9      180.000000        0.798974         2    ;  uncertainty k = 0.452569
        41        13        14        43     9        0.000000        0.200805         3    ;  uncertainty k = 0.151528
        41        13        14        43     9      180.000000       -0.352311         4    ;  uncertainty k = 0.070139
        42        14        15        44     9        0.000000        1.884565         1    ;  uncertainty k = 0.391702
        42        14        15        44     9      180.000000        0.108172         2    ;  uncertainty k = 0.140230
        42        14        15        44     9        0.000000        0.315320         3    ;  uncertainty k = 0.092655
        42        14        15        44     9      180.000000        0.071630         4    ;  uncertainty k = 0.021588
        42        14        15        45     9        0.000000        1.884565         1    ;  uncertainty k = 0.391702
        42        14        15        45     9      180.000000        0.108172         2    ;  uncertainty k = 0.140230
        42        14        15        45     9        0.000000        0.315320         3    ;  uncertainty k = 0.092655
        42        14        15        45     9      180.000000        0.071630         4    ;  uncertainty k = 0.021588
        43        14        15        44     9        0.000000        1.884565         1    ;  uncertainty k = 0.391702
        43        14        15        44     9      180.000000        0.108172         2    ;  uncertainty k = 0.140230
        43        14        15        44     9        0.000000        0.315320         3    ;  uncertainty k = 0.092655
        43        14        15        44     9      180.000000        0.071630         4    ;  uncertainty k = 0.021588
        43        14        15        45     9        0.000000        1.884565         1    ;  uncertainty k = 0.391702
        43        14        15        45     9      180.000000        0.108172         2    ;  uncertainty k = 0.140230
        43        14        15        45     9        0.000000        0.315320         3    ;  uncertainty k = 0.092655
        43        14        15        45     9      180.000000        0.071630         4    ;  uncertainty k = 0.021588
        44        15        16        46     9        0.000000        1.587363         1    ;  uncertainty k = 0.258659
        44        15        16        46     9      180.000000       -0.027774         2    ;  uncertainty k = 0.315849
        44        15        16        46     9        0.000000       -0.059217         3    ;  uncertainty k = 0.119422
        44        15        16        46     9      180.000000        0.010985         4    ;  uncertainty k = 0.065671
        45        15        16        46     9        0.000000        1.587363         1    ;  uncertainty k = 0.258659
        45        15        16        46     9      180.000000       -0.027774         2    ;  uncertainty k = 0.315849
        45        15        16        46     9        0.000000       -0.059217         3    ;  uncertainty k = 0.119422
        45        15        16        46     9      180.000000        0.010985         4    ;  uncertainty k = 0.065671
        46        16        17        47     9        0.000000        1.081165         1    ;  uncertainty k = 0.455063
        46        16        17        47     9      180.000000       -0.042582         2    ;  uncertainty k = 0.246987
        46        16        17        47     9        0.000000       -0.348284         3    ;  uncertainty k = 0.175258
        46        16        17        47     9      180.000000       -0.269957         4    ;  uncertainty k = 0.103634
        47        17        26        52     9        0.000000        0.471714         1    ;  uncertainty k = 0.553695
        47        17        26        52     9      180.000000       -0.990674         2    ;  uncertainty k = 0.268303
        47        17        26        52     9        0.000000        0.485826         3    ;  uncertainty k = 0.276639
        47        17        26        52     9      180.000000        0.028020         4    ;  uncertainty k = 0.125913
        48        19        20        49     9        0.000000        0.070291         1    ;  uncertainty k = 0.247234
        48        19        20        49     9      180.000000        7.554553         2    ;  uncertainty k = 0.326428
        48        19        20        49     9        0.000000       -0.369106         3    ;  uncertainty k = 0.311168
        48        19        20        49     9      180.000000        0.165608         4    ;  uncertainty k = 0.143095

[ dihedrals ] ; impropers
;       ai        aj        ak        al funct           phase               k        pn
         5         2         6        10     4      180.000000       12.714653         2    ;  uncertainty k = 0.097697
         5         6        10         2     4      180.000000       12.714653         2    ;  uncertainty k = 0.097697
         5        10         2         6     4      180.000000       12.714653         2    ;  uncertainty k = 0.097697
         6         5         7        36     4      180.000000        4.372421         2    ;  uncertainty k = 0.145358
         6         7        36         5     4      180.000000        4.372421         2    ;  uncertainty k = 0.145358
         6        36         5         7     4      180.000000        4.372421         2    ;  uncertainty k = 0.145358
         7         6         8        37     4      180.000000        1.853171         2    ;  uncertainty k = 0.420092
         7         8        37         6     4      180.000000        1.853171         2    ;  uncertainty k = 0.420092
         7        37         6         8     4      180.000000        1.853171         2    ;  uncertainty k = 0.420092
         8         7         9        26     4      180.000000       20.999676         2    ;  uncertainty k = 0.144703
         8         9        26         7     4      180.000000       20.999676         2    ;  uncertainty k = 0.144703
         8        26         7         9     4      180.000000       20.999676         2    ;  uncertainty k = 0.144703
         9         8        10        11     4      180.000000       11.043016         2    ;  uncertainty k = 0.207278
         9        10        11         8     4      180.000000       11.043016         2    ;  uncertainty k = 0.207278
         9        11         8        10     4      180.000000       11.043016         2    ;  uncertainty k = 0.207278
        10         5         9        38     4      180.000000        3.918806         2    ;  uncertainty k = 0.324224
        10         9        38         5     4      180.000000        3.918806         2    ;  uncertainty k = 0.324224
        10        38         5         9     4      180.000000        3.918806         2    ;  uncertainty k = 0.324224
        18        17        19        25     4      180.000000       11.793878         2    ;  uncertainty k = 0.122686
        18        19        25        17     4      180.000000       11.793878         2    ;  uncertainty k = 0.122686
        18        25        17        19     4      180.000000       11.793878         2    ;  uncertainty k = 0.122686
        19        18        20        48     4      180.000000        3.933951         2    ;  uncertainty k = 0.121695
        19        20        48        18     4      180.000000        3.933951         2    ;  uncertainty k = 0.121695
        19        48        18        20     4      180.000000        3.933951         2    ;  uncertainty k = 0.121695
        20        19        21        49     4      180.000000        2.025678         2    ;  uncertainty k = 0.378832
        20        21        49        19     4      180.000000        2.025678         2    ;  uncertainty k = 0.378832
        20        49        19        21     4      180.000000        2.025678         2    ;  uncertainty k = 0.378832
        21        20        22        23     4      180.000000       15.295094         2    ;  uncertainty k = 0.085273
        21        22        23        20     4      180.000000       15.295094         2    ;  uncertainty k = 0.085273
        21        23        20        22     4      180.000000       15.295094         2    ;  uncertainty k = 0.085273
        23        21        24        25     4      180.000000        9.814879         2    ;  uncertainty k = 0.159993
        23        24        25        21     4      180.000000        9.814879         2    ;  uncertainty k = 0.159993
        23        25        21        24     4      180.000000        9.814879         2    ;  uncertainty k = 0.159993
        25        18        23        51     4      180.000000        2.155385         2    ;  uncertainty k = 0.136744
        25        23        51        18     4      180.000000        2.155385         2    ;  uncertainty k = 0.136744
        25        51        18        23     4      180.000000        2.155385         2    ;  uncertainty k = 0.136744

[ pairs ]
;       ai        aj funct
         1         6     1
         1        10     1
         1        30     1
         1        31     1
         1        32     1
         1        33     1
         1        34     1
         1        35     1
         2         7     1
         2         9     1
         2        36     1
         2        38     1
         3         6     1
         3        10     1
         3        27     1
         3        28     1
         3        29     1
         3        33     1
         3        34     1
         3        35     1
         4         6     1
         4        10     1
         4        27     1
         4        28     1
         4        29     1
         4        30     1
         4        31     1
         4        32     1
         5         8     1
         5        11     1
         5        27     1
         5        28     1
         5        29     1
         5        30     1
         5        31     1
         5        32     1
         5        33     1
         5        34     1
         5        35     1
         5        37     1
         6         9     1
         6        26     1
         6        38     1
         7        10     1
         7        11     1
         7        17     1
         7        52     1
         8        12     1
         8        16     1
         8        18     1
         8        36     1
         8        38     1
         8        39     1
         8        47     1
         9        13     1
         9        15     1
         9        17     1
         9        37     1
         9        46     1
         9        52     1
        10        12     1
        10        16     1
        10        26     1
        10        36     1
        10        39     1
        11        14     1
        11        18     1
        11        26     1
        11        38     1
        11        40     1
        11        41     1
        11        44     1
        11        45     1
        11        47     1
        12        15     1
        12        17     1
        12        42     1
        12        43     1
        12        46     1
        13        16     1
        13        39     1
        13        44     1
        13        45     1
        14        17     1
        14        46     1
        15        18     1
        15        26     1
        15        39     1
        15        40     1
        15        41     1
        15        47     1
        16        19     1
        16        25     1
        16        42     1
        16        43     1
        16        52     1
        17        20     1
        17        23     1
        17        39     1
        17        44     1
        17        45     1
        17        48     1
        17        51     1
        18        21     1
        18        24     1
        18        46     1
        18        49     1
        18        52     1
        19        22     1
        19        23     1
        19        26     1
        19        47     1
        19        51     1
        20        24     1
        20        25     1
        20        50     1
        21        48     1
        21        51     1
        22        24     1
        22        25     1
        22        49     1
        23        49     1
        23        50     1
        24        51     1
        25        26     1
        25        47     1
        25        48     1
        26        37     1
        26        46     1
        36        37     1
        39        46     1
        40        42     1
        40        43     1
        41        42     1
        41        43     1
        42        44     1
        42        45     1
        43        44     1
        43        45     1
        44        46     1
        45        46     1
        46        47     1
        47        52     1
        48        49     1
