; ITP file created by ByteFF-joint-25, 2026-02-17 09:15:30.847678

[ atomtypes ]
;name           bonded.type        at.num        mass        charge   ptype           sigma         epsilon
 o0bf                                   8      0.0000       0.00000       A     3.24262e-01     3.88920e-01    ;  uncertainty sigma = 0.000062, epsilon = 0.002530
 c1bf                                   6      0.0000       0.00000       A     3.39869e-01     4.51963e-01    ;  uncertainty sigma = 0.000044, epsilon = 0.002137
 c2bf                                   6      0.0000       0.00000       A     3.39765e-01     4.51786e-01    ;  uncertainty sigma = 0.000011, epsilon = 0.000505
 n3bf                                   7      0.0000       0.00000       A     2.68053e-01     7.07581e+00    ;  uncertainty sigma = 0.000089, epsilon = 0.010359
 c4bf                                   6      0.0000       0.00000       A     3.39787e-01     4.52551e-01    ;  uncertainty sigma = 0.000035, epsilon = 0.001334
 c5bf                                   6      0.0000       0.00000       A     3.39779e-01     4.51663e-01    ;  uncertainty sigma = 0.000030, epsilon = 0.001910
 c6bf                                   6      0.0000       0.00000       A     3.39767e-01     4.50486e-01    ;  uncertainty sigma = 0.000012, epsilon = 0.000632
 c7bf                                   6      0.0000       0.00000       A     3.39742e-01     4.51320e-01    ;  uncertainty sigma = 0.000014, epsilon = 0.001137
 c8bf                                   6      0.0000       0.00000       A     3.39755e-01     4.50973e-01    ;  uncertainty sigma = 0.000035, epsilon = 0.000615
 c9bf                                   6      0.0000       0.00000       A     3.39771e-01     4.51627e-01    ;  uncertainty sigma = 0.000010, epsilon = 0.001353
 c10bf                                  6      0.0000       0.00000       A     3.31532e-01     4.13295e-01    ;  uncertainty sigma = 0.000012, epsilon = 0.000849
 c11bf                                  6      0.0000       0.00000       A     3.31519e-01     4.13329e-01    ;  uncertainty sigma = 0.000002, epsilon = 0.000632
 c12bf                                  6      0.0000       0.00000       A     3.31520e-01     4.13328e-01    ;  uncertainty sigma = 0.000003, epsilon = 0.000582
 c13bf                                  6      0.0000       0.00000       A     3.31518e-01     4.13340e-01    ;  uncertainty sigma = 0.000003, epsilon = 0.000580
 c14bf                                  6      0.0000       0.00000       A     3.31520e-01     4.13328e-01    ;  uncertainty sigma = 0.000003, epsilon = 0.000582
 c15bf                                  6      0.0000       0.00000       A     3.31519e-01     4.13329e-01    ;  uncertainty sigma = 0.000002, epsilon = 0.000632
 n16bf                                  7      0.0000       0.00000       A     3.27940e-01     6.43754e-01    ;  uncertainty sigma = 0.000013, epsilon = 0.005170
 c17bf                                  6      0.0000       0.00000       A     3.31564e-01     4.13427e-01    ;  uncertainty sigma = 0.000018, epsilon = 0.001467
 c18bf                                  6      0.0000       0.00000       A     3.31515e-01     4.13089e-01    ;  uncertainty sigma = 0.000013, epsilon = 0.000496
 f19bf                                  9      0.0000       0.00000       A     3.03374e-01     3.48547e-01    ;  uncertainty sigma = 0.000029, epsilon = 0.000925
 c20bf                                  6      0.0000       0.00000       A     3.31515e-01     4.13185e-01    ;  uncertainty sigma = 0.000010, epsilon = 0.000733
 c21bf                                  6      0.0000       0.00000       A     3.31522e-01     4.13139e-01    ;  uncertainty sigma = 0.000006, epsilon = 0.000720
 cl22bf                                17      0.0000       0.00000       A     3.46583e-01     1.10403e+00    ;  uncertainty sigma = 0.000016, epsilon = 0.000818
 c23bf                                  6      0.0000       0.00000       A     3.31511e-01     4.13387e-01    ;  uncertainty sigma = 0.000005, epsilon = 0.000809
 c24bf                                  6      0.0000       0.00000       A     3.31543e-01     4.13629e-01    ;  uncertainty sigma = 0.000015, epsilon = 0.000598
 c25bf                                  6      0.0000       0.00000       A     3.39765e-01     4.51104e-01    ;  uncertainty sigma = 0.000021, epsilon = 0.001505
 o26bf                                  8      0.0000       0.00000       A     3.15622e-01     3.04459e-01    ;  uncertainty sigma = 0.000041, epsilon = 0.000889
 h27bf                                  1      0.0000       0.00000       A     5.38270e-02     1.95793e-02    ;  uncertainty sigma = 0.000116, epsilon = 0.001594
 h28bf                                  1      0.0000       0.00000       A     2.42233e-01     8.67564e-02    ;  uncertainty sigma = 0.000058, epsilon = 0.001466
 h29bf                                  1      0.0000       0.00000       A     2.42233e-01     8.67564e-02    ;  uncertainty sigma = 0.000058, epsilon = 0.001466
 h30bf                                  1      0.0000       0.00000       A     1.88764e-01     8.67532e-02    ;  uncertainty sigma = 0.000074, epsilon = 0.000261
 h31bf                                  1      0.0000       0.00000       A     1.88764e-01     8.67532e-02    ;  uncertainty sigma = 0.000074, epsilon = 0.000261
 h32bf                                  1      0.0000       0.00000       A     1.10721e-01     4.14193e-02    ;  uncertainty sigma = 0.000090, epsilon = 0.001165
 h33bf                                  1      0.0000       0.00000       A     1.88689e-01     8.72833e-02    ;  uncertainty sigma = 0.000152, epsilon = 0.000577
 h34bf                                  1      0.0000       0.00000       A     1.88689e-01     8.72833e-02    ;  uncertainty sigma = 0.000152, epsilon = 0.000577
 h35bf                                  1      0.0000       0.00000       A     2.42333e-01     8.61424e-02    ;  uncertainty sigma = 0.000111, epsilon = 0.001611
 h36bf                                  1      0.0000       0.00000       A     2.60030e-01     8.64970e-02    ;  uncertainty sigma = 0.000010, epsilon = 0.000714
 h37bf                                  1      0.0000       0.00000       A     2.60030e-01     8.64970e-02    ;  uncertainty sigma = 0.000010, epsilon = 0.000714
 h38bf                                  1      0.0000       0.00000       A     2.60028e-01     8.66832e-02    ;  uncertainty sigma = 0.000010, epsilon = 0.000720
 h39bf                                  1      0.0000       0.00000       A     2.60028e-01     8.66832e-02    ;  uncertainty sigma = 0.000010, epsilon = 0.000720
 h40bf                                  1      0.0000       0.00000       A     2.59938e-01     8.64077e-02    ;  uncertainty sigma = 0.000052, epsilon = 0.000980
 h41bf                                  1      0.0000       0.00000       A     2.42303e-01     8.69597e-02    ;  uncertainty sigma = 0.000074, epsilon = 0.001557
 h42bf                                  1      0.0000       0.00000       A     2.62560e-01     6.70315e-02    ;  uncertainty sigma = 0.000006, epsilon = 0.000529
 h43bf                                  1      0.0000       0.00000       A     2.62559e-01     6.70249e-02    ;  uncertainty sigma = 0.000010, epsilon = 0.000440
 h44bf                                  1      0.0000       0.00000       A     2.62552e-01     6.70647e-02    ;  uncertainty sigma = 0.000011, epsilon = 0.000453
 h45bf                                  1      0.0000       0.00000       A     2.62559e-01     6.70249e-02    ;  uncertainty sigma = 0.000010, epsilon = 0.000440
 h46bf                                  1      0.0000       0.00000       A     2.62560e-01     6.70315e-02    ;  uncertainty sigma = 0.000006, epsilon = 0.000529
 h47bf                                  1      0.0000       0.00000       A     1.10680e-01     4.07052e-02    ;  uncertainty sigma = 0.000120, epsilon = 0.001586
 h48bf                                  1      0.0000       0.00000       A     2.62565e-01     6.72303e-02    ;  uncertainty sigma = 0.000016, epsilon = 0.000519
 h49bf                                  1      0.0000       0.00000       A     2.62544e-01     6.69724e-02    ;  uncertainty sigma = 0.000010, epsilon = 0.000546
 h50bf                                  1      0.0000       0.00000       A     2.42239e-01     8.76589e-02    ;  uncertainty sigma = 0.000274, epsilon = 0.002166
 h51bf                                  1      0.0000       0.00000       A     1.10721e-01     4.14192e-02    ;  uncertainty sigma = 0.000090, epsilon = 0.001165

[ moleculetype ]
;name             nrexcl
 MOL                   3

[ atoms ]
;       nr            type      resi   res      atom      cgnr      charge          mass ; qtot
         1            o0bf         1   UNL        o0         1    -0.63873       15.9990 ; qtot   -0.639
         2            c1bf         1   UNL        c1         2     0.11697       12.0110 ; qtot   -0.522
         3            c2bf         1   UNL        c2         3     0.11927       12.0110 ; qtot   -0.402
         4            n3bf         1   UNL        n3         4    -0.77866       14.0070 ; qtot   -1.181
         5            c4bf         1   UNL        c4         5     0.13460       12.0110 ; qtot   -1.047
         6            c5bf         1   UNL        c5         6     0.12532       12.0110 ; qtot   -0.921
         7            c6bf         1   UNL        c6         7    -0.10280       12.0110 ; qtot   -1.024
         8            c7bf         1   UNL        c7         8    -0.06959       12.0110 ; qtot   -1.094
         9            c8bf         1   UNL        c8         9    -0.09481       12.0110 ; qtot   -1.188
        10            c9bf         1   UNL        c9        10     0.26381       12.0110 ; qtot   -0.925
        11           c10bf         1   UNL       c10        11    -0.10622       12.0110 ; qtot   -1.031
        12           c11bf         1   UNL       c11        12    -0.11888       12.0110 ; qtot   -1.150
        13           c12bf         1   UNL       c12        13    -0.13078       12.0110 ; qtot   -1.281
        14           c13bf         1   UNL       c13        14    -0.12452       12.0110 ; qtot   -1.405
        15           c14bf         1   UNL       c14        15    -0.13078       12.0110 ; qtot   -1.536
        16           c15bf         1   UNL       c15        16    -0.11888       12.0110 ; qtot   -1.655
        17           n16bf         1   UNL       n16        17    -0.73407       14.0070 ; qtot   -2.389
        18           c17bf         1   UNL       c17        18     0.14601       12.0110 ; qtot   -2.243
        19           c18bf         1   UNL       c18        19     0.06991       12.0110 ; qtot   -2.173
        20           f19bf         1   UNL       f19        20    -0.14884       18.9980 ; qtot   -2.322
        21           c20bf         1   UNL       c20        21    -0.10975       12.0110 ; qtot   -2.431
        22           c21bf         1   UNL       c21        22     0.01757       12.0110 ; qtot   -2.414
        23          cl22bf         1   UNL      cl22        23    -0.10370       35.4530 ; qtot   -2.518
        24           c23bf         1   UNL       c23        24    -0.07225       12.0110 ; qtot   -2.590
        25           c24bf         1   UNL       c24        25    -0.13027       12.0110 ; qtot   -2.720
        26           c25bf         1   UNL       c25        26     0.20179       12.0110 ; qtot   -2.518
        27           o26bf         1   UNL       o26        27    -0.42507       15.9990 ; qtot   -2.943
        28           h27bf         1   UNL       h27        28     0.46224        1.0080 ; qtot   -2.481
        29           h28bf         1   UNL       h28        29     0.07256        1.0080 ; qtot   -2.409
        30           h29bf         1   UNL       h29        30     0.07256        1.0080 ; qtot   -2.336
        31           h30bf         1   UNL       h30        31     0.11271        1.0080 ; qtot   -2.223
        32           h31bf         1   UNL       h31        32     0.11271        1.0080 ; qtot   -2.111
        33           h32bf         1   UNL       h32        33     0.46572        1.0080 ; qtot   -1.645
        34           h33bf         1   UNL       h33        34     0.11426        1.0080 ; qtot   -1.531
        35           h34bf         1   UNL       h34        35     0.11426        1.0080 ; qtot   -1.416
        36           h35bf         1   UNL       h35        36     0.08402        1.0080 ; qtot   -1.332
        37           h36bf         1   UNL       h36        37     0.07203        1.0080 ; qtot   -1.260
        38           h37bf         1   UNL       h37        38     0.07203        1.0080 ; qtot   -1.188
        39           h38bf         1   UNL       h38        39     0.05761        1.0080 ; qtot   -1.131
        40           h39bf         1   UNL       h39        40     0.05761        1.0080 ; qtot   -1.073
        41           h40bf         1   UNL       h40        41     0.06904        1.0080 ; qtot   -1.004
        42           h41bf         1   UNL       h41        42     0.05551        1.0080 ; qtot   -0.948
        43           h42bf         1   UNL       h42        43     0.13512        1.0080 ; qtot   -0.813
        44           h43bf         1   UNL       h43        44     0.13172        1.0080 ; qtot   -0.682
        45           h44bf         1   UNL       h44        45     0.13373        1.0080 ; qtot   -0.548
        46           h45bf         1   UNL       h45        46     0.13172        1.0080 ; qtot   -0.416
        47           h46bf         1   UNL       h46        47     0.13512        1.0080 ; qtot   -0.281
        48           h47bf         1   UNL       h47        48     0.42097        1.0080 ; qtot    0.140
        49           h48bf         1   UNL       h48        49     0.17051        1.0080 ; qtot    0.310
        50           h49bf         1   UNL       h49        50     0.15635        1.0080 ; qtot    0.467
        51           h50bf         1   UNL       h50        51     0.06756        1.0080 ; qtot    0.534
        52           h51bf         1   UNL       h51        52     0.46568        1.0080 ; qtot    1.000

[ bonds ]
;       ai        aj funct               r               k
         1         2     1        0.142069   247145.029004    ;  uncertainty r = 0.000147, k = 18.855095
         1        28     1        0.096861   473390.436621    ;  uncertainty r = 0.000106, k = 6.719235
         2         3     1        0.152900   214485.211230    ;  uncertainty r = 0.000094, k = 3.939590
         2        29     1        0.109666   307897.301465    ;  uncertainty r = 0.000068, k = 9.259440
         2        30     1        0.109666   307897.301465    ;  uncertainty r = 0.000068, k = 9.259440
         3         4     1        0.150509   196196.299609    ;  uncertainty r = 0.000083, k = 18.300762
         3        31     1        0.109038   316714.626904    ;  uncertainty r = 0.000046, k = 1.946336
         3        32     1        0.109038   316714.626904    ;  uncertainty r = 0.000046, k = 1.946336
         4         5     1        0.150762   202236.949609    ;  uncertainty r = 0.000208, k = 23.265148
         4        33     1        0.103079   377560.033203    ;  uncertainty r = 0.000084, k = 3.829359
         4        52     1        0.103079   377559.982129    ;  uncertainty r = 0.000084, k = 3.829379
         5         6     1        0.152990   198894.984717    ;  uncertainty r = 0.000220, k = 18.711670
         5        34     1        0.109058   316671.545801    ;  uncertainty r = 0.000062, k = 2.296979
         5        35     1        0.109058   316671.545801    ;  uncertainty r = 0.000062, k = 2.296979
         6         7     1        0.152855   204784.876392    ;  uncertainty r = 0.000150, k = 9.450881
         6        27     1        0.142401   237205.986035    ;  uncertainty r = 0.000155, k = 13.559200
         6        36     1        0.110038   305180.765918    ;  uncertainty r = 0.000069, k = 6.440489
         7         8     1        0.153416   212553.456592    ;  uncertainty r = 0.000104, k = 6.460390
         7        37     1        0.109581   309786.868799    ;  uncertainty r = 0.000017, k = 2.349016
         7        38     1        0.109581   309786.868799    ;  uncertainty r = 0.000017, k = 2.349016
         8         9     1        0.153228   204659.846704    ;  uncertainty r = 0.000107, k = 7.769012
         8        39     1        0.109545   307326.649219    ;  uncertainty r = 0.000013, k = 1.975637
         8        40     1        0.109545   307326.674756    ;  uncertainty r = 0.000013, k = 1.975636
         9        10     1        0.153800   193320.744482    ;  uncertainty r = 0.000040, k = 8.694137
         9        26     1        0.153198   193158.341235    ;  uncertainty r = 0.000142, k = 7.838977
         9        41     1        0.109712   307584.676172    ;  uncertainty r = 0.000061, k = 3.997510
        10        11     1        0.151694   221715.430859    ;  uncertainty r = 0.000083, k = 6.119466
        10        17     1        0.146412   245465.095801    ;  uncertainty r = 0.000056, k = 13.015808
        10        42     1        0.110029   298346.754541    ;  uncertainty r = 0.000122, k = 4.232422
        11        12     1        0.139859   350947.632764    ;  uncertainty r = 0.000040, k = 0.862444
        11        16     1        0.139859   350947.632764    ;  uncertainty r = 0.000040, k = 0.862444
        12        13     1        0.139620   365997.698340    ;  uncertainty r = 0.000023, k = 1.204462
        12        43     1        0.108883   334327.852148    ;  uncertainty r = 0.000023, k = 0.510237
        13        14     1        0.139607   371240.977637    ;  uncertainty r = 0.000016, k = 0.703160
        13        44     1        0.108851   333986.906201    ;  uncertainty r = 0.000010, k = 1.017361
        14        15     1        0.139607   371240.977637    ;  uncertainty r = 0.000016, k = 0.703160
        14        45     1        0.108841   334518.920801    ;  uncertainty r = 0.000012, k = 0.635600
        15        16     1        0.139620   365997.698340    ;  uncertainty r = 0.000023, k = 1.204462
        15        46     1        0.108851   333986.906201    ;  uncertainty r = 0.000010, k = 1.017361
        16        47     1        0.108883   334327.852148    ;  uncertainty r = 0.000023, k = 0.510237
        17        18     1        0.138781   338551.945410    ;  uncertainty r = 0.000200, k = 8.492276
        17        48     1        0.101386   413993.878223    ;  uncertainty r = 0.000059, k = 1.811270
        18        19     1        0.139996   355317.670605    ;  uncertainty r = 0.000065, k = 5.693936
        18        25     1        0.140477   349727.035547    ;  uncertainty r = 0.000152, k = 21.310479
        19        20     1        0.136333   330246.664551    ;  uncertainty r = 0.000064, k = 7.513059
        19        21     1        0.138317   358097.078516    ;  uncertainty r = 0.000050, k = 8.754662
        21        22     1        0.139579   367600.356250    ;  uncertainty r = 0.000069, k = 3.198203
        21        49     1        0.108676   338170.523145    ;  uncertainty r = 0.000012, k = 1.348235
        22        23     1        0.175567   199356.772266    ;  uncertainty r = 0.000041, k = 5.055074
        22        24     1        0.139340   355714.772656    ;  uncertainty r = 0.000060, k = 4.410570
        24        25     1        0.139306   354486.003564    ;  uncertainty r = 0.000122, k = 2.565189
        24        50     1        0.108732   336159.118262    ;  uncertainty r = 0.000039, k = 1.908305
        25        26     1        0.150814   221663.335156    ;  uncertainty r = 0.000109, k = 12.532098
        26        27     1        0.144488   220180.599512    ;  uncertainty r = 0.000532, k = 5.649547
        26        51     1        0.110000   305566.274121    ;  uncertainty r = 0.000075, k = 4.904527

[ angles ]
;       ai        aj        ak funct           theta             cth
         1         2         3     1      106.831642      679.792297    ;  uncertainty theta = 0.003349, k = 0.266903
         1         2        29     1      109.765541      473.382833    ;  uncertainty theta = 0.004314, k = 0.150080
         1         2        30     1      109.765541      473.382833    ;  uncertainty theta = 0.004314, k = 0.150080
         2         1        28     1      107.744797      430.187227    ;  uncertainty theta = 0.006690, k = 0.217197
         2         3         4     1      110.070824      676.835228    ;  uncertainty theta = 0.005016, k = 0.136627
         2         3        31     1      110.608459      401.656690    ;  uncertainty theta = 0.003174, k = 0.143973
         2         3        32     1      110.608459      401.656690    ;  uncertainty theta = 0.003174, k = 0.143973
         3         2        29     1      109.167709      402.645391    ;  uncertainty theta = 0.002587, k = 0.057071
         3         2        30     1      109.167709      402.645391    ;  uncertainty theta = 0.002587, k = 0.057071
         3         4         5     1      114.227066      611.836964    ;  uncertainty theta = 0.006202, k = 0.072254
         3         4        33     1      108.672134      435.756296    ;  uncertainty theta = 0.003070, k = 0.072823
         3         4        52     1      108.672119      435.756360    ;  uncertainty theta = 0.003070, k = 0.072823
         4         3        31     1      105.991379      457.222950    ;  uncertainty theta = 0.002548, k = 0.049629
         4         3        32     1      105.991379      457.222950    ;  uncertainty theta = 0.002548, k = 0.049629
         4         5         6     1      109.555344      689.883286    ;  uncertainty theta = 0.003493, k = 0.305895
         4         5        34     1      106.055603      457.300743    ;  uncertainty theta = 0.004278, k = 0.059147
         4         5        35     1      106.055603      457.300743    ;  uncertainty theta = 0.004278, k = 0.059147
         5         4        33     1      108.857254      433.592537    ;  uncertainty theta = 0.002891, k = 0.085073
         5         4        52     1      108.857254      433.592537    ;  uncertainty theta = 0.002891, k = 0.085073
         5         6         7     1      111.574753      558.976807    ;  uncertainty theta = 0.007654, k = 0.177792
         5         6        27     1      105.635887      575.173719    ;  uncertainty theta = 0.004642, k = 0.122878
         5         6        36     1      108.337158      390.312212    ;  uncertainty theta = 0.003026, k = 0.117853
         6         5        34     1      110.354202      394.457236    ;  uncertainty theta = 0.002644, k = 0.134087
         6         5        35     1      110.354202      394.457236    ;  uncertainty theta = 0.002644, k = 0.134087
         6         7         8     1      108.889603      585.659511    ;  uncertainty theta = 0.003216, k = 0.199551
         6         7        37     1      107.553749      391.822445    ;  uncertainty theta = 0.001677, k = 0.060815
         6         7        38     1      107.553734      391.822445    ;  uncertainty theta = 0.001677, k = 0.060815
         6        27        26     1      110.442482      513.406985    ;  uncertainty theta = 0.009535, k = 0.134559
         7         6        27     1      111.182907      679.294387    ;  uncertainty theta = 0.004715, k = 0.107741
         7         6        36     1      109.823120      407.281206    ;  uncertainty theta = 0.003108, k = 0.040051
         7         8         9     1      109.833923      574.050916    ;  uncertainty theta = 0.003440, k = 0.116783
         7         8        39     1      108.479469      406.340866    ;  uncertainty theta = 0.002257, k = 0.104005
         7         8        40     1      108.479469      406.340866    ;  uncertainty theta = 0.002257, k = 0.104005
         8         7        37     1      109.112206      400.373163    ;  uncertainty theta = 0.000987, k = 0.042731
         8         7        38     1      109.112206      400.373163    ;  uncertainty theta = 0.000987, k = 0.042731
         8         9        10     1      110.518692      549.309224    ;  uncertainty theta = 0.001205, k = 0.168276
         8         9        26     1      109.544754      584.094917    ;  uncertainty theta = 0.001906, k = 0.135801
         8         9        41     1      107.962402      399.558210    ;  uncertainty theta = 0.002830, k = 0.103744
         9         8        39     1      108.184448      389.052562    ;  uncertainty theta = 0.001625, k = 0.073416
         9         8        40     1      108.184448      389.052562    ;  uncertainty theta = 0.001625, k = 0.073415
         9        10        11     1      111.710739      536.791444    ;  uncertainty theta = 0.002579, k = 0.172522
         9        10        17     1      108.273865      704.451505    ;  uncertainty theta = 0.003996, k = 0.104661
         9        10        42     1      107.093971      386.028905    ;  uncertainty theta = 0.002703, k = 0.126280
         9        26        25     1      111.874802      554.911555    ;  uncertainty theta = 0.005322, k = 0.252714
         9        26        27     1      110.857201      663.507219    ;  uncertainty theta = 0.005288, k = 0.082234
         9        26        51     1      108.285751      394.410631    ;  uncertainty theta = 0.004010, k = 0.125698
        10         9        26     1      109.371315      552.356312    ;  uncertainty theta = 0.004949, k = 0.134889
        10         9        41     1      105.919556      390.293698    ;  uncertainty theta = 0.001590, k = 0.089845
        10        11        12     1      119.869118      424.511222    ;  uncertainty theta = 0.003274, k = 0.143273
        10        11        16     1      119.869118      424.511222    ;  uncertainty theta = 0.003274, k = 0.143273
        10        17        18     1      113.554550      394.395819    ;  uncertainty theta = 0.004923, k = 0.144162
        10        17        48     1      110.517822      342.921051    ;  uncertainty theta = 0.003889, k = 0.119522
        11        10        17     1      110.952232      663.025206    ;  uncertainty theta = 0.001005, k = 0.195907
        11        10        42     1      106.363998      410.332508    ;  uncertainty theta = 0.001972, k = 0.092032
        11        12        13     1      121.166641      520.322945    ;  uncertainty theta = 0.001889, k = 0.047519
        11        12        43     1      118.895851      266.730000    ;  uncertainty theta = 0.002264, k = 0.064094
        11        16        15     1      121.166641      520.322945    ;  uncertainty theta = 0.001889, k = 0.047519
        11        16        47     1      118.895851      266.730000    ;  uncertainty theta = 0.002264, k = 0.064094
        12        11        16     1      120.206970      460.017476    ;  uncertainty theta = 0.003029, k = 0.098153
        12        13        14     1      119.685776      513.267201    ;  uncertainty theta = 0.000971, k = 0.012607
        12        13        44     1      120.211227      283.897609    ;  uncertainty theta = 0.001315, k = 0.018226
        13        12        43     1      120.235497      292.477280    ;  uncertainty theta = 0.001696, k = 0.031107
        13        14        15     1      118.246803      526.555213    ;  uncertainty theta = 0.000903, k = 0.024014
        13        14        45     1      120.647278      289.320829    ;  uncertainty theta = 0.001403, k = 0.006566
        14        13        44     1      120.620949      287.638764    ;  uncertainty theta = 0.001444, k = 0.012507
        14        15        16     1      119.685776      513.267201    ;  uncertainty theta = 0.000971, k = 0.012607
        14        15        46     1      120.620949      287.638700    ;  uncertainty theta = 0.001444, k = 0.012507
        15        14        45     1      120.647278      289.320829    ;  uncertainty theta = 0.001403, k = 0.006566
        15        16        47     1      120.235497      292.477280    ;  uncertainty theta = 0.001696, k = 0.031107
        16        15        46     1      120.211227      283.897609    ;  uncertainty theta = 0.001315, k = 0.018226
        17        10        42     1      107.718811      454.950307    ;  uncertainty theta = 0.004217, k = 0.106072
        17        18        19     1      121.010925      490.434631    ;  uncertainty theta = 0.004737, k = 0.299349
        17        18        25     1      123.090271      487.003593    ;  uncertainty theta = 0.010770, k = 0.290863
        18        17        48     1      111.789696      373.989977    ;  uncertainty theta = 0.004991, k = 0.141848
        18        19        20     1      115.970947      451.665660    ;  uncertainty theta = 0.002831, k = 0.265714
        18        19        21     1      124.330299      367.029742    ;  uncertainty theta = 0.001563, k = 0.160060
        18        25        24     1      121.913986      459.339210    ;  uncertainty theta = 0.004758, k = 0.159351
        18        25        26     1      119.087234      362.179032    ;  uncertainty theta = 0.006694, k = 0.422559
        19        18        25     1      117.604980      363.872047    ;  uncertainty theta = 0.009116, k = 0.296569
        19        21        22     1      118.018143      468.922362    ;  uncertainty theta = 0.002596, k = 0.127875
        19        21        49     1      120.544006      276.883235    ;  uncertainty theta = 0.000751, k = 0.076308
        20        19        21     1      119.441208      519.198131    ;  uncertainty theta = 0.002189, k = 0.151105
        21        22        23     1      120.090111      453.895465    ;  uncertainty theta = 0.001202, k = 0.074147
        21        22        24     1      121.606979      376.437613    ;  uncertainty theta = 0.002272, k = 0.176070
        22        21        49     1      122.424194      280.627199    ;  uncertainty theta = 0.001825, k = 0.067727
        22        24        25     1      120.608704      494.889420    ;  uncertainty theta = 0.003912, k = 0.076519
        22        24        50     1      120.671410      289.351570    ;  uncertainty theta = 0.001601, k = 0.094599
        23        22        24     1      120.624161      437.884623    ;  uncertainty theta = 0.001042, k = 0.080217
        24        25        26     1      119.211227      405.890998    ;  uncertainty theta = 0.004528, k = 0.175669
        25        24        50     1      119.143982      263.665244    ;  uncertainty theta = 0.003062, k = 0.105905
        25        26        27     1      108.699768      637.476222    ;  uncertainty theta = 0.007320, k = 0.316633
        25        26        51     1      108.668015      390.609592    ;  uncertainty theta = 0.003997, k = 0.078223
        26         9        41     1      106.208725      398.952534    ;  uncertainty theta = 0.003821, k = 0.099489
        27         6        36     1      107.428177      460.554266    ;  uncertainty theta = 0.002033, k = 0.138843
        27        26        51     1      105.887230      446.814695    ;  uncertainty theta = 0.004799, k = 0.109236
        29         2        30     1      107.474899      304.922726    ;  uncertainty theta = 0.001855, k = 0.448112
        31         3        32     1      108.560608      319.515269    ;  uncertainty theta = 0.003196, k = 0.056242
        33         4        52     1      107.773331      386.893176    ;  uncertainty theta = 0.004406, k = 0.143563
        34         5        35     1      108.388832      320.237331    ;  uncertainty theta = 0.003363, k = 0.032006
        37         7        38     1      105.294052      315.680074    ;  uncertainty theta = 0.003522, k = 0.050334
        39         8        40     1      104.613731      315.378257    ;  uncertainty theta = 0.002142, k = 0.035841

[ dihedrals ] ; propers for gromacs 4.5 or higher, use funct 9
;       ai        aj        ak        al funct           phase               k        pn
         1         2         3         4     9        0.000000        2.683533         1    ;  uncertainty k = 0.631246
         1         2         3         4     9      180.000000       -4.361473         2    ;  uncertainty k = 0.629064
         1         2         3         4     9        0.000000        1.469808         3    ;  uncertainty k = 0.211509
         1         2         3         4     9      180.000000       -0.465341         4    ;  uncertainty k = 0.131562
         1         2         3        31     9        0.000000       -0.861100         1    ;  uncertainty k = 0.801281
         1         2         3        31     9      180.000000       -0.215594         2    ;  uncertainty k = 0.622579
         1         2         3        31     9        0.000000        1.069849         3    ;  uncertainty k = 0.348920
         1         2         3        31     9      180.000000       -0.077430         4    ;  uncertainty k = 0.239914
         1         2         3        32     9        0.000000       -0.861100         1    ;  uncertainty k = 0.801281
         1         2         3        32     9      180.000000       -0.215594         2    ;  uncertainty k = 0.622579
         1         2         3        32     9        0.000000        1.069849         3    ;  uncertainty k = 0.348920
         1         2         3        32     9      180.000000       -0.077430         4    ;  uncertainty k = 0.239914
         2         3         4         5     9        0.000000       -0.472562         1    ;  uncertainty k = 0.903907
         2         3         4         5     9      180.000000       -0.070512         2    ;  uncertainty k = 0.433264
         2         3         4         5     9        0.000000        0.950010         3    ;  uncertainty k = 0.167060
         2         3         4         5     9      180.000000       -0.067160         4    ;  uncertainty k = 0.112770
         2         3         4        33     9        0.000000        1.405645         1    ;  uncertainty k = 1.152491
         2         3         4        33     9      180.000000       -0.653037         2    ;  uncertainty k = 0.523552
         2         3         4        33     9        0.000000        0.635843         3    ;  uncertainty k = 0.152480
         2         3         4        33     9      180.000000       -0.188745         4    ;  uncertainty k = 0.158819
         2         3         4        52     9        0.000000        1.405646         1    ;  uncertainty k = 1.152491
         2         3         4        52     9      180.000000       -0.653036         2    ;  uncertainty k = 0.523551
         2         3         4        52     9        0.000000        0.635843         3    ;  uncertainty k = 0.152480
         2         3         4        52     9      180.000000       -0.188746         4    ;  uncertainty k = 0.158820
         3         2         1        28     9        0.000000       12.925707         1    ;  uncertainty k = 0.252441
         3         2         1        28     9      180.000000       -4.279067         2    ;  uncertainty k = 0.448154
         3         2         1        28     9        0.000000        1.405776         3    ;  uncertainty k = 0.183529
         3         2         1        28     9      180.000000        0.341637         4    ;  uncertainty k = 0.050808
         3         4         5         6     9        0.000000       -0.508168         1    ;  uncertainty k = 1.055705
         3         4         5         6     9      180.000000       -0.160599         2    ;  uncertainty k = 0.453194
         3         4         5         6     9        0.000000        0.952838         3    ;  uncertainty k = 0.124502
         3         4         5         6     9      180.000000       -0.099471         4    ;  uncertainty k = 0.148913
         3         4         5        34     9        0.000000       -0.208713         1    ;  uncertainty k = 0.596894
         3         4         5        34     9      180.000000       -0.635339         2    ;  uncertainty k = 0.237308
         3         4         5        34     9        0.000000        1.059526         3    ;  uncertainty k = 0.107348
         3         4         5        34     9      180.000000       -0.041248         4    ;  uncertainty k = 0.164974
         3         4         5        35     9        0.000000       -0.208713         1    ;  uncertainty k = 0.596894
         3         4         5        35     9      180.000000       -0.635339         2    ;  uncertainty k = 0.237308
         3         4         5        35     9        0.000000        1.059526         3    ;  uncertainty k = 0.107348
         3         4         5        35     9      180.000000       -0.041248         4    ;  uncertainty k = 0.164974
         4         3         2        29     9        0.000000       -0.539255         1    ;  uncertainty k = 0.566411
         4         3         2        29     9      180.000000       -2.763737         2    ;  uncertainty k = 0.669020
         4         3         2        29     9        0.000000        0.968974         3    ;  uncertainty k = 0.269734
         4         3         2        29     9      180.000000       -0.110965         4    ;  uncertainty k = 0.146449
         4         3         2        30     9        0.000000       -0.539255         1    ;  uncertainty k = 0.566411
         4         3         2        30     9      180.000000       -2.763737         2    ;  uncertainty k = 0.669020
         4         3         2        30     9        0.000000        0.968974         3    ;  uncertainty k = 0.269734
         4         3         2        30     9      180.000000       -0.110965         4    ;  uncertainty k = 0.146449
         4         5         6         7     9        0.000000        0.047872         1    ;  uncertainty k = 1.966374
         4         5         6         7     9      180.000000       -0.353529         2    ;  uncertainty k = 0.464332
         4         5         6         7     9        0.000000        1.319470         3    ;  uncertainty k = 0.187634
         4         5         6         7     9      180.000000       -0.254117         4    ;  uncertainty k = 0.242436
         4         5         6        27     9        0.000000        2.507083         1    ;  uncertainty k = 1.373155
         4         5         6        27     9      180.000000       -3.564473         2    ;  uncertainty k = 0.853375
         4         5         6        27     9        0.000000        1.565974         3    ;  uncertainty k = 0.564229
         4         5         6        27     9      180.000000       -0.415515         4    ;  uncertainty k = 0.264463
         4         5         6        36     9        0.000000       -1.665673         1    ;  uncertainty k = 1.050696
         4         5         6        36     9      180.000000       -3.174976         2    ;  uncertainty k = 0.734908
         4         5         6        36     9        0.000000        0.880204         3    ;  uncertainty k = 0.319946
         4         5         6        36     9      180.000000       -0.105241         4    ;  uncertainty k = 0.152992
         5         4         3        31     9        0.000000       -0.354813         1    ;  uncertainty k = 0.489273
         5         4         3        31     9      180.000000       -0.557901         2    ;  uncertainty k = 0.465207
         5         4         3        31     9        0.000000        1.117536         3    ;  uncertainty k = 0.057782
         5         4         3        31     9      180.000000       -0.010770         4    ;  uncertainty k = 0.152785
         5         4         3        32     9        0.000000       -0.354813         1    ;  uncertainty k = 0.489273
         5         4         3        32     9      180.000000       -0.557901         2    ;  uncertainty k = 0.465207
         5         4         3        32     9        0.000000        1.117536         3    ;  uncertainty k = 0.057782
         5         4         3        32     9      180.000000       -0.010770         4    ;  uncertainty k = 0.152785
         5         6         7         8     9        0.000000       -2.837427         1    ;  uncertainty k = 0.844274
         5         6         7         8     9      180.000000        0.092590         2    ;  uncertainty k = 0.400499
         5         6         7         8     9        0.000000        0.741874         3    ;  uncertainty k = 0.146350
         5         6         7         8     9      180.000000       -0.459114         4    ;  uncertainty k = 0.104607
         5         6         7        37     9        0.000000       -1.143111         1    ;  uncertainty k = 0.986956
         5         6         7        37     9      180.000000       -0.708458         2    ;  uncertainty k = 0.270730
         5         6         7        37     9        0.000000        0.398865         3    ;  uncertainty k = 0.162522
         5         6         7        37     9      180.000000       -0.298247         4    ;  uncertainty k = 0.138358
         5         6         7        38     9        0.000000       -1.143111         1    ;  uncertainty k = 0.986956
         5         6         7        38     9      180.000000       -0.708458         2    ;  uncertainty k = 0.270730
         5         6         7        38     9        0.000000        0.398865         3    ;  uncertainty k = 0.162522
         5         6         7        38     9      180.000000       -0.298247         4    ;  uncertainty k = 0.138358
         5         6        27        26     9        0.000000       -5.350418         1    ;  uncertainty k = 1.368462
         5         6        27        26     9      180.000000       -0.852344         2    ;  uncertainty k = 0.780005
         5         6        27        26     9        0.000000        0.659324         3    ;  uncertainty k = 0.327499
         5         6        27        26     9      180.000000       -0.111900         4    ;  uncertainty k = 0.161551
         6         5         4        33     9        0.000000        1.055599         1    ;  uncertainty k = 0.772575
         6         5         4        33     9      180.000000       -0.422049         2    ;  uncertainty k = 0.406155
         6         5         4        33     9        0.000000        0.618833         3    ;  uncertainty k = 0.120585
         6         5         4        33     9      180.000000       -0.147912         4    ;  uncertainty k = 0.124019
         6         5         4        52     9        0.000000        1.055599         1    ;  uncertainty k = 0.772575
         6         5         4        52     9      180.000000       -0.422048         2    ;  uncertainty k = 0.406155
         6         5         4        52     9        0.000000        0.618832         3    ;  uncertainty k = 0.120585
         6         5         4        52     9      180.000000       -0.147912         4    ;  uncertainty k = 0.124019
         6         7         8         9     9        0.000000       -4.320096         1    ;  uncertainty k = 0.768233
         6         7         8         9     9      180.000000       -0.586157         2    ;  uncertainty k = 0.854142
         6         7         8         9     9        0.000000        1.210084         3    ;  uncertainty k = 0.263819
         6         7         8         9     9      180.000000       -0.790653         4    ;  uncertainty k = 0.124515
         6         7         8        39     9        0.000000       -0.922499         1    ;  uncertainty k = 0.464882
         6         7         8        39     9      180.000000       -0.763099         2    ;  uncertainty k = 0.250828
         6         7         8        39     9        0.000000        0.443622         3    ;  uncertainty k = 0.162657
         6         7         8        39     9      180.000000        0.025004         4    ;  uncertainty k = 0.049793
         6         7         8        40     9        0.000000       -0.922498         1    ;  uncertainty k = 0.464882
         6         7         8        40     9      180.000000       -0.763101         2    ;  uncertainty k = 0.250830
         6         7         8        40     9        0.000000        0.443621         3    ;  uncertainty k = 0.162657
         6         7         8        40     9      180.000000        0.025004         4    ;  uncertainty k = 0.049793
         6        27        26         9     9        0.000000        4.079325         1    ;  uncertainty k = 1.673658
         6        27        26         9     9      180.000000       -1.577355         2    ;  uncertainty k = 1.256599
         6        27        26         9     9        0.000000        0.138926         3    ;  uncertainty k = 0.210254
         6        27        26         9     9      180.000000        0.092645         4    ;  uncertainty k = 0.212363
         6        27        26        25     9        0.000000       -1.890255         1    ;  uncertainty k = 1.409545
         6        27        26        25     9      180.000000       -1.194215         2    ;  uncertainty k = 0.912864
         6        27        26        25     9        0.000000        0.932104         3    ;  uncertainty k = 0.452936
         6        27        26        25     9      180.000000       -0.033748         4    ;  uncertainty k = 0.158506
         6        27        26        51     9        0.000000       -2.279461         1    ;  uncertainty k = 0.746901
         6        27        26        51     9      180.000000       -0.800195         2    ;  uncertainty k = 0.623518
         6        27        26        51     9        0.000000        0.471497         3    ;  uncertainty k = 0.135310
         6        27        26        51     9      180.000000       -0.111217         4    ;  uncertainty k = 0.131537
         7         6         5        34     9        0.000000       -1.213637         1    ;  uncertainty k = 0.742124
         7         6         5        34     9      180.000000        0.127096         2    ;  uncertainty k = 0.242473
         7         6         5        34     9        0.000000        0.511705         3    ;  uncertainty k = 0.153241
         7         6         5        34     9      180.000000       -0.153416         4    ;  uncertainty k = 0.074155
         7         6         5        35     9        0.000000       -1.213637         1    ;  uncertainty k = 0.742124
         7         6         5        35     9      180.000000        0.127096         2    ;  uncertainty k = 0.242473
         7         6         5        35     9        0.000000        0.511705         3    ;  uncertainty k = 0.153241
         7         6         5        35     9      180.000000       -0.153416         4    ;  uncertainty k = 0.074155
         7         6        27        26     9        0.000000        1.479278         1    ;  uncertainty k = 3.128672
         7         6        27        26     9      180.000000       -1.580548         2    ;  uncertainty k = 0.315844
         7         6        27        26     9        0.000000        0.075232         3    ;  uncertainty k = 0.466589
         7         6        27        26     9      180.000000        0.019758         4    ;  uncertainty k = 0.229469
         7         8         9        10     9        0.000000       -3.363170         1    ;  uncertainty k = 0.742268
         7         8         9        10     9      180.000000        0.071751         2    ;  uncertainty k = 0.312799
         7         8         9        10     9        0.000000        1.124568         3    ;  uncertainty k = 0.200626
         7         8         9        10     9      180.000000       -0.475393         4    ;  uncertainty k = 0.204527
         7         8         9        26     9        0.000000       -3.106816         1    ;  uncertainty k = 0.476949
         7         8         9        26     9      180.000000        0.169164         2    ;  uncertainty k = 0.508243
         7         8         9        26     9        0.000000        1.016932         3    ;  uncertainty k = 0.222132
         7         8         9        26     9      180.000000       -0.720945         4    ;  uncertainty k = 0.109372
         7         8         9        41     9        0.000000       -2.352554         1    ;  uncertainty k = 0.594151
         7         8         9        41     9      180.000000        0.210550         2    ;  uncertainty k = 0.333282
         7         8         9        41     9        0.000000        0.038572         3    ;  uncertainty k = 0.071262
         7         8         9        41     9      180.000000       -0.090296         4    ;  uncertainty k = 0.093046
         8         7         6        27     9        0.000000       -2.529950         1    ;  uncertainty k = 0.756157
         8         7         6        27     9      180.000000       -0.401470         2    ;  uncertainty k = 0.834613
         8         7         6        27     9        0.000000        1.400013         3    ;  uncertainty k = 0.419330
         8         7         6        27     9      180.000000       -0.409224         4    ;  uncertainty k = 0.366526
         8         7         6        36     9        0.000000       -0.221605         1    ;  uncertainty k = 0.652087
         8         7         6        36     9      180.000000       -1.252690         2    ;  uncertainty k = 0.422131
         8         7         6        36     9        0.000000       -0.142149         3    ;  uncertainty k = 0.170898
         8         7         6        36     9      180.000000        0.106023         4    ;  uncertainty k = 0.141706
         8         9        10        11     9        0.000000       -0.447922         1    ;  uncertainty k = 0.366790
         8         9        10        11     9      180.000000        0.088146         2    ;  uncertainty k = 0.221033
         8         9        10        11     9        0.000000        1.028729         3    ;  uncertainty k = 0.140036
         8         9        10        11     9      180.000000       -0.032074         4    ;  uncertainty k = 0.096594
         8         9        10        17     9        0.000000       -2.577169         1    ;  uncertainty k = 0.352701
         8         9        10        17     9      180.000000        0.569582         2    ;  uncertainty k = 0.358597
         8         9        10        17     9        0.000000        1.081273         3    ;  uncertainty k = 0.202969
         8         9        10        17     9      180.000000       -0.299721         4    ;  uncertainty k = 0.285730
         8         9        10        42     9        0.000000       -0.342724         1    ;  uncertainty k = 0.368858
         8         9        10        42     9      180.000000       -0.364333         2    ;  uncertainty k = 0.206572
         8         9        10        42     9        0.000000        0.086826         3    ;  uncertainty k = 0.165536
         8         9        10        42     9      180.000000       -0.107598         4    ;  uncertainty k = 0.079866
         8         9        26        25     9        0.000000       -1.687451         1    ;  uncertainty k = 1.004828
         8         9        26        25     9      180.000000       -0.675662         2    ;  uncertainty k = 0.264606
         8         9        26        25     9        0.000000        0.632482         3    ;  uncertainty k = 0.181121
         8         9        26        25     9      180.000000       -0.191635         4    ;  uncertainty k = 0.127100
         8         9        26        27     9        0.000000       -1.390168         1    ;  uncertainty k = 0.742118
         8         9        26        27     9      180.000000       -1.615571         2    ;  uncertainty k = 0.845206
         8         9        26        27     9        0.000000        1.010438         3    ;  uncertainty k = 0.358446
         8         9        26        27     9      180.000000       -0.088570         4    ;  uncertainty k = 0.276780
         8         9        26        51     9        0.000000        0.260985         1    ;  uncertainty k = 0.540342
         8         9        26        51     9      180.000000       -0.443722         2    ;  uncertainty k = 0.384731
         8         9        26        51     9        0.000000       -0.185059         3    ;  uncertainty k = 0.150982
         8         9        26        51     9      180.000000       -0.042376         4    ;  uncertainty k = 0.136310
         9         8         7        37     9        0.000000       -0.843110         1    ;  uncertainty k = 0.414564
         9         8         7        37     9      180.000000       -0.523802         2    ;  uncertainty k = 0.298175
         9         8         7        37     9        0.000000        0.489652         3    ;  uncertainty k = 0.086635
         9         8         7        37     9      180.000000       -0.059656         4    ;  uncertainty k = 0.079811
         9         8         7        38     9        0.000000       -0.843110         1    ;  uncertainty k = 0.414564
         9         8         7        38     9      180.000000       -0.523802         2    ;  uncertainty k = 0.298175
         9         8         7        38     9        0.000000        0.489652         3    ;  uncertainty k = 0.086635
         9         8         7        38     9      180.000000       -0.059656         4    ;  uncertainty k = 0.079811
         9        10        11        12     9        0.000000       -0.111537         1    ;  uncertainty k = 0.709383
         9        10        11        12     9      180.000000        1.832259         2    ;  uncertainty k = 0.233886
         9        10        11        12     9        0.000000        0.274101         3    ;  uncertainty k = 0.144963
         9        10        11        12     9      180.000000        0.245319         4    ;  uncertainty k = 0.077451
         9        10        11        16     9        0.000000       -0.111537         1    ;  uncertainty k = 0.709383
         9        10        11        16     9      180.000000        1.832259         2    ;  uncertainty k = 0.233886
         9        10        11        16     9        0.000000        0.274101         3    ;  uncertainty k = 0.144963
         9        10        11        16     9      180.000000        0.245319         4    ;  uncertainty k = 0.077451
         9        10        17        18     9        0.000000        0.548068         1    ;  uncertainty k = 1.309096
         9        10        17        18     9      180.000000        0.291283         2    ;  uncertainty k = 0.543452
         9        10        17        18     9        0.000000        0.281390         3    ;  uncertainty k = 0.230791
         9        10        17        18     9      180.000000        0.171171         4    ;  uncertainty k = 0.179397
         9        10        17        48     9        0.000000        3.364422         1    ;  uncertainty k = 0.792659
         9        10        17        48     9      180.000000       -1.771652         2    ;  uncertainty k = 1.305731
         9        10        17        48     9        0.000000        0.478059         3    ;  uncertainty k = 0.318344
         9        10        17        48     9      180.000000       -0.021921         4    ;  uncertainty k = 0.075868
         9        26        25        18     9        0.000000        0.193284         1    ;  uncertainty k = 2.545596
         9        26        25        18     9      180.000000        0.146880         2    ;  uncertainty k = 1.265692
         9        26        25        18     9        0.000000       -0.032232         3    ;  uncertainty k = 0.758173
         9        26        25        18     9      180.000000        0.765620         4    ;  uncertainty k = 0.215492
         9        26        25        24     9        0.000000       -1.528974         1    ;  uncertainty k = 0.624068
         9        26        25        24     9      180.000000        0.045292         2    ;  uncertainty k = 0.482152
         9        26        25        24     9        0.000000       -0.118365         3    ;  uncertainty k = 0.189720
         9        26        25        24     9      180.000000        0.407954         4    ;  uncertainty k = 0.143104
        10         9         8        39     9        0.000000        0.103087         1    ;  uncertainty k = 0.332245
        10         9         8        39     9      180.000000       -0.605754         2    ;  uncertainty k = 0.237562
        10         9         8        39     9        0.000000        0.476132         3    ;  uncertainty k = 0.090982
        10         9         8        39     9      180.000000       -0.048434         4    ;  uncertainty k = 0.096566
        10         9         8        40     9        0.000000        0.103088         1    ;  uncertainty k = 0.332242
        10         9         8        40     9      180.000000       -0.605754         2    ;  uncertainty k = 0.237562
        10         9         8        40     9        0.000000        0.476132         3    ;  uncertainty k = 0.090982
        10         9         8        40     9      180.000000       -0.048434         4    ;  uncertainty k = 0.096566
        10         9        26        25     9        0.000000        1.162043         1    ;  uncertainty k = 1.028620
        10         9        26        25     9      180.000000       -2.135124         2    ;  uncertainty k = 0.473236
        10         9        26        25     9        0.000000        0.269660         3    ;  uncertainty k = 0.216905
        10         9        26        25     9      180.000000       -0.143995         4    ;  uncertainty k = 0.160305
        10         9        26        27     9        0.000000       -0.864572         1    ;  uncertainty k = 1.097987
        10         9        26        27     9      180.000000       -3.567395         2    ;  uncertainty k = 1.446900
        10         9        26        27     9        0.000000        0.694240         3    ;  uncertainty k = 0.271797
        10         9        26        27     9      180.000000        0.062424         4    ;  uncertainty k = 0.372145
        10         9        26        51     9        0.000000        0.817996         1    ;  uncertainty k = 0.702865
        10         9        26        51     9      180.000000       -0.971637         2    ;  uncertainty k = 0.520579
        10         9        26        51     9        0.000000       -0.242760         3    ;  uncertainty k = 0.105156
        10         9        26        51     9      180.000000       -0.003948         4    ;  uncertainty k = 0.204582
        10        11        12        13     9        0.000000        0.315475         1    ;  uncertainty k = 0.262602
        10        11        12        13     9      180.000000        8.621091         2    ;  uncertainty k = 0.465138
        10        11        12        13     9        0.000000        1.453888         3    ;  uncertainty k = 0.336787
        10        11        12        13     9      180.000000        1.906667         4    ;  uncertainty k = 0.204333
        10        11        12        43     9        0.000000        0.041226         1    ;  uncertainty k = 0.295434
        10        11        12        43     9      180.000000        7.823420         2    ;  uncertainty k = 0.255813
        10        11        12        43     9        0.000000        0.567730         3    ;  uncertainty k = 0.365385
        10        11        12        43     9      180.000000        0.878203         4    ;  uncertainty k = 0.166432
        10        11        16        15     9        0.000000        0.315475         1    ;  uncertainty k = 0.262602
        10        11        16        15     9      180.000000        8.621091         2    ;  uncertainty k = 0.465138
        10        11        16        15     9        0.000000        1.453888         3    ;  uncertainty k = 0.336787
        10        11        16        15     9      180.000000        1.906667         4    ;  uncertainty k = 0.204333
        10        11        16        47     9        0.000000        0.041226         1    ;  uncertainty k = 0.295434
        10        11        16        47     9      180.000000        7.823420         2    ;  uncertainty k = 0.255813
        10        11        16        47     9        0.000000        0.567730         3    ;  uncertainty k = 0.365385
        10        11        16        47     9      180.000000        0.878203         4    ;  uncertainty k = 0.166432
        10        17        18        19     9        0.000000        2.352779         1    ;  uncertainty k = 1.717334
        10        17        18        19     9      180.000000        2.381757         2    ;  uncertainty k = 0.915067
        10        17        18        19     9        0.000000        0.725986         3    ;  uncertainty k = 0.337987
        10        17        18        19     9      180.000000        0.373315         4    ;  uncertainty k = 0.145269
        10        17        18        25     9        0.000000        3.311740         1    ;  uncertainty k = 1.251880
        10        17        18        25     9      180.000000        1.841296         2    ;  uncertainty k = 0.699894
        10        17        18        25     9        0.000000       -0.324185         3    ;  uncertainty k = 0.371095
        10        17        18        25     9      180.000000        0.553658         4    ;  uncertainty k = 0.225031
        11        10         9        26     9        0.000000       -0.584405         1    ;  uncertainty k = 0.748772
        11        10         9        26     9      180.000000       -0.384973         2    ;  uncertainty k = 0.404971
        11        10         9        26     9        0.000000        0.411764         3    ;  uncertainty k = 0.219247
        11        10         9        26     9      180.000000       -0.043238         4    ;  uncertainty k = 0.142838
        11        10         9        41     9        0.000000        0.521826         1    ;  uncertainty k = 0.245890
        11        10         9        41     9      180.000000        0.128842         2    ;  uncertainty k = 0.617819
        11        10         9        41     9        0.000000        0.456514         3    ;  uncertainty k = 0.077842
        11        10         9        41     9      180.000000       -0.031889         4    ;  uncertainty k = 0.109122
        11        10        17        18     9        0.000000       -1.271087         1    ;  uncertainty k = 0.767769
        11        10        17        18     9      180.000000        0.111683         2    ;  uncertainty k = 0.136914
        11        10        17        18     9        0.000000        1.047349         3    ;  uncertainty k = 0.234418
        11        10        17        18     9      180.000000        0.230458         4    ;  uncertainty k = 0.093726
        11        10        17        48     9        0.000000        4.853101         1    ;  uncertainty k = 0.666151
        11        10        17        48     9      180.000000       -0.863729         2    ;  uncertainty k = 0.353945
        11        10        17        48     9        0.000000        0.434146         3    ;  uncertainty k = 0.251029
        11        10        17        48     9      180.000000       -0.043424         4    ;  uncertainty k = 0.187740
        11        12        13        14     9        0.000000       -0.073185         1    ;  uncertainty k = 0.135863
        11        12        13        14     9      180.000000       13.840581         2    ;  uncertainty k = 0.218470
        11        12        13        14     9        0.000000       -0.942124         3    ;  uncertainty k = 0.500159
        11        12        13        14     9      180.000000        0.720226         4    ;  uncertainty k = 0.249573
        11        12        13        44     9        0.000000        0.078937         1    ;  uncertainty k = 0.238410
        11        12        13        44     9      180.000000        7.523904         2    ;  uncertainty k = 0.411008
        11        12        13        44     9        0.000000        1.486224         3    ;  uncertainty k = 0.266910
        11        12        13        44     9      180.000000        1.791252         4    ;  uncertainty k = 0.130361
        11        16        15        14     9        0.000000       -0.073185         1    ;  uncertainty k = 0.135863
        11        16        15        14     9      180.000000       13.840581         2    ;  uncertainty k = 0.218470
        11        16        15        14     9        0.000000       -0.942124         3    ;  uncertainty k = 0.500159
        11        16        15        14     9      180.000000        0.720226         4    ;  uncertainty k = 0.249573
        11        16        15        46     9        0.000000        0.078937         1    ;  uncertainty k = 0.238410
        11        16        15        46     9      180.000000        7.523904         2    ;  uncertainty k = 0.411008
        11        16        15        46     9        0.000000        1.486224         3    ;  uncertainty k = 0.266910
        11        16        15        46     9      180.000000        1.791252         4    ;  uncertainty k = 0.130361
        12        11        10        17     9        0.000000       -0.587440         1    ;  uncertainty k = 0.650241
        12        11        10        17     9      180.000000        2.752986         2    ;  uncertainty k = 0.235149
        12        11        10        17     9        0.000000        0.633136         3    ;  uncertainty k = 0.233844
        12        11        10        17     9      180.000000        0.456102         4    ;  uncertainty k = 0.027417
        12        11        10        42     9        0.000000       -0.605120         1    ;  uncertainty k = 0.219677
        12        11        10        42     9      180.000000        2.297380         2    ;  uncertainty k = 0.337137
        12        11        10        42     9        0.000000        0.473321         3    ;  uncertainty k = 0.111321
        12        11        10        42     9      180.000000        0.234329         4    ;  uncertainty k = 0.048057
        12        11        16        15     9        0.000000       -0.244750         1    ;  uncertainty k = 0.085030
        12        11        16        15     9      180.000000       11.550238         2    ;  uncertainty k = 0.281782
        12        11        16        15     9        0.000000       -0.471965         3    ;  uncertainty k = 0.307308
        12        11        16        15     9      180.000000        0.819629         4    ;  uncertainty k = 0.339588
        12        11        16        47     9        0.000000        0.103785         1    ;  uncertainty k = 0.115164
        12        11        16        47     9      180.000000        7.232566         2    ;  uncertainty k = 0.479326
        12        11        16        47     9        0.000000        1.441609         3    ;  uncertainty k = 0.358039
        12        11        16        47     9      180.000000        1.626932         4    ;  uncertainty k = 0.180627
        12        13        14        15     9        0.000000        0.003338         1    ;  uncertainty k = 0.036528
        12        13        14        15     9      180.000000       15.061872         2    ;  uncertainty k = 0.266781
        12        13        14        15     9        0.000000       -1.241530         3    ;  uncertainty k = 0.510933
        12        13        14        15     9      180.000000        0.486539         4    ;  uncertainty k = 0.300059
        12        13        14        45     9        0.000000        0.055743         1    ;  uncertainty k = 0.094833
        12        13        14        45     9      180.000000        7.490470         2    ;  uncertainty k = 0.333391
        12        13        14        45     9        0.000000        1.467121         3    ;  uncertainty k = 0.292765
        12        13        14        45     9      180.000000        1.797081         4    ;  uncertainty k = 0.179698
        13        12        11        16     9        0.000000       -0.244750         1    ;  uncertainty k = 0.085030
        13        12        11        16     9      180.000000       11.550238         2    ;  uncertainty k = 0.281782
        13        12        11        16     9        0.000000       -0.471965         3    ;  uncertainty k = 0.307308
        13        12        11        16     9      180.000000        0.819629         4    ;  uncertainty k = 0.339588
        13        14        15        16     9        0.000000        0.003338         1    ;  uncertainty k = 0.036528
        13        14        15        16     9      180.000000       15.061872         2    ;  uncertainty k = 0.266781
        13        14        15        16     9        0.000000       -1.241530         3    ;  uncertainty k = 0.510933
        13        14        15        16     9      180.000000        0.486539         4    ;  uncertainty k = 0.300059
        13        14        15        46     9        0.000000        0.045944         1    ;  uncertainty k = 0.040455
        13        14        15        46     9      180.000000        7.527539         2    ;  uncertainty k = 0.325490
        13        14        15        46     9        0.000000        1.433627         3    ;  uncertainty k = 0.327115
        13        14        15        46     9      180.000000        1.790207         4    ;  uncertainty k = 0.158460
        14        13        12        43     9        0.000000        0.053110         1    ;  uncertainty k = 0.076538
        14        13        12        43     9      180.000000        7.946075         2    ;  uncertainty k = 0.338884
        14        13        12        43     9        0.000000        1.427770         3    ;  uncertainty k = 0.326160
        14        13        12        43     9      180.000000        1.836126         4    ;  uncertainty k = 0.159402
        14        15        16        47     9        0.000000        0.053110         1    ;  uncertainty k = 0.076538
        14        15        16        47     9      180.000000        7.946075         2    ;  uncertainty k = 0.338884
        14        15        16        47     9        0.000000        1.427770         3    ;  uncertainty k = 0.326160
        14        15        16        47     9      180.000000        1.836126         4    ;  uncertainty k = 0.159402
        15        14        13        44     9        0.000000        0.045944         1    ;  uncertainty k = 0.040455
        15        14        13        44     9      180.000000        7.527539         2    ;  uncertainty k = 0.325490
        15        14        13        44     9        0.000000        1.433627         3    ;  uncertainty k = 0.327115
        15        14        13        44     9      180.000000        1.790207         4    ;  uncertainty k = 0.158460
        16        11        10        17     9        0.000000       -0.587440         1    ;  uncertainty k = 0.650241
        16        11        10        17     9      180.000000        2.752986         2    ;  uncertainty k = 0.235149
        16        11        10        17     9        0.000000        0.633136         3    ;  uncertainty k = 0.233844
        16        11        10        17     9      180.000000        0.456102         4    ;  uncertainty k = 0.027417
        16        11        10        42     9        0.000000       -0.605120         1    ;  uncertainty k = 0.219677
        16        11        10        42     9      180.000000        2.297380         2    ;  uncertainty k = 0.337137
        16        11        10        42     9        0.000000        0.473321         3    ;  uncertainty k = 0.111321
        16        11        10        42     9      180.000000        0.234329         4    ;  uncertainty k = 0.048057
        16        11        12        43     9        0.000000        0.103785         1    ;  uncertainty k = 0.115164
        16        11        12        43     9      180.000000        7.232566         2    ;  uncertainty k = 0.479326
        16        11        12        43     9        0.000000        1.441609         3    ;  uncertainty k = 0.358039
        16        11        12        43     9      180.000000        1.626932         4    ;  uncertainty k = 0.180627
        16        15        14        45     9        0.000000        0.055743         1    ;  uncertainty k = 0.094833
        16        15        14        45     9      180.000000        7.490470         2    ;  uncertainty k = 0.333391
        16        15        14        45     9        0.000000        1.467121         3    ;  uncertainty k = 0.292765
        16        15        14        45     9      180.000000        1.797081         4    ;  uncertainty k = 0.179698
        17        10         9        26     9        0.000000        0.044991         1    ;  uncertainty k = 2.131202
        17        10         9        26     9      180.000000       -1.313112         2    ;  uncertainty k = 0.459716
        17        10         9        26     9        0.000000        0.519541         3    ;  uncertainty k = 0.429460
        17        10         9        26     9      180.000000       -0.148366         4    ;  uncertainty k = 0.391157
        17        10         9        41     9        0.000000       -0.987504         1    ;  uncertainty k = 0.658849
        17        10         9        41     9      180.000000        0.141272         2    ;  uncertainty k = 0.387448
        17        10         9        41     9        0.000000        0.636103         3    ;  uncertainty k = 0.252693
        17        10         9        41     9      180.000000        0.058629         4    ;  uncertainty k = 0.106340
        17        18        19        20     9        0.000000       -0.061352         1    ;  uncertainty k = 0.584373
        17        18        19        20     9      180.000000       11.109707         2    ;  uncertainty k = 0.360450
        17        18        19        20     9        0.000000        0.834232         3    ;  uncertainty k = 0.132934
        17        18        19        20     9      180.000000        1.175836         4    ;  uncertainty k = 0.314090
        17        18        19        21     9        0.000000        0.085940         1    ;  uncertainty k = 0.525052
        17        18        19        21     9      180.000000        6.975069         2    ;  uncertainty k = 0.309603
        17        18        19        21     9        0.000000        1.148104         3    ;  uncertainty k = 0.292968
        17        18        19        21     9      180.000000        1.671938         4    ;  uncertainty k = 0.198887
        17        18        25        24     9        0.000000        0.466159         1    ;  uncertainty k = 0.358589
        17        18        25        24     9      180.000000        7.504093         2    ;  uncertainty k = 0.316774
        17        18        25        24     9        0.000000        0.993075         3    ;  uncertainty k = 0.133552
        17        18        25        24     9      180.000000        1.468521         4    ;  uncertainty k = 0.354322
        17        18        25        26     9        0.000000        0.045421         1    ;  uncertainty k = 0.627766
        17        18        25        26     9      180.000000        7.791525         2    ;  uncertainty k = 1.005710
        17        18        25        26     9        0.000000        0.648585         3    ;  uncertainty k = 0.592581
        17        18        25        26     9      180.000000        1.218557         4    ;  uncertainty k = 0.500900
        18        17        10        42     9        0.000000       -0.908069         1    ;  uncertainty k = 0.551345
        18        17        10        42     9      180.000000       -0.513393         2    ;  uncertainty k = 0.378077
        18        17        10        42     9        0.000000        0.699103         3    ;  uncertainty k = 0.184244
        18        17        10        42     9      180.000000        0.231201         4    ;  uncertainty k = 0.071403
        18        19        21        22     9        0.000000        0.023366         1    ;  uncertainty k = 0.094378
        18        19        21        22     9      180.000000        9.383073         2    ;  uncertainty k = 0.528874
        18        19        21        22     9        0.000000        0.388020         3    ;  uncertainty k = 0.413253
        18        19        21        22     9      180.000000        1.302754         4    ;  uncertainty k = 0.295943
        18        19        21        49     9        0.000000        0.401275         1    ;  uncertainty k = 0.278020
        18        19        21        49     9      180.000000        6.171698         2    ;  uncertainty k = 0.739578
        18        19        21        49     9        0.000000        1.350209         3    ;  uncertainty k = 0.436543
        18        19        21        49     9      180.000000        1.502582         4    ;  uncertainty k = 0.244469
        18        25        24        22     9        0.000000       -0.152208         1    ;  uncertainty k = 0.232118
        18        25        24        22     9      180.000000       12.708094         2    ;  uncertainty k = 0.385594
        18        25        24        22     9        0.000000       -0.388732         3    ;  uncertainty k = 0.445379
        18        25        24        22     9      180.000000        1.061469         4    ;  uncertainty k = 0.371241
        18        25        24        50     9        0.000000        0.395598         1    ;  uncertainty k = 0.424358
        18        25        24        50     9      180.000000        8.060806         2    ;  uncertainty k = 0.713820
        18        25        24        50     9        0.000000        1.426329         3    ;  uncertainty k = 0.289720
        18        25        24        50     9      180.000000        1.649939         4    ;  uncertainty k = 0.124062
        18        25        26        27     9        0.000000       -1.969298         1    ;  uncertainty k = 1.903919
        18        25        26        27     9      180.000000        0.108377         2    ;  uncertainty k = 1.043845
        18        25        26        27     9        0.000000        1.439250         3    ;  uncertainty k = 0.407606
        18        25        26        27     9      180.000000       -0.038547         4    ;  uncertainty k = 0.201897
        18        25        26        51     9        0.000000       -0.410530         1    ;  uncertainty k = 0.804335
        18        25        26        51     9      180.000000        2.152978         2    ;  uncertainty k = 0.248988
        18        25        26        51     9        0.000000        0.459805         3    ;  uncertainty k = 0.308966
        18        25        26        51     9      180.000000       -0.204053         4    ;  uncertainty k = 0.121048
        19        18        17        48     9        0.000000        4.791940         1    ;  uncertainty k = 1.014873
        19        18        17        48     9      180.000000        3.694192         2    ;  uncertainty k = 0.753853
        19        18        17        48     9        0.000000        0.742536         3    ;  uncertainty k = 0.313526
        19        18        17        48     9      180.000000        0.077129         4    ;  uncertainty k = 0.219819
        19        18        25        24     9        0.000000        0.244485         1    ;  uncertainty k = 0.342368
        19        18        25        24     9      180.000000        5.667483         2    ;  uncertainty k = 0.527622
        19        18        25        24     9        0.000000        0.463212         3    ;  uncertainty k = 0.362039
        19        18        25        24     9      180.000000        1.417452         4    ;  uncertainty k = 0.298361
        19        18        25        26     9        0.000000        0.652483         1    ;  uncertainty k = 0.590196
        19        18        25        26     9      180.000000        5.690719         2    ;  uncertainty k = 0.461125
        19        18        25        26     9        0.000000        1.217638         3    ;  uncertainty k = 0.391496
        19        18        25        26     9      180.000000        1.465732         4    ;  uncertainty k = 0.259109
        19        21        22        23     9        0.000000        0.137856         1    ;  uncertainty k = 0.423272
        19        21        22        23     9      180.000000        9.128243         2    ;  uncertainty k = 0.673439
        19        21        22        23     9        0.000000        1.383103         3    ;  uncertainty k = 0.564418
        19        21        22        23     9      180.000000        1.659609         4    ;  uncertainty k = 0.158040
        19        21        22        24     9        0.000000        0.017833         1    ;  uncertainty k = 0.213875
        19        21        22        24     9      180.000000        9.648489         2    ;  uncertainty k = 0.446771
        19        21        22        24     9        0.000000       -0.277576         3    ;  uncertainty k = 0.465672
        19        21        22        24     9      180.000000        1.219203         4    ;  uncertainty k = 0.283674
        20        19        18        25     9        0.000000        0.340946         1    ;  uncertainty k = 0.469009
        20        19        18        25     9      180.000000        8.353718         2    ;  uncertainty k = 0.594382
        20        19        18        25     9        0.000000        1.572239         3    ;  uncertainty k = 0.230748
        20        19        18        25     9      180.000000        1.562158         4    ;  uncertainty k = 0.257513
        20        19        21        22     9        0.000000        0.087316         1    ;  uncertainty k = 0.256464
        20        19        21        22     9      180.000000       14.337684         2    ;  uncertainty k = 0.536914
        20        19        21        22     9        0.000000        1.514917         3    ;  uncertainty k = 0.238833
        20        19        21        22     9      180.000000        1.452952         4    ;  uncertainty k = 0.347800
        20        19        21        49     9        0.000000       -0.190080         1    ;  uncertainty k = 0.246767
        20        19        21        49     9      180.000000        9.768210         2    ;  uncertainty k = 0.427611
        20        19        21        49     9        0.000000        0.881513         3    ;  uncertainty k = 0.258525
        20        19        21        49     9      180.000000        1.102225         4    ;  uncertainty k = 0.293820
        21        19        18        25     9        0.000000       -0.110016         1    ;  uncertainty k = 0.658300
        21        19        18        25     9      180.000000        4.284268         2    ;  uncertainty k = 1.612994
        21        19        18        25     9        0.000000        0.437372         3    ;  uncertainty k = 0.523967
        21        19        18        25     9      180.000000        1.324831         4    ;  uncertainty k = 0.338740
        21        22        24        25     9        0.000000        0.072539         1    ;  uncertainty k = 0.189742
        21        22        24        25     9      180.000000        9.456909         2    ;  uncertainty k = 0.354029
        21        22        24        25     9        0.000000       -0.094760         3    ;  uncertainty k = 0.720728
        21        22        24        25     9      180.000000        1.322484         4    ;  uncertainty k = 0.382358
        21        22        24        50     9        0.000000       -0.019276         1    ;  uncertainty k = 0.173040
        21        22        24        50     9      180.000000        6.459723         2    ;  uncertainty k = 0.515800
        21        22        24        50     9        0.000000        1.422385         3    ;  uncertainty k = 0.396410
        21        22        24        50     9      180.000000        1.617620         4    ;  uncertainty k = 0.156864
        22        24        25        26     9        0.000000        0.175527         1    ;  uncertainty k = 0.424105
        22        24        25        26     9      180.000000       10.270344         2    ;  uncertainty k = 0.481845
        22        24        25        26     9        0.000000        1.382118         3    ;  uncertainty k = 0.267009
        22        24        25        26     9      180.000000        1.828081         4    ;  uncertainty k = 0.451702
        23        22        21        49     9        0.000000       -0.068654         1    ;  uncertainty k = 0.162595
        23        22        21        49     9      180.000000        7.037011         2    ;  uncertainty k = 0.311304
        23        22        21        49     9        0.000000        0.618258         3    ;  uncertainty k = 0.395666
        23        22        21        49     9      180.000000        0.954045         4    ;  uncertainty k = 0.204747
        23        22        24        25     9        0.000000        0.018692         1    ;  uncertainty k = 0.158795
        23        22        24        25     9      180.000000        9.639501         2    ;  uncertainty k = 0.571989
        23        22        24        25     9        0.000000        1.396189         3    ;  uncertainty k = 0.493883
        23        22        24        25     9      180.000000        1.613842         4    ;  uncertainty k = 0.087421
        23        22        24        50     9        0.000000       -0.136104         1    ;  uncertainty k = 0.463855
        23        22        24        50     9      180.000000        7.497467         2    ;  uncertainty k = 0.437737
        23        22        24        50     9        0.000000        0.714129         3    ;  uncertainty k = 0.334584
        23        22        24        50     9      180.000000        1.011133         4    ;  uncertainty k = 0.286169
        24        22        21        49     9        0.000000        0.107311         1    ;  uncertainty k = 0.153561
        24        22        21        49     9      180.000000        5.845067         2    ;  uncertainty k = 0.555581
        24        22        21        49     9        0.000000        1.369666         3    ;  uncertainty k = 0.297654
        24        22        21        49     9      180.000000        1.498166         4    ;  uncertainty k = 0.132372
        24        25        26        27     9        0.000000        0.362311         1    ;  uncertainty k = 0.250923
        24        25        26        27     9      180.000000        1.282000         2    ;  uncertainty k = 0.371879
        24        25        26        27     9        0.000000       -0.222227         3    ;  uncertainty k = 0.451073
        24        25        26        27     9      180.000000        0.088191         4    ;  uncertainty k = 0.128464
        24        25        26        51     9        0.000000        0.390175         1    ;  uncertainty k = 0.805630
        24        25        26        51     9      180.000000        1.920184         2    ;  uncertainty k = 0.381359
        24        25        26        51     9        0.000000        0.098003         3    ;  uncertainty k = 0.129289
        24        25        26        51     9      180.000000       -0.001277         4    ;  uncertainty k = 0.178413
        25        18        17        48     9        0.000000       10.002621         1    ;  uncertainty k = 0.551914
        25        18        17        48     9      180.000000        4.889364         2    ;  uncertainty k = 0.522882
        25        18        17        48     9        0.000000        0.343785         3    ;  uncertainty k = 0.276796
        25        18        17        48     9      180.000000        0.197320         4    ;  uncertainty k = 0.187632
        25        26         9        41     9        0.000000       -0.318068         1    ;  uncertainty k = 1.139620
        25        26         9        41     9      180.000000        0.630498         2    ;  uncertainty k = 0.438384
        25        26         9        41     9        0.000000        0.022010         3    ;  uncertainty k = 0.098033
        25        26         9        41     9      180.000000       -0.055692         4    ;  uncertainty k = 0.093263
        26         9         8        39     9        0.000000       -0.382790         1    ;  uncertainty k = 0.500296
        26         9         8        39     9      180.000000       -0.694823         2    ;  uncertainty k = 0.139561
        26         9         8        39     9        0.000000        0.282391         3    ;  uncertainty k = 0.123464
        26         9         8        39     9      180.000000       -0.015028         4    ;  uncertainty k = 0.051596
        26         9         8        40     9        0.000000       -0.382789         1    ;  uncertainty k = 0.500295
        26         9         8        40     9      180.000000       -0.694824         2    ;  uncertainty k = 0.139562
        26         9         8        40     9        0.000000        0.282390         3    ;  uncertainty k = 0.123464
        26         9         8        40     9      180.000000       -0.015028         4    ;  uncertainty k = 0.051596
        26         9        10        42     9        0.000000        0.548442         1    ;  uncertainty k = 0.755209
        26         9        10        42     9      180.000000       -1.399320         2    ;  uncertainty k = 0.692798
        26         9        10        42     9        0.000000       -0.376022         3    ;  uncertainty k = 0.139470
        26         9        10        42     9      180.000000        0.007667         4    ;  uncertainty k = 0.136398
        26        25        24        50     9        0.000000       -0.264178         1    ;  uncertainty k = 0.562544
        26        25        24        50     9      180.000000        8.123675         2    ;  uncertainty k = 0.831057
        26        25        24        50     9        0.000000        0.759893         3    ;  uncertainty k = 0.298259
        26        25        24        50     9      180.000000        1.110836         4    ;  uncertainty k = 0.433404
        26        27         6        36     9        0.000000       -2.029527         1    ;  uncertainty k = 1.614621
        26        27         6        36     9      180.000000       -0.889438         2    ;  uncertainty k = 0.512458
        26        27         6        36     9        0.000000        0.239289         3    ;  uncertainty k = 0.055537
        26        27         6        36     9      180.000000        0.021303         4    ;  uncertainty k = 0.156974
        27         6         5        34     9        0.000000        1.088668         1    ;  uncertainty k = 0.922076
        27         6         5        34     9      180.000000       -0.780178         2    ;  uncertainty k = 0.259401
        27         6         5        34     9        0.000000        0.402228         3    ;  uncertainty k = 0.305893
        27         6         5        34     9      180.000000       -0.111943         4    ;  uncertainty k = 0.203143
        27         6         5        35     9        0.000000        1.088668         1    ;  uncertainty k = 0.922076
        27         6         5        35     9      180.000000       -0.780178         2    ;  uncertainty k = 0.259401
        27         6         5        35     9        0.000000        0.402228         3    ;  uncertainty k = 0.305893
        27         6         5        35     9      180.000000       -0.111943         4    ;  uncertainty k = 0.203143
        27         6         7        37     9        0.000000       -1.128384         1    ;  uncertainty k = 0.404960
        27         6         7        37     9      180.000000       -1.092751         2    ;  uncertainty k = 0.420985
        27         6         7        37     9        0.000000        1.054203         3    ;  uncertainty k = 0.239304
        27         6         7        37     9      180.000000       -0.074301         4    ;  uncertainty k = 0.051165
        27         6         7        38     9        0.000000       -1.128384         1    ;  uncertainty k = 0.404960
        27         6         7        38     9      180.000000       -1.092751         2    ;  uncertainty k = 0.420985
        27         6         7        38     9        0.000000        1.054203         3    ;  uncertainty k = 0.239304
        27         6         7        38     9      180.000000       -0.074301         4    ;  uncertainty k = 0.051165
        27        26         9        41     9        0.000000       -0.600383         1    ;  uncertainty k = 0.311964
        27        26         9        41     9      180.000000        0.363991         2    ;  uncertainty k = 0.540498
        27        26         9        41     9        0.000000        0.108563         3    ;  uncertainty k = 0.296307
        27        26         9        41     9      180.000000       -0.135201         4    ;  uncertainty k = 0.133316
        28         1         2        29     9        0.000000       10.100831         1    ;  uncertainty k = 0.648047
        28         1         2        29     9      180.000000       -1.795529         2    ;  uncertainty k = 0.441826
        28         1         2        29     9        0.000000        0.928764         3    ;  uncertainty k = 0.169212
        28         1         2        29     9      180.000000        0.140937         4    ;  uncertainty k = 0.056483
        28         1         2        30     9        0.000000       10.100831         1    ;  uncertainty k = 0.648047
        28         1         2        30     9      180.000000       -1.795529         2    ;  uncertainty k = 0.441826
        28         1         2        30     9        0.000000        0.928764         3    ;  uncertainty k = 0.169212
        28         1         2        30     9      180.000000        0.140937         4    ;  uncertainty k = 0.056483
        29         2         3        31     9        0.000000       -0.310163         1    ;  uncertainty k = 0.378602
        29         2         3        31     9      180.000000        0.324326         2    ;  uncertainty k = 0.188425
        29         2         3        31     9        0.000000        0.280906         3    ;  uncertainty k = 0.115417
        29         2         3        31     9      180.000000        0.031617         4    ;  uncertainty k = 0.062681
        29         2         3        32     9        0.000000       -0.310163         1    ;  uncertainty k = 0.378602
        29         2         3        32     9      180.000000        0.324326         2    ;  uncertainty k = 0.188425
        29         2         3        32     9        0.000000        0.280906         3    ;  uncertainty k = 0.115417
        29         2         3        32     9      180.000000        0.031617         4    ;  uncertainty k = 0.062681
        30         2         3        31     9        0.000000       -0.310163         1    ;  uncertainty k = 0.378602
        30         2         3        31     9      180.000000        0.324326         2    ;  uncertainty k = 0.188425
        30         2         3        31     9        0.000000        0.280906         3    ;  uncertainty k = 0.115417
        30         2         3        31     9      180.000000        0.031617         4    ;  uncertainty k = 0.062681
        30         2         3        32     9        0.000000       -0.310163         1    ;  uncertainty k = 0.378602
        30         2         3        32     9      180.000000        0.324326         2    ;  uncertainty k = 0.188425
        30         2         3        32     9        0.000000        0.280906         3    ;  uncertainty k = 0.115417
        30         2         3        32     9      180.000000        0.031617         4    ;  uncertainty k = 0.062681
        31         3         4        33     9        0.000000        0.153118         1    ;  uncertainty k = 0.686929
        31         3         4        33     9      180.000000       -0.292391         2    ;  uncertainty k = 0.302069
        31         3         4        33     9        0.000000        0.289966         3    ;  uncertainty k = 0.033866
        31         3         4        33     9      180.000000        0.015840         4    ;  uncertainty k = 0.101335
        31         3         4        52     9        0.000000        0.153118         1    ;  uncertainty k = 0.686928
        31         3         4        52     9      180.000000       -0.292391         2    ;  uncertainty k = 0.302071
        31         3         4        52     9        0.000000        0.289966         3    ;  uncertainty k = 0.033866
        31         3         4        52     9      180.000000        0.015840         4    ;  uncertainty k = 0.101335
        32         3         4        33     9        0.000000        0.153118         1    ;  uncertainty k = 0.686929
        32         3         4        33     9      180.000000       -0.292391         2    ;  uncertainty k = 0.302069
        32         3         4        33     9        0.000000        0.289966         3    ;  uncertainty k = 0.033866
        32         3         4        33     9      180.000000        0.015840         4    ;  uncertainty k = 0.101335
        32         3         4        52     9        0.000000        0.153118         1    ;  uncertainty k = 0.686928
        32         3         4        52     9      180.000000       -0.292391         2    ;  uncertainty k = 0.302071
        32         3         4        52     9        0.000000        0.289966         3    ;  uncertainty k = 0.033866
        32         3         4        52     9      180.000000        0.015840         4    ;  uncertainty k = 0.101335
        33         4         5        34     9        0.000000        0.305174         1    ;  uncertainty k = 0.653516
        33         4         5        34     9      180.000000       -0.247475         2    ;  uncertainty k = 0.210074
        33         4         5        34     9        0.000000        0.326831         3    ;  uncertainty k = 0.083787
        33         4         5        34     9      180.000000        0.036196         4    ;  uncertainty k = 0.091066
        33         4         5        35     9        0.000000        0.305174         1    ;  uncertainty k = 0.653516
        33         4         5        35     9      180.000000       -0.247475         2    ;  uncertainty k = 0.210074
        33         4         5        35     9        0.000000        0.326831         3    ;  uncertainty k = 0.083787
        33         4         5        35     9      180.000000        0.036196         4    ;  uncertainty k = 0.091066
        34         5         4        52     9        0.000000        0.305174         1    ;  uncertainty k = 0.653514
        34         5         4        52     9      180.000000       -0.247476         2    ;  uncertainty k = 0.210073
        34         5         4        52     9        0.000000        0.326831         3    ;  uncertainty k = 0.083786
        34         5         4        52     9      180.000000        0.036197         4    ;  uncertainty k = 0.091066
        34         5         6        36     9        0.000000       -0.219767         1    ;  uncertainty k = 0.374285
        34         5         6        36     9      180.000000        0.089708         2    ;  uncertainty k = 0.422747
        34         5         6        36     9        0.000000        0.185737         3    ;  uncertainty k = 0.181212
        34         5         6        36     9      180.000000       -0.050467         4    ;  uncertainty k = 0.056757
        35         5         4        52     9        0.000000        0.305174         1    ;  uncertainty k = 0.653514
        35         5         4        52     9      180.000000       -0.247476         2    ;  uncertainty k = 0.210073
        35         5         4        52     9        0.000000        0.326831         3    ;  uncertainty k = 0.083786
        35         5         4        52     9      180.000000        0.036197         4    ;  uncertainty k = 0.091066
        35         5         6        36     9        0.000000       -0.219767         1    ;  uncertainty k = 0.374285
        35         5         6        36     9      180.000000        0.089708         2    ;  uncertainty k = 0.422747
        35         5         6        36     9        0.000000        0.185737         3    ;  uncertainty k = 0.181212
        35         5         6        36     9      180.000000       -0.050467         4    ;  uncertainty k = 0.056757
        36         6         7        37     9        0.000000        0.457016         1    ;  uncertainty k = 0.161518
        36         6         7        37     9      180.000000        0.072134         2    ;  uncertainty k = 0.349560
        36         6         7        37     9        0.000000       -0.024020         3    ;  uncertainty k = 0.136680
        36         6         7        37     9      180.000000       -0.118652         4    ;  uncertainty k = 0.076008
        36         6         7        38     9        0.000000        0.457016         1    ;  uncertainty k = 0.161518
        36         6         7        38     9      180.000000        0.072134         2    ;  uncertainty k = 0.349560
        36         6         7        38     9        0.000000       -0.024020         3    ;  uncertainty k = 0.136680
        36         6         7        38     9      180.000000       -0.118652         4    ;  uncertainty k = 0.076008
        37         7         8        39     9        0.000000        1.565776         1    ;  uncertainty k = 0.444564
        37         7         8        39     9      180.000000        0.161485         2    ;  uncertainty k = 0.255154
        37         7         8        39     9        0.000000        0.367677         3    ;  uncertainty k = 0.120802
        37         7         8        39     9      180.000000        0.076828         4    ;  uncertainty k = 0.017254
        37         7         8        40     9        0.000000        1.565774         1    ;  uncertainty k = 0.444565
        37         7         8        40     9      180.000000        0.161485         2    ;  uncertainty k = 0.255156
        37         7         8        40     9        0.000000        0.367677         3    ;  uncertainty k = 0.120802
        37         7         8        40     9      180.000000        0.076828         4    ;  uncertainty k = 0.017254
        38         7         8        39     9        0.000000        1.565776         1    ;  uncertainty k = 0.444564
        38         7         8        39     9      180.000000        0.161485         2    ;  uncertainty k = 0.255154
        38         7         8        39     9        0.000000        0.367677         3    ;  uncertainty k = 0.120802
        38         7         8        39     9      180.000000        0.076828         4    ;  uncertainty k = 0.017254
        38         7         8        40     9        0.000000        1.565774         1    ;  uncertainty k = 0.444565
        38         7         8        40     9      180.000000        0.161485         2    ;  uncertainty k = 0.255156
        38         7         8        40     9        0.000000        0.367677         3    ;  uncertainty k = 0.120802
        38         7         8        40     9      180.000000        0.076828         4    ;  uncertainty k = 0.017254
        39         8         9        41     9        0.000000        1.556154         1    ;  uncertainty k = 0.374248
        39         8         9        41     9      180.000000       -0.010848         2    ;  uncertainty k = 0.316684
        39         8         9        41     9        0.000000       -0.074251         3    ;  uncertainty k = 0.123289
        39         8         9        41     9      180.000000        0.022583         4    ;  uncertainty k = 0.073589
        40         8         9        41     9        0.000000        1.556155         1    ;  uncertainty k = 0.374248
        40         8         9        41     9      180.000000       -0.010849         2    ;  uncertainty k = 0.316684
        40         8         9        41     9        0.000000       -0.074252         3    ;  uncertainty k = 0.123289
        40         8         9        41     9      180.000000        0.022583         4    ;  uncertainty k = 0.073589
        41         9        10        42     9        0.000000        1.060795         1    ;  uncertainty k = 0.473342
        41         9        10        42     9      180.000000       -0.041496         2    ;  uncertainty k = 0.253895
        41         9        10        42     9        0.000000       -0.344094         3    ;  uncertainty k = 0.165557
        41         9        10        42     9      180.000000       -0.269487         4    ;  uncertainty k = 0.106351
        41         9        26        51     9        0.000000        2.072757         1    ;  uncertainty k = 0.438813
        41         9        26        51     9      180.000000        0.851211         2    ;  uncertainty k = 0.443420
        41         9        26        51     9        0.000000       -0.469780         3    ;  uncertainty k = 0.235856
        41         9        26        51     9      180.000000       -0.163656         4    ;  uncertainty k = 0.062430
        42        10        17        48     9        0.000000        0.363982         1    ;  uncertainty k = 0.625038
        42        10        17        48     9      180.000000       -0.862575         2    ;  uncertainty k = 0.318184
        42        10        17        48     9        0.000000        0.523809         3    ;  uncertainty k = 0.251385
        42        10        17        48     9      180.000000        0.051527         4    ;  uncertainty k = 0.122685
        43        12        13        44     9        0.000000       -0.038401         1    ;  uncertainty k = 0.034127
        43        12        13        44     9      180.000000        7.644154         2    ;  uncertainty k = 0.255448
        43        12        13        44     9        0.000000       -0.470075         3    ;  uncertainty k = 0.270053
        43        12        13        44     9      180.000000        0.106023         4    ;  uncertainty k = 0.117776
        44        13        14        45     9        0.000000       -0.016279         1    ;  uncertainty k = 0.090335
        44        13        14        45     9      180.000000        7.510681         2    ;  uncertainty k = 0.369437
        44        13        14        45     9        0.000000       -0.422665         3    ;  uncertainty k = 0.276612
        44        13        14        45     9      180.000000        0.041075         4    ;  uncertainty k = 0.155578
        45        14        15        46     9        0.000000       -0.016279         1    ;  uncertainty k = 0.090335
        45        14        15        46     9      180.000000        7.510681         2    ;  uncertainty k = 0.369437
        45        14        15        46     9        0.000000       -0.422665         3    ;  uncertainty k = 0.276612
        45        14        15        46     9      180.000000        0.041075         4    ;  uncertainty k = 0.155578
        46        15        16        47     9        0.000000       -0.038401         1    ;  uncertainty k = 0.034127
        46        15        16        47     9      180.000000        7.644154         2    ;  uncertainty k = 0.255448
        46        15        16        47     9        0.000000       -0.470075         3    ;  uncertainty k = 0.270053
        46        15        16        47     9      180.000000        0.106023         4    ;  uncertainty k = 0.117776

[ dihedrals ] ; impropers
;       ai        aj        ak        al funct           phase               k        pn
        11        10        12        16     4      180.000000       12.872177         2    ;  uncertainty k = 0.122291
        11        12        16        10     4      180.000000       12.872177         2    ;  uncertainty k = 0.122291
        11        16        10        12     4      180.000000       12.872177         2    ;  uncertainty k = 0.122291
        12        11        13        43     4      180.000000        4.073199         2    ;  uncertainty k = 0.089533
        12        13        43        11     4      180.000000        4.073199         2    ;  uncertainty k = 0.089533
        12        43        11        13     4      180.000000        4.073199         2    ;  uncertainty k = 0.089533
        13        12        14        44     4      180.000000        4.075594         2    ;  uncertainty k = 0.076311
        13        14        44        12     4      180.000000        4.075594         2    ;  uncertainty k = 0.076311
        13        44        12        14     4      180.000000        4.075594         2    ;  uncertainty k = 0.076311
        14        13        15        45     4      180.000000        4.286747         2    ;  uncertainty k = 0.163794
        14        15        45        13     4      180.000000        4.286747         2    ;  uncertainty k = 0.163794
        14        45        13        15     4      180.000000        4.286747         2    ;  uncertainty k = 0.163794
        15        14        16        46     4      180.000000        4.075594         2    ;  uncertainty k = 0.076311
        15        16        46        14     4      180.000000        4.075594         2    ;  uncertainty k = 0.076311
        15        46        14        16     4      180.000000        4.075594         2    ;  uncertainty k = 0.076311
        16        11        15        47     4      180.000000        4.073199         2    ;  uncertainty k = 0.089533
        16        15        47        11     4      180.000000        4.073199         2    ;  uncertainty k = 0.089533
        16        47        11        15     4      180.000000        4.073199         2    ;  uncertainty k = 0.089533
        18        17        19        25     4      180.000000       17.952400         2    ;  uncertainty k = 0.124101
        18        19        25        17     4      180.000000       17.952400         2    ;  uncertainty k = 0.124101
        18        25        17        19     4      180.000000       17.952400         2    ;  uncertainty k = 0.124101
        19        18        20        21     4      180.000000       10.328731         2    ;  uncertainty k = 0.196745
        19        20        21        18     4      180.000000       10.328731         2    ;  uncertainty k = 0.196745
        19        21        18        20     4      180.000000       10.328731         2    ;  uncertainty k = 0.196745
        21        19        22        49     4      180.000000        1.958612         2    ;  uncertainty k = 0.141592
        21        22        49        19     4      180.000000        1.958612         2    ;  uncertainty k = 0.141592
        21        49        19        22     4      180.000000        1.958612         2    ;  uncertainty k = 0.141592
        22        21        23        24     4      180.000000       12.122902         2    ;  uncertainty k = 0.097134
        22        23        24        21     4      180.000000       12.122902         2    ;  uncertainty k = 0.097134
        22        24        21        23     4      180.000000       12.122902         2    ;  uncertainty k = 0.097134
        24        22        25        50     4      180.000000        3.249554         2    ;  uncertainty k = 0.202882
        24        25        50        22     4      180.000000        3.249554         2    ;  uncertainty k = 0.202882
        24        50        22        25     4      180.000000        3.249554         2    ;  uncertainty k = 0.202882
        25        18        24        26     4      180.000000       10.944662         2    ;  uncertainty k = 0.241792
        25        24        26        18     4      180.000000       10.944662         2    ;  uncertainty k = 0.241792
        25        26        18        24     4      180.000000       10.944662         2    ;  uncertainty k = 0.241792

[ pairs ]
;       ai        aj funct
         1         4     1
         1        31     1
         1        32     1
         2         5     1
         2        33     1
         2        52     1
         3         6     1
         3        28     1
         3        34     1
         3        35     1
         4         7     1
         4        27     1
         4        29     1
         4        30     1
         4        36     1
         5         8     1
         5        26     1
         5        31     1
         5        32     1
         5        37     1
         5        38     1
         6         9     1
         6        25     1
         6        33     1
         6        39     1
         6        40     1
         6        51     1
         6        52     1
         7        10     1
         7        26     1
         7        34     1
         7        35     1
         7        41     1
         8        11     1
         8        17     1
         8        25     1
         8        27     1
         8        36     1
         8        42     1
         8        51     1
         9        12     1
         9        16     1
         9        18     1
         9        24     1
         9        37     1
         9        38     1
         9        48     1
        10        13     1
        10        15     1
        10        19     1
        10        25     1
        10        27     1
        10        39     1
        10        40     1
        10        43     1
        10        47     1
        10        51     1
        11        14     1
        11        18     1
        11        26     1
        11        41     1
        11        44     1
        11        46     1
        11        48     1
        12        15     1
        12        17     1
        12        42     1
        12        45     1
        12        47     1
        13        16     1
        13        46     1
        14        43     1
        14        47     1
        15        44     1
        16        17     1
        16        42     1
        16        43     1
        16        45     1
        17        20     1
        17        21     1
        17        24     1
        17        26     1
        17        41     1
        18        22     1
        18        27     1
        18        42     1
        18        49     1
        18        50     1
        18        51     1
        19        23     1
        19        24     1
        19        26     1
        19        48     1
        20        22     1
        20        25     1
        20        49     1
        21        25     1
        21        50     1
        22        26     1
        23        25     1
        23        49     1
        23        50     1
        24        27     1
        24        49     1
        24        51     1
        25        41     1
        25        48     1
        26        36     1
        26        39     1
        26        40     1
        26        42     1
        26        50     1
        27        34     1
        27        35     1
        27        37     1
        27        38     1
        27        41     1
        28        29     1
        28        30     1
        29        31     1
        29        32     1
        30        31     1
        30        32     1
        31        33     1
        31        52     1
        32        33     1
        32        52     1
        33        34     1
        33        35     1
        34        36     1
        34        52     1
        35        36     1
        35        52     1
        36        37     1
        36        38     1
        37        39     1
        37        40     1
        38        39     1
        38        40     1
        39        41     1
        40        41     1
        41        42     1
        41        51     1
        42        48     1
        43        44     1
        44        45     1
        45        46     1
        46        47     1
