; ITP file created by ByteFF-joint-25, 2026-02-17 09:14:54.443304

[ atomtypes ]
;name           bonded.type        at.num        mass        charge   ptype           sigma         epsilon
 c0bf                                   6      0.0000       0.00000       A     3.39768e-01     4.51334e-01    ;  uncertainty sigma = 0.000008, epsilon = 0.001067
 n1bf                                   7      0.0000       0.00000       A     2.67797e-01     7.09621e+00    ;  uncertainty sigma = 0.000075, epsilon = 0.008221
 c2bf                                   6      0.0000       0.00000       A     3.39787e-01     4.52439e-01    ;  uncertainty sigma = 0.000034, epsilon = 0.001397
 c3bf                                   6      0.0000       0.00000       A     3.39780e-01     4.51679e-01    ;  uncertainty sigma = 0.000029, epsilon = 0.001962
 c4bf                                   6      0.0000       0.00000       A     3.39767e-01     4.50486e-01    ;  uncertainty sigma = 0.000012, epsilon = 0.000632
 c5bf                                   6      0.0000       0.00000       A     3.39742e-01     4.51320e-01    ;  uncertainty sigma = 0.000014, epsilon = 0.001137
 c6bf                                   6      0.0000       0.00000       A     3.39755e-01     4.50973e-01    ;  uncertainty sigma = 0.000035, epsilon = 0.000615
 c7bf                                   6      0.0000       0.00000       A     3.39774e-01     4.51693e-01    ;  uncertainty sigma = 0.000009, epsilon = 0.001676
 c8bf                                   6      0.0000       0.00000       A     3.31532e-01     4.13295e-01    ;  uncertainty sigma = 0.000012, epsilon = 0.000849
 c9bf                                   6      0.0000       0.00000       A     3.31519e-01     4.13329e-01    ;  uncertainty sigma = 0.000002, epsilon = 0.000632
 c10bf                                  6      0.0000       0.00000       A     3.31520e-01     4.13328e-01    ;  uncertainty sigma = 0.000003, epsilon = 0.000582
 c11bf                                  6      0.0000       0.00000       A     3.31518e-01     4.13340e-01    ;  uncertainty sigma = 0.000003, epsilon = 0.000580
 c12bf                                  6      0.0000       0.00000       A     3.31520e-01     4.13328e-01    ;  uncertainty sigma = 0.000003, epsilon = 0.000582
 c13bf                                  6      0.0000       0.00000       A     3.31519e-01     4.13329e-01    ;  uncertainty sigma = 0.000002, epsilon = 0.000632
 n14bf                                  7      0.0000       0.00000       A     3.27909e-01     6.44316e-01    ;  uncertainty sigma = 0.000015, epsilon = 0.004120
 c15bf                                  6      0.0000       0.00000       A     3.31550e-01     4.13220e-01    ;  uncertainty sigma = 0.000016, epsilon = 0.001144
 c16bf                                  6      0.0000       0.00000       A     3.31522e-01     4.13550e-01    ;  uncertainty sigma = 0.000006, epsilon = 0.000519
 c17bf                                  6      0.0000       0.00000       A     3.31518e-01     4.13392e-01    ;  uncertainty sigma = 0.000007, epsilon = 0.000650
 c18bf                                  6      0.0000       0.00000       A     3.31515e-01     4.13418e-01    ;  uncertainty sigma = 0.000011, epsilon = 0.000974
 c19bf                                  6      0.0000       0.00000       A     3.39818e-01     4.51236e-01    ;  uncertainty sigma = 0.000019, epsilon = 0.002042
 c20bf                                  6      0.0000       0.00000       A     3.39773e-01     4.51038e-01    ;  uncertainty sigma = 0.000007, epsilon = 0.000768
 c21bf                                  6      0.0000       0.00000       A     3.39773e-01     4.51038e-01    ;  uncertainty sigma = 0.000007, epsilon = 0.000768
 c22bf                                  6      0.0000       0.00000       A     3.31538e-01     4.13548e-01    ;  uncertainty sigma = 0.000009, epsilon = 0.000725
 c23bf                                  6      0.0000       0.00000       A     3.31532e-01     4.13449e-01    ;  uncertainty sigma = 0.000014, epsilon = 0.000404
 c24bf                                  6      0.0000       0.00000       A     3.39768e-01     4.51058e-01    ;  uncertainty sigma = 0.000020, epsilon = 0.001437
 o25bf                                  8      0.0000       0.00000       A     3.15622e-01     3.04459e-01    ;  uncertainty sigma = 0.000041, epsilon = 0.000889
 h26bf                                  1      0.0000       0.00000       A     1.88778e-01     8.64164e-02    ;  uncertainty sigma = 0.000038, epsilon = 0.000604
 h27bf                                  1      0.0000       0.00000       A     1.88778e-01     8.64164e-02    ;  uncertainty sigma = 0.000038, epsilon = 0.000604
 h28bf                                  1      0.0000       0.00000       A     1.88778e-01     8.64165e-02    ;  uncertainty sigma = 0.000038, epsilon = 0.000604
 h29bf                                  1      0.0000       0.00000       A     1.10712e-01     4.13743e-02    ;  uncertainty sigma = 0.000101, epsilon = 0.000413
 h30bf                                  1      0.0000       0.00000       A     1.88689e-01     8.72656e-02    ;  uncertainty sigma = 0.000114, epsilon = 0.000631
 h31bf                                  1      0.0000       0.00000       A     1.88689e-01     8.72656e-02    ;  uncertainty sigma = 0.000114, epsilon = 0.000631
 h32bf                                  1      0.0000       0.00000       A     2.42333e-01     8.61424e-02    ;  uncertainty sigma = 0.000111, epsilon = 0.001611
 h33bf                                  1      0.0000       0.00000       A     2.60030e-01     8.64970e-02    ;  uncertainty sigma = 0.000010, epsilon = 0.000714
 h34bf                                  1      0.0000       0.00000       A     2.60030e-01     8.64970e-02    ;  uncertainty sigma = 0.000010, epsilon = 0.000714
 h35bf                                  1      0.0000       0.00000       A     2.60028e-01     8.66832e-02    ;  uncertainty sigma = 0.000010, epsilon = 0.000720
 h36bf                                  1      0.0000       0.00000       A     2.60028e-01     8.66832e-02    ;  uncertainty sigma = 0.000010, epsilon = 0.000720
 h37bf                                  1      0.0000       0.00000       A     2.59938e-01     8.64076e-02    ;  uncertainty sigma = 0.000052, epsilon = 0.000980
 h38bf                                  1      0.0000       0.00000       A     2.42303e-01     8.69597e-02    ;  uncertainty sigma = 0.000074, epsilon = 0.001557
 h39bf                                  1      0.0000       0.00000       A     2.62560e-01     6.70316e-02    ;  uncertainty sigma = 0.000006, epsilon = 0.000529
 h40bf                                  1      0.0000       0.00000       A     2.62559e-01     6.70250e-02    ;  uncertainty sigma = 0.000010, epsilon = 0.000440
 h41bf                                  1      0.0000       0.00000       A     2.62552e-01     6.70645e-02    ;  uncertainty sigma = 0.000011, epsilon = 0.000453
 h42bf                                  1      0.0000       0.00000       A     2.62559e-01     6.70249e-02    ;  uncertainty sigma = 0.000010, epsilon = 0.000440
 h43bf                                  1      0.0000       0.00000       A     2.62560e-01     6.70315e-02    ;  uncertainty sigma = 0.000006, epsilon = 0.000529
 h44bf                                  1      0.0000       0.00000       A     1.10675e-01     4.07500e-02    ;  uncertainty sigma = 0.000109, epsilon = 0.000764
 h45bf                                  1      0.0000       0.00000       A     2.62577e-01     6.70493e-02    ;  uncertainty sigma = 0.000013, epsilon = 0.000551
 h46bf                                  1      0.0000       0.00000       A     2.62561e-01     6.70990e-02    ;  uncertainty sigma = 0.000009, epsilon = 0.000406
 h47bf                                  1      0.0000       0.00000       A     2.60128e-01     8.62868e-02    ;  uncertainty sigma = 0.000050, epsilon = 0.001080
 h48bf                                  1      0.0000       0.00000       A     2.60019e-01     8.66338e-02    ;  uncertainty sigma = 0.000020, epsilon = 0.000881
 h49bf                                  1      0.0000       0.00000       A     2.60019e-01     8.66338e-02    ;  uncertainty sigma = 0.000020, epsilon = 0.000881
 h50bf                                  1      0.0000       0.00000       A     2.60019e-01     8.66338e-02    ;  uncertainty sigma = 0.000020, epsilon = 0.000881
 h51bf                                  1      0.0000       0.00000       A     2.60019e-01     8.66338e-02    ;  uncertainty sigma = 0.000020, epsilon = 0.000881
 h52bf                                  1      0.0000       0.00000       A     2.62515e-01     6.71179e-02    ;  uncertainty sigma = 0.000020, epsilon = 0.000433
 h53bf                                  1      0.0000       0.00000       A     2.42239e-01     8.76588e-02    ;  uncertainty sigma = 0.000274, epsilon = 0.002166
 h54bf                                  1      0.0000       0.00000       A     1.10712e-01     4.13743e-02    ;  uncertainty sigma = 0.000101, epsilon = 0.000413

[ moleculetype ]
;name             nrexcl
 MOL                   3

[ atoms ]
;       nr            type      resi   res      atom      cgnr      charge          mass ; qtot
         1            c0bf         1   UNL        c0         1     0.11949       12.0110 ; qtot    0.119
         2            n1bf         1   UNL        n1         2    -0.78217       14.0070 ; qtot   -0.663
         3            c2bf         1   UNL        c2         3     0.12987       12.0110 ; qtot   -0.533
         4            c3bf         1   UNL        c3         4     0.12361       12.0110 ; qtot   -0.409
         5            c4bf         1   UNL        c4         5    -0.10286       12.0110 ; qtot   -0.512
         6            c5bf         1   UNL        c5         6    -0.06959       12.0110 ; qtot   -0.582
         7            c6bf         1   UNL        c6         7    -0.09507       12.0110 ; qtot   -0.677
         8            c7bf         1   UNL        c7         8     0.25867       12.0110 ; qtot   -0.418
         9            c8bf         1   UNL        c8         9    -0.10560       12.0110 ; qtot   -0.524
        10            c9bf         1   UNL        c9        10    -0.11888       12.0110 ; qtot   -0.643
        11           c10bf         1   UNL       c10        11    -0.13078       12.0110 ; qtot   -0.773
        12           c11bf         1   UNL       c11        12    -0.12452       12.0110 ; qtot   -0.898
        13           c12bf         1   UNL       c12        13    -0.13078       12.0110 ; qtot   -1.029
        14           c13bf         1   UNL       c13        14    -0.11888       12.0110 ; qtot   -1.147
        15           n14bf         1   UNL       n14        15    -0.73718       14.0070 ; qtot   -1.885
        16           c15bf         1   UNL       c15        16     0.15418       12.0110 ; qtot   -1.730
        17           c16bf         1   UNL       c16        17    -0.18877       12.0110 ; qtot   -1.919
        18           c17bf         1   UNL       c17        18    -0.08688       12.0110 ; qtot   -2.006
        19           c18bf         1   UNL       c18        19    -0.08031       12.0110 ; qtot   -2.086
        20           c19bf         1   UNL       c19        20    -0.08947       12.0110 ; qtot   -2.176
        21           c20bf         1   UNL       c20        21    -0.12556       12.0110 ; qtot   -2.301
        22           c21bf         1   UNL       c21        22    -0.12556       12.0110 ; qtot   -2.427
        23           c22bf         1   UNL       c22        23    -0.07724       12.0110 ; qtot   -2.504
        24           c23bf         1   UNL       c23        24    -0.14603       12.0110 ; qtot   -2.650
        25           c24bf         1   UNL       c24        25     0.20346       12.0110 ; qtot   -2.447
        26           o25bf         1   UNL       o25        26    -0.42631       15.9990 ; qtot   -2.873
        27           h26bf         1   UNL       h26        27     0.10873        1.0080 ; qtot   -2.764
        28           h27bf         1   UNL       h27        28     0.10873        1.0080 ; qtot   -2.656
        29           h28bf         1   UNL       h28        29     0.10873        1.0080 ; qtot   -2.547
        30           h29bf         1   UNL       h29        30     0.46300        1.0080 ; qtot   -2.084
        31           h30bf         1   UNL       h30        31     0.11437        1.0080 ; qtot   -1.970
        32           h31bf         1   UNL       h31        32     0.11437        1.0080 ; qtot   -1.855
        33           h32bf         1   UNL       h32        33     0.08383        1.0080 ; qtot   -1.771
        34           h33bf         1   UNL       h33        34     0.07203        1.0080 ; qtot   -1.699
        35           h34bf         1   UNL       h34        35     0.07203        1.0080 ; qtot   -1.627
        36           h35bf         1   UNL       h35        36     0.05761        1.0080 ; qtot   -1.570
        37           h36bf         1   UNL       h36        37     0.05761        1.0080 ; qtot   -1.512
        38           h37bf         1   UNL       h37        38     0.06904        1.0080 ; qtot   -1.443
        39           h38bf         1   UNL       h38        39     0.05360        1.0080 ; qtot   -1.389
        40           h39bf         1   UNL       h39        40     0.13512        1.0080 ; qtot   -1.254
        41           h40bf         1   UNL       h40        41     0.13172        1.0080 ; qtot   -1.123
        42           h41bf         1   UNL       h41        42     0.13373        1.0080 ; qtot   -0.989
        43           h42bf         1   UNL       h42        43     0.13172        1.0080 ; qtot   -0.857
        44           h43bf         1   UNL       h43        44     0.13512        1.0080 ; qtot   -0.722
        45           h44bf         1   UNL       h44        45     0.40889        1.0080 ; qtot   -0.313
        46           h45bf         1   UNL       h45        46     0.13095        1.0080 ; qtot   -0.182
        47           h46bf         1   UNL       h46        47     0.13382        1.0080 ; qtot   -0.048
        48           h47bf         1   UNL       h47        48     0.08671        1.0080 ; qtot    0.038
        49           h48bf         1   UNL       h48        49     0.07492        1.0080 ; qtot    0.113
        50           h49bf         1   UNL       h49        50     0.07492        1.0080 ; qtot    0.188
        51           h50bf         1   UNL       h50        51     0.07492        1.0080 ; qtot    0.263
        52           h51bf         1   UNL       h51        52     0.07492        1.0080 ; qtot    0.338
        53           h52bf         1   UNL       h52        53     0.13423        1.0080 ; qtot    0.472
        54           h53bf         1   UNL       h53        54     0.06482        1.0080 ; qtot    0.537
        55           h54bf         1   UNL       h54        55     0.46297        1.0080 ; qtot    1.000

[ bonds ]
;       ai        aj funct               r               k
         1         2     1        0.150483   206081.638037    ;  uncertainty r = 0.000127, k = 26.323707
         1        27     1        0.108971   315101.064648    ;  uncertainty r = 0.000019, k = 3.510020
         1        28     1        0.108971   315101.064648    ;  uncertainty r = 0.000019, k = 3.510020
         1        29     1        0.108971   315101.039111    ;  uncertainty r = 0.000019, k = 3.510024
         2         3     1        0.151116   193505.569312    ;  uncertainty r = 0.000091, k = 20.286602
         2        30     1        0.102983   385701.467969    ;  uncertainty r = 0.000064, k = 3.804169
         2        55     1        0.102983   385701.416895    ;  uncertainty r = 0.000064, k = 3.804183
         3         4     1        0.153088   198525.935181    ;  uncertainty r = 0.000227, k = 18.576038
         3        31     1        0.109071   316699.023730    ;  uncertainty r = 0.000066, k = 2.655839
         3        32     1        0.109071   316699.023730    ;  uncertainty r = 0.000066, k = 2.655839
         4         5     1        0.152867   204697.437329    ;  uncertainty r = 0.000152, k = 9.509181
         4        26     1        0.142399   237284.946777    ;  uncertainty r = 0.000162, k = 14.123982
         4        33     1        0.110046   305044.499902    ;  uncertainty r = 0.000072, k = 6.484756
         5         6     1        0.153416   212553.456592    ;  uncertainty r = 0.000104, k = 6.460390
         5        34     1        0.109581   309786.868799    ;  uncertainty r = 0.000017, k = 2.349016
         5        35     1        0.109581   309786.868799    ;  uncertainty r = 0.000017, k = 2.349016
         6         7     1        0.153228   204659.846704    ;  uncertainty r = 0.000107, k = 7.769012
         6        36     1        0.109545   307326.649219    ;  uncertainty r = 0.000013, k = 1.975637
         6        37     1        0.109545   307326.649219    ;  uncertainty r = 0.000013, k = 1.975637
         7         8     1        0.153739   194039.869482    ;  uncertainty r = 0.000049, k = 9.258939
         7        25     1        0.153199   193817.607251    ;  uncertainty r = 0.000151, k = 8.755364
         7        38     1        0.109712   307584.676172    ;  uncertainty r = 0.000061, k = 3.997496
         8         9     1        0.151697   221951.776807    ;  uncertainty r = 0.000088, k = 6.014261
         8        15     1        0.146438   246437.395703    ;  uncertainty r = 0.000120, k = 17.715154
         8        39     1        0.110060   298327.116504    ;  uncertainty r = 0.000134, k = 4.183467
         9        10     1        0.139859   350947.632764    ;  uncertainty r = 0.000040, k = 0.862455
         9        14     1        0.139859   350947.632764    ;  uncertainty r = 0.000040, k = 0.862455
        10        11     1        0.139620   365997.698340    ;  uncertainty r = 0.000023, k = 1.204469
        10        40     1        0.108883   334327.852148    ;  uncertainty r = 0.000023, k = 0.510247
        11        12     1        0.139607   371240.926563    ;  uncertainty r = 0.000016, k = 0.703150
        11        41     1        0.108851   333986.931738    ;  uncertainty r = 0.000010, k = 1.017333
        12        13     1        0.139607   371240.977637    ;  uncertainty r = 0.000016, k = 0.703160
        12        42     1        0.108841   334518.920801    ;  uncertainty r = 0.000012, k = 0.635620
        13        14     1        0.139620   365997.698340    ;  uncertainty r = 0.000023, k = 1.204462
        13        43     1        0.108851   333986.906201    ;  uncertainty r = 0.000010, k = 1.017361
        14        44     1        0.108883   334327.852148    ;  uncertainty r = 0.000023, k = 0.510237
        15        16     1        0.139912   343687.739014    ;  uncertainty r = 0.000099, k = 8.639728
        15        45     1        0.101439   412844.299707    ;  uncertainty r = 0.000047, k = 2.472846
        16        17     1        0.140699   368773.020313    ;  uncertainty r = 0.000094, k = 7.985677
        16        24     1        0.140659   347234.154004    ;  uncertainty r = 0.000144, k = 25.032862
        17        18     1        0.139078   371312.353857    ;  uncertainty r = 0.000083, k = 3.702962
        17        46     1        0.108961   336807.582080    ;  uncertainty r = 0.000016, k = 1.892136
        18        19     1        0.140210   348327.678564    ;  uncertainty r = 0.000113, k = 3.131374
        18        47     1        0.108836   334731.389551    ;  uncertainty r = 0.000020, k = 1.281741
        19        20     1        0.149028   233055.822705    ;  uncertainty r = 0.000074, k = 7.063456
        19        23     1        0.139857   346592.661816    ;  uncertainty r = 0.000091, k = 7.206654
        20        21     1        0.151760   200975.212109    ;  uncertainty r = 0.000099, k = 3.012329
        20        22     1        0.151760   200975.212109    ;  uncertainty r = 0.000099, k = 3.012329
        20        48     1        0.108771   311460.519873    ;  uncertainty r = 0.000061, k = 2.275929
        21        22     1        0.150818   217571.268750    ;  uncertainty r = 0.000059, k = 2.681662
        21        49     1        0.108657   312700.576367    ;  uncertainty r = 0.000014, k = 1.919620
        21        50     1        0.108657   312700.576367    ;  uncertainty r = 0.000014, k = 1.919620
        22        51     1        0.108657   312700.576367    ;  uncertainty r = 0.000014, k = 1.919620
        22        52     1        0.108657   312700.576367    ;  uncertainty r = 0.000014, k = 1.919620
        23        24     1        0.139339   353040.117969    ;  uncertainty r = 0.000103, k = 3.420455
        23        53     1        0.108907   335562.392627    ;  uncertainty r = 0.000061, k = 2.402234
        24        25     1        0.150791   221657.819141    ;  uncertainty r = 0.000123, k = 13.264198
        25        26     1        0.144691   219054.004395    ;  uncertainty r = 0.000485, k = 6.570651
        25        54     1        0.110013   305501.103418    ;  uncertainty r = 0.000073, k = 4.501318

[ angles ]
;       ai        aj        ak funct           theta             cth
         1         2         3     1      114.120590      627.009199    ;  uncertainty theta = 0.004769, k = 0.177844
         1         2        30     1      108.045982      455.367615    ;  uncertainty theta = 0.003064, k = 0.184078
         1         2        55     1      108.045982      455.367615    ;  uncertainty theta = 0.003064, k = 0.184078
         2         1        27     1      107.931419      474.361064    ;  uncertainty theta = 0.002343, k = 0.076147
         2         1        28     1      107.931419      474.361064    ;  uncertainty theta = 0.002343, k = 0.076147
         2         1        29     1      107.931419      474.361096    ;  uncertainty theta = 0.002343, k = 0.076148
         2         3         4     1      109.598450      697.693364    ;  uncertainty theta = 0.004814, k = 0.255220
         2         3        31     1      106.173927      463.691021    ;  uncertainty theta = 0.004234, k = 0.056842
         2         3        32     1      106.173927      463.691021    ;  uncertainty theta = 0.004234, k = 0.056842
         3         2        30     1      108.767532      433.355904    ;  uncertainty theta = 0.002716, k = 0.090610
         3         2        55     1      108.767532      433.355968    ;  uncertainty theta = 0.002716, k = 0.090610
         3         4         5     1      111.614769      560.640997    ;  uncertainty theta = 0.007674, k = 0.188529
         3         4        26     1      105.573441      576.645614    ;  uncertainty theta = 0.004356, k = 0.105581
         3         4        33     1      108.340309      391.475523    ;  uncertainty theta = 0.003241, k = 0.118548
         4         3        31     1      110.351929      396.491490    ;  uncertainty theta = 0.002550, k = 0.130995
         4         3        32     1      110.351929      396.491490    ;  uncertainty theta = 0.002550, k = 0.130995
         4         5         6     1      108.895370      585.539551    ;  uncertainty theta = 0.003340, k = 0.194982
         4         5        34     1      107.555092      391.789726    ;  uncertainty theta = 0.001626, k = 0.061237
         4         5        35     1      107.555092      391.789726    ;  uncertainty theta = 0.001626, k = 0.061237
         4        26        25     1      110.489975      513.905310    ;  uncertainty theta = 0.009403, k = 0.136522
         5         4        26     1      111.184608      678.864534    ;  uncertainty theta = 0.004632, k = 0.105968
         5         4        33     1      109.805496      407.525437    ;  uncertainty theta = 0.003064, k = 0.039288
         5         6         7     1      109.833923      574.050916    ;  uncertainty theta = 0.003440, k = 0.116783
         5         6        36     1      108.479469      406.340866    ;  uncertainty theta = 0.002257, k = 0.104005
         5         6        37     1      108.479469      406.340866    ;  uncertainty theta = 0.002257, k = 0.104005
         6         5        34     1      109.112206      400.373163    ;  uncertainty theta = 0.000987, k = 0.042731
         6         5        35     1      109.112206      400.373163    ;  uncertainty theta = 0.000987, k = 0.042731
         6         7         8     1      110.557518      550.414534    ;  uncertainty theta = 0.001258, k = 0.165602
         6         7        25     1      109.600449      585.029256    ;  uncertainty theta = 0.002028, k = 0.138105
         6         7        38     1      107.962418      399.558210    ;  uncertainty theta = 0.002830, k = 0.103744
         7         6        36     1      108.184448      389.052562    ;  uncertainty theta = 0.001625, k = 0.073415
         7         6        37     1      108.184448      389.052562    ;  uncertainty theta = 0.001625, k = 0.073415
         7         8         9     1      111.667801      538.117458    ;  uncertainty theta = 0.002515, k = 0.172335
         7         8        15     1      108.357506      705.618040    ;  uncertainty theta = 0.004557, k = 0.110169
         7         8        39     1      107.075500      386.196269    ;  uncertainty theta = 0.002778, k = 0.128014
         7        25        24     1      111.885582      557.467053    ;  uncertainty theta = 0.004123, k = 0.203353
         7        25        26     1      110.743484      664.416212    ;  uncertainty theta = 0.005406, k = 0.064279
         7        25        54     1      108.161682      394.211920    ;  uncertainty theta = 0.003972, k = 0.123986
         8         7        25     1      109.340988      553.883112    ;  uncertainty theta = 0.004730, k = 0.140086
         8         7        38     1      105.964149      389.824836    ;  uncertainty theta = 0.001608, k = 0.093762
         8         9        10     1      119.922928      425.651326    ;  uncertainty theta = 0.003113, k = 0.143043
         8         9        14     1      119.922928      425.651326    ;  uncertainty theta = 0.003113, k = 0.143043
         8        15        16     1      114.217270      390.897363    ;  uncertainty theta = 0.007399, k = 0.151124
         8        15        45     1      110.064499      352.462577    ;  uncertainty theta = 0.003551, k = 0.095281
         9         8        15     1      111.031082      663.623157    ;  uncertainty theta = 0.001203, k = 0.168660
         9         8        39     1      106.340919      410.762138    ;  uncertainty theta = 0.002105, k = 0.098132
         9        10        11     1      121.166641      520.322945    ;  uncertainty theta = 0.001889, k = 0.047519
         9        10        40     1      118.895851      266.730032    ;  uncertainty theta = 0.002264, k = 0.064094
         9        14        13     1      121.166641      520.322945    ;  uncertainty theta = 0.001889, k = 0.047519
         9        14        44     1      118.895851      266.730000    ;  uncertainty theta = 0.002264, k = 0.064094
        10         9        14     1      120.206970      460.017476    ;  uncertainty theta = 0.003029, k = 0.098153
        10        11        12     1      119.685776      513.267201    ;  uncertainty theta = 0.000971, k = 0.012607
        10        11        41     1      120.211227      283.897577    ;  uncertainty theta = 0.001315, k = 0.018227
        11        10        40     1      120.235497      292.477216    ;  uncertainty theta = 0.001696, k = 0.031107
        11        12        13     1      118.246803      526.555213    ;  uncertainty theta = 0.000903, k = 0.024014
        11        12        42     1      120.647278      289.320829    ;  uncertainty theta = 0.001403, k = 0.006566
        12        11        41     1      120.620949      287.638700    ;  uncertainty theta = 0.001444, k = 0.012507
        12        13        14     1      119.685776      513.267201    ;  uncertainty theta = 0.000971, k = 0.012607
        12        13        43     1      120.620949      287.638700    ;  uncertainty theta = 0.001444, k = 0.012507
        13        12        42     1      120.647278      289.320829    ;  uncertainty theta = 0.001403, k = 0.006566
        13        14        44     1      120.235497      292.477280    ;  uncertainty theta = 0.001696, k = 0.031107
        14        13        43     1      120.211227      283.897609    ;  uncertainty theta = 0.001315, k = 0.018226
        15         8        39     1      107.894577      455.839254    ;  uncertainty theta = 0.003753, k = 0.115430
        15        16        17     1      123.135170      578.673644    ;  uncertainty theta = 0.003983, k = 0.104409
        15        16        24     1      122.173691      498.225939    ;  uncertainty theta = 0.009767, k = 0.207784
        16        15        45     1      111.110519      386.549191    ;  uncertainty theta = 0.005629, k = 0.192066
        16        17        18     1      120.271896      515.891331    ;  uncertainty theta = 0.002392, k = 0.080677
        16        17        46     1      118.991394      278.313824    ;  uncertainty theta = 0.004425, k = 0.177273
        16        24        23     1      120.302223      453.665631    ;  uncertainty theta = 0.006652, k = 0.146059
        16        24        25     1      119.902061      354.613759    ;  uncertainty theta = 0.009155, k = 0.478098
        17        16        24     1      118.964760      383.986638    ;  uncertainty theta = 0.005314, k = 0.160502
        17        18        19     1      121.554916      528.001092    ;  uncertainty theta = 0.001658, k = 0.049896
        17        18        47     1      119.642784      292.787492    ;  uncertainty theta = 0.001750, k = 0.048619
        18        17        46     1      120.941139      289.108680    ;  uncertainty theta = 0.002136, k = 0.067863
        18        19        20     1      120.879074      418.887950    ;  uncertainty theta = 0.003253, k = 0.114154
        18        19        23     1      119.107811      451.375207    ;  uncertainty theta = 0.002756, k = 0.093985
        19        18        47     1      119.355148      274.028761    ;  uncertainty theta = 0.002500, k = 0.050876
        19        20        21     1      113.957008      296.813928    ;  uncertainty theta = 0.004332, k = 0.271524
        19        20        22     1      113.957008      296.813928    ;  uncertainty theta = 0.004332, k = 0.271524
        19        20        48     1      116.849670      272.460144    ;  uncertainty theta = 0.007664, k = 0.241242
        19        23        24     1      123.748695      521.429564    ;  uncertainty theta = 0.004495, k = 0.172839
        19        23        53     1      118.986038      272.788871    ;  uncertainty theta = 0.001610, k = 0.049949
        20        19        23     1      120.392685      401.721778    ;  uncertainty theta = 0.003452, k = 0.140788
        20        21        22     1       59.630249      167.360000    ;  uncertainty theta = 0.014279, k = 0.000000
        20        21        49     1      108.827164      214.116883    ;  uncertainty theta = 0.003868, k = 0.125441
        20        21        50     1      108.827164      214.116883    ;  uncertainty theta = 0.003868, k = 0.125441
        20        22        21     1       59.630249      167.360000    ;  uncertainty theta = 0.014279, k = 0.000000
        20        22        51     1      108.827164      214.116883    ;  uncertainty theta = 0.003868, k = 0.125441
        20        22        52     1      108.827164      214.116883    ;  uncertainty theta = 0.003868, k = 0.125441
        21        20        22     1       61.028847      167.360000    ;  uncertainty theta = 0.025846, k = 0.000000
        21        20        48     1      107.104103      190.823672    ;  uncertainty theta = 0.008482, k = 0.426245
        21        22        51     1      109.562668      217.458797    ;  uncertainty theta = 0.003934, k = 0.109502
        21        22        52     1      109.562668      217.458797    ;  uncertainty theta = 0.003934, k = 0.109502
        22        20        48     1      107.104103      190.823672    ;  uncertainty theta = 0.008482, k = 0.426245
        22        21        49     1      109.562668      217.458797    ;  uncertainty theta = 0.003934, k = 0.109502
        22        21        50     1      109.562668      217.458797    ;  uncertainty theta = 0.003934, k = 0.109502
        23        24        25     1      119.097694      402.486997    ;  uncertainty theta = 0.004183, k = 0.160852
        24        23        53     1      117.894142      273.874709    ;  uncertainty theta = 0.003879, k = 0.092297
        24        25        26     1      108.842186      634.371548    ;  uncertainty theta = 0.007386, k = 0.296867
        24        25        54     1      108.871078      390.794161    ;  uncertainty theta = 0.004765, k = 0.091657
        25         7        38     1      106.275345      398.893256    ;  uncertainty theta = 0.003812, k = 0.097417
        26         4        33     1      107.426926      460.516727    ;  uncertainty theta = 0.001967, k = 0.139024
        26        25        54     1      105.733276      446.188142    ;  uncertainty theta = 0.004415, k = 0.099059
        27         1        28     1      108.721092      320.814597    ;  uncertainty theta = 0.003586, k = 0.093752
        27         1        29     1      108.721092      320.814597    ;  uncertainty theta = 0.003586, k = 0.093752
        28         1        29     1      108.721092      320.814597    ;  uncertainty theta = 0.003586, k = 0.093752
        30         2        55     1      107.282349      386.616226    ;  uncertainty theta = 0.003315, k = 0.113073
        31         3        32     1      108.328140      321.052220    ;  uncertainty theta = 0.003491, k = 0.028257
        34         5        35     1      105.294052      315.680074    ;  uncertainty theta = 0.003522, k = 0.050334
        36         6        37     1      104.613731      315.378193    ;  uncertainty theta = 0.002142, k = 0.035841
        49        21        50     1      113.873672      202.413625    ;  uncertainty theta = 0.004038, k = 0.065942
        51        22        52     1      113.873672      202.413625    ;  uncertainty theta = 0.004038, k = 0.065942

[ dihedrals ] ; propers for gromacs 4.5 or higher, use funct 9
;       ai        aj        ak        al funct           phase               k        pn
         1         2         3         4     9        0.000000        0.006307         1    ;  uncertainty k = 0.613229
         1         2         3         4     9      180.000000       -0.114237         2    ;  uncertainty k = 0.415972
         1         2         3         4     9        0.000000        1.040043         3    ;  uncertainty k = 0.119339
         1         2         3         4     9      180.000000       -0.032395         4    ;  uncertainty k = 0.060764
         1         2         3        31     9        0.000000       -0.681364         1    ;  uncertainty k = 0.600000
         1         2         3        31     9      180.000000       -0.166488         2    ;  uncertainty k = 0.352829
         1         2         3        31     9        0.000000        1.116541         3    ;  uncertainty k = 0.125614
         1         2         3        31     9      180.000000       -0.031562         4    ;  uncertainty k = 0.158992
         1         2         3        32     9        0.000000       -0.681364         1    ;  uncertainty k = 0.600000
         1         2         3        32     9      180.000000       -0.166488         2    ;  uncertainty k = 0.352829
         1         2         3        32     9        0.000000        1.116541         3    ;  uncertainty k = 0.125614
         1         2         3        32     9      180.000000       -0.031562         4    ;  uncertainty k = 0.158992
         2         3         4         5     9        0.000000       -0.192842         1    ;  uncertainty k = 1.826378
         2         3         4         5     9      180.000000       -0.466817         2    ;  uncertainty k = 0.525044
         2         3         4         5     9        0.000000        1.279870         3    ;  uncertainty k = 0.178848
         2         3         4         5     9      180.000000       -0.249067         4    ;  uncertainty k = 0.245717
         2         3         4        26     9        0.000000        2.349267         1    ;  uncertainty k = 1.437200
         2         3         4        26     9      180.000000       -3.528202         2    ;  uncertainty k = 0.748986
         2         3         4        26     9        0.000000        1.531945         3    ;  uncertainty k = 0.566496
         2         3         4        26     9      180.000000       -0.376382         4    ;  uncertainty k = 0.239672
         2         3         4        33     9        0.000000       -1.869553         1    ;  uncertainty k = 1.010165
         2         3         4        33     9      180.000000       -3.171111         2    ;  uncertainty k = 0.668409
         2         3         4        33     9        0.000000        0.860126         3    ;  uncertainty k = 0.296104
         2         3         4        33     9      180.000000       -0.078855         4    ;  uncertainty k = 0.120480
         3         2         1        27     9        0.000000       -0.505376         1    ;  uncertainty k = 0.211290
         3         2         1        27     9      180.000000       -0.945609         2    ;  uncertainty k = 0.623549
         3         2         1        27     9        0.000000        1.326997         3    ;  uncertainty k = 0.071761
         3         2         1        27     9      180.000000        0.033430         4    ;  uncertainty k = 0.103499
         3         2         1        28     9        0.000000       -0.505376         1    ;  uncertainty k = 0.211290
         3         2         1        28     9      180.000000       -0.945609         2    ;  uncertainty k = 0.623549
         3         2         1        28     9        0.000000        1.326997         3    ;  uncertainty k = 0.071761
         3         2         1        28     9      180.000000        0.033430         4    ;  uncertainty k = 0.103499
         3         2         1        29     9        0.000000       -0.505377         1    ;  uncertainty k = 0.211290
         3         2         1        29     9      180.000000       -0.945608         2    ;  uncertainty k = 0.623550
         3         2         1        29     9        0.000000        1.326998         3    ;  uncertainty k = 0.071761
         3         2         1        29     9      180.000000        0.033431         4    ;  uncertainty k = 0.103499
         3         4         5         6     9        0.000000       -2.847939         1    ;  uncertainty k = 0.794688
         3         4         5         6     9      180.000000        0.088279         2    ;  uncertainty k = 0.395161
         3         4         5         6     9        0.000000        0.738844         3    ;  uncertainty k = 0.150315
         3         4         5         6     9      180.000000       -0.462124         4    ;  uncertainty k = 0.103024
         3         4         5        34     9        0.000000       -1.119444         1    ;  uncertainty k = 0.957409
         3         4         5        34     9      180.000000       -0.715773         2    ;  uncertainty k = 0.299910
         3         4         5        34     9        0.000000        0.391575         3    ;  uncertainty k = 0.152965
         3         4         5        34     9      180.000000       -0.297820         4    ;  uncertainty k = 0.139712
         3         4         5        35     9        0.000000       -1.119444         1    ;  uncertainty k = 0.957409
         3         4         5        35     9      180.000000       -0.715773         2    ;  uncertainty k = 0.299910
         3         4         5        35     9        0.000000        0.391575         3    ;  uncertainty k = 0.152965
         3         4         5        35     9      180.000000       -0.297820         4    ;  uncertainty k = 0.139712
         3         4        26        25     9        0.000000       -5.463575         1    ;  uncertainty k = 1.422194
         3         4        26        25     9      180.000000       -0.852186         2    ;  uncertainty k = 0.792115
         3         4        26        25     9        0.000000        0.660206         3    ;  uncertainty k = 0.339389
         3         4        26        25     9      180.000000       -0.107229         4    ;  uncertainty k = 0.171361
         4         3         2        30     9        0.000000        1.040456         1    ;  uncertainty k = 0.462708
         4         3         2        30     9      180.000000       -0.379617         2    ;  uncertainty k = 0.417857
         4         3         2        30     9        0.000000        0.621486         3    ;  uncertainty k = 0.115494
         4         3         2        30     9      180.000000       -0.147759         4    ;  uncertainty k = 0.112672
         4         3         2        55     9        0.000000        1.040455         1    ;  uncertainty k = 0.462707
         4         3         2        55     9      180.000000       -0.379615         2    ;  uncertainty k = 0.417857
         4         3         2        55     9        0.000000        0.621486         3    ;  uncertainty k = 0.115494
         4         3         2        55     9      180.000000       -0.147759         4    ;  uncertainty k = 0.112672
         4         5         6         7     9        0.000000       -4.316529         1    ;  uncertainty k = 0.772558
         4         5         6         7     9      180.000000       -0.591049         2    ;  uncertainty k = 0.852513
         4         5         6         7     9        0.000000        1.208239         3    ;  uncertainty k = 0.260495
         4         5         6         7     9      180.000000       -0.789506         4    ;  uncertainty k = 0.127773
         4         5         6        36     9        0.000000       -0.919158         1    ;  uncertainty k = 0.463309
         4         5         6        36     9      180.000000       -0.761609         2    ;  uncertainty k = 0.256263
         4         5         6        36     9        0.000000        0.441824         3    ;  uncertainty k = 0.160725
         4         5         6        36     9      180.000000        0.025063         4    ;  uncertainty k = 0.050537
         4         5         6        37     9        0.000000       -0.919158         1    ;  uncertainty k = 0.463309
         4         5         6        37     9      180.000000       -0.761609         2    ;  uncertainty k = 0.256263
         4         5         6        37     9        0.000000        0.441824         3    ;  uncertainty k = 0.160725
         4         5         6        37     9      180.000000        0.025063         4    ;  uncertainty k = 0.050537
         4        26        25         7     9        0.000000        4.043069         1    ;  uncertainty k = 1.681614
         4        26        25         7     9      180.000000       -1.617967         2    ;  uncertainty k = 1.245115
         4        26        25         7     9        0.000000        0.137135         3    ;  uncertainty k = 0.200276
         4        26        25         7     9      180.000000        0.092440         4    ;  uncertainty k = 0.203257
         4        26        25        24     9        0.000000       -1.684888         1    ;  uncertainty k = 1.420404
         4        26        25        24     9      180.000000       -1.087901         2    ;  uncertainty k = 0.835287
         4        26        25        24     9        0.000000        0.974661         3    ;  uncertainty k = 0.478244
         4        26        25        24     9      180.000000       -0.014839         4    ;  uncertainty k = 0.138390
         4        26        25        54     9        0.000000       -2.304730         1    ;  uncertainty k = 0.716000
         4        26        25        54     9      180.000000       -0.841464         2    ;  uncertainty k = 0.621880
         4        26        25        54     9        0.000000        0.465357         3    ;  uncertainty k = 0.133103
         4        26        25        54     9      180.000000       -0.107259         4    ;  uncertainty k = 0.127175
         5         4         3        31     9        0.000000       -1.215280         1    ;  uncertainty k = 0.723438
         5         4         3        31     9      180.000000        0.107645         2    ;  uncertainty k = 0.263703
         5         4         3        31     9        0.000000        0.508795         3    ;  uncertainty k = 0.156143
         5         4         3        31     9      180.000000       -0.151933         4    ;  uncertainty k = 0.073562
         5         4         3        32     9        0.000000       -1.215280         1    ;  uncertainty k = 0.723438
         5         4         3        32     9      180.000000        0.107645         2    ;  uncertainty k = 0.263703
         5         4         3        32     9        0.000000        0.508795         3    ;  uncertainty k = 0.156143
         5         4         3        32     9      180.000000       -0.151933         4    ;  uncertainty k = 0.073562
         5         4        26        25     9        0.000000        1.423881         1    ;  uncertainty k = 3.074253
         5         4        26        25     9      180.000000       -1.577309         2    ;  uncertainty k = 0.290361
         5         4        26        25     9        0.000000        0.094664         3    ;  uncertainty k = 0.467170
         5         4        26        25     9      180.000000        0.005141         4    ;  uncertainty k = 0.237703
         5         6         7         8     9        0.000000       -3.376143         1    ;  uncertainty k = 0.762400
         5         6         7         8     9      180.000000        0.084024         2    ;  uncertainty k = 0.310984
         5         6         7         8     9        0.000000        1.116779         3    ;  uncertainty k = 0.196203
         5         6         7         8     9      180.000000       -0.477285         4    ;  uncertainty k = 0.207402
         5         6         7        25     9        0.000000       -3.154114         1    ;  uncertainty k = 0.484599
         5         6         7        25     9      180.000000        0.197192         2    ;  uncertainty k = 0.517469
         5         6         7        25     9        0.000000        1.022151         3    ;  uncertainty k = 0.226840
         5         6         7        25     9      180.000000       -0.724434         4    ;  uncertainty k = 0.097355
         5         6         7        38     9        0.000000       -2.352550         1    ;  uncertainty k = 0.594149
         5         6         7        38     9      180.000000        0.210550         2    ;  uncertainty k = 0.333283
         5         6         7        38     9        0.000000        0.038572         3    ;  uncertainty k = 0.071262
         5         6         7        38     9      180.000000       -0.090296         4    ;  uncertainty k = 0.093046
         6         5         4        26     9        0.000000       -2.543186         1    ;  uncertainty k = 0.753223
         6         5         4        26     9      180.000000       -0.388858         2    ;  uncertainty k = 0.844209
         6         5         4        26     9        0.000000        1.403659         3    ;  uncertainty k = 0.414972
         6         5         4        26     9      180.000000       -0.411455         4    ;  uncertainty k = 0.367577
         6         5         4        33     9        0.000000       -0.220960         1    ;  uncertainty k = 0.645956
         6         5         4        33     9      180.000000       -1.249832         2    ;  uncertainty k = 0.419999
         6         5         4        33     9        0.000000       -0.139485         3    ;  uncertainty k = 0.171593
         6         5         4        33     9      180.000000        0.104141         4    ;  uncertainty k = 0.142921
         6         7         8         9     9        0.000000       -0.448524         1    ;  uncertainty k = 0.373959
         6         7         8         9     9      180.000000        0.078965         2    ;  uncertainty k = 0.219828
         6         7         8         9     9        0.000000        1.017033         3    ;  uncertainty k = 0.135263
         6         7         8         9     9      180.000000       -0.031156         4    ;  uncertainty k = 0.095492
         6         7         8        15     9        0.000000       -2.521251         1    ;  uncertainty k = 0.310382
         6         7         8        15     9      180.000000        0.581435         2    ;  uncertainty k = 0.370009
         6         7         8        15     9        0.000000        1.132014         3    ;  uncertainty k = 0.203508
         6         7         8        15     9      180.000000       -0.327810         4    ;  uncertainty k = 0.275563
         6         7         8        39     9        0.000000       -0.348509         1    ;  uncertainty k = 0.361728
         6         7         8        39     9      180.000000       -0.372313         2    ;  uncertainty k = 0.197672
         6         7         8        39     9        0.000000        0.079785         3    ;  uncertainty k = 0.166433
         6         7         8        39     9      180.000000       -0.109269         4    ;  uncertainty k = 0.079245
         6         7        25        24     9        0.000000       -1.733706         1    ;  uncertainty k = 1.006950
         6         7        25        24     9      180.000000       -0.563478         2    ;  uncertainty k = 0.181707
         6         7        25        24     9        0.000000        0.635597         3    ;  uncertainty k = 0.170962
         6         7        25        24     9      180.000000       -0.196411         4    ;  uncertainty k = 0.129158
         6         7        25        26     9        0.000000       -1.346600         1    ;  uncertainty k = 0.809405
         6         7        25        26     9      180.000000       -1.605951         2    ;  uncertainty k = 0.856325
         6         7        25        26     9        0.000000        0.987669         3    ;  uncertainty k = 0.342575
         6         7        25        26     9      180.000000       -0.087390         4    ;  uncertainty k = 0.274585
         6         7        25        54     9        0.000000        0.250125         1    ;  uncertainty k = 0.551139
         6         7        25        54     9      180.000000       -0.466805         2    ;  uncertainty k = 0.414101
         6         7        25        54     9        0.000000       -0.183308         3    ;  uncertainty k = 0.149125
         6         7        25        54     9      180.000000       -0.045444         4    ;  uncertainty k = 0.131095
         7         6         5        34     9        0.000000       -0.843110         1    ;  uncertainty k = 0.414564
         7         6         5        34     9      180.000000       -0.523802         2    ;  uncertainty k = 0.298175
         7         6         5        34     9        0.000000        0.489652         3    ;  uncertainty k = 0.086635
         7         6         5        34     9      180.000000       -0.059656         4    ;  uncertainty k = 0.079811
         7         6         5        35     9        0.000000       -0.843110         1    ;  uncertainty k = 0.414564
         7         6         5        35     9      180.000000       -0.523802         2    ;  uncertainty k = 0.298175
         7         6         5        35     9        0.000000        0.489652         3    ;  uncertainty k = 0.086635
         7         6         5        35     9      180.000000       -0.059656         4    ;  uncertainty k = 0.079811
         7         8         9        10     9        0.000000       -0.128230         1    ;  uncertainty k = 0.712210
         7         8         9        10     9      180.000000        1.832448         2    ;  uncertainty k = 0.216282
         7         8         9        10     9        0.000000        0.279323         3    ;  uncertainty k = 0.140015
         7         8         9        10     9      180.000000        0.244071         4    ;  uncertainty k = 0.076873
         7         8         9        14     9        0.000000       -0.128230         1    ;  uncertainty k = 0.712210
         7         8         9        14     9      180.000000        1.832448         2    ;  uncertainty k = 0.216282
         7         8         9        14     9        0.000000        0.279323         3    ;  uncertainty k = 0.140015
         7         8         9        14     9      180.000000        0.244071         4    ;  uncertainty k = 0.076873
         7         8        15        16     9        0.000000        0.745616         1    ;  uncertainty k = 1.238185
         7         8        15        16     9      180.000000        0.204137         2    ;  uncertainty k = 0.610998
         7         8        15        16     9        0.000000        0.375512         3    ;  uncertainty k = 0.261857
         7         8        15        16     9      180.000000        0.142091         4    ;  uncertainty k = 0.152396
         7         8        15        45     9        0.000000        3.620496         1    ;  uncertainty k = 0.960159
         7         8        15        45     9      180.000000       -1.866275         2    ;  uncertainty k = 1.297277
         7         8        15        45     9        0.000000        0.466328         3    ;  uncertainty k = 0.292683
         7         8        15        45     9      180.000000       -0.015211         4    ;  uncertainty k = 0.082184
         7        25        24        16     9        0.000000        0.617349         1    ;  uncertainty k = 3.048380
         7        25        24        16     9      180.000000       -0.192810         2    ;  uncertainty k = 1.539561
         7        25        24        16     9        0.000000       -0.030418         3    ;  uncertainty k = 0.851427
         7        25        24        16     9      180.000000        0.701766         4    ;  uncertainty k = 0.240863
         7        25        24        23     9        0.000000       -1.738805         1    ;  uncertainty k = 0.737003
         7        25        24        23     9      180.000000        0.061346         2    ;  uncertainty k = 0.610101
         7        25        24        23     9        0.000000       -0.190943         3    ;  uncertainty k = 0.168561
         7        25        24        23     9      180.000000        0.390084         4    ;  uncertainty k = 0.171135
         8         7         6        36     9        0.000000        0.110494         1    ;  uncertainty k = 0.320429
         8         7         6        36     9      180.000000       -0.593762         2    ;  uncertainty k = 0.234653
         8         7         6        36     9        0.000000        0.479646         3    ;  uncertainty k = 0.096254
         8         7         6        36     9      180.000000       -0.047564         4    ;  uncertainty k = 0.093309
         8         7         6        37     9        0.000000        0.110494         1    ;  uncertainty k = 0.320429
         8         7         6        37     9      180.000000       -0.593762         2    ;  uncertainty k = 0.234653
         8         7         6        37     9        0.000000        0.479646         3    ;  uncertainty k = 0.096254
         8         7         6        37     9      180.000000       -0.047564         4    ;  uncertainty k = 0.093309
         8         7        25        24     9        0.000000        0.865213         1    ;  uncertainty k = 1.047090
         8         7        25        24     9      180.000000       -1.900560         2    ;  uncertainty k = 0.480799
         8         7        25        24     9        0.000000        0.281688         3    ;  uncertainty k = 0.266863
         8         7        25        24     9      180.000000       -0.133695         4    ;  uncertainty k = 0.155295
         8         7        25        26     9        0.000000       -0.930746         1    ;  uncertainty k = 1.148729
         8         7        25        26     9      180.000000       -3.569114         2    ;  uncertainty k = 1.510724
         8         7        25        26     9        0.000000        0.674938         3    ;  uncertainty k = 0.255203
         8         7        25        26     9      180.000000        0.064433         4    ;  uncertainty k = 0.377898
         8         7        25        54     9        0.000000        0.788944         1    ;  uncertainty k = 0.715972
         8         7        25        54     9      180.000000       -1.002889         2    ;  uncertainty k = 0.520545
         8         7        25        54     9        0.000000       -0.243856         3    ;  uncertainty k = 0.096959
         8         7        25        54     9      180.000000       -0.005303         4    ;  uncertainty k = 0.195297
         8         9        10        11     9        0.000000        0.312413         1    ;  uncertainty k = 0.242918
         8         9        10        11     9      180.000000        8.638334         2    ;  uncertainty k = 0.468596
         8         9        10        11     9        0.000000        1.448800         3    ;  uncertainty k = 0.340804
         8         9        10        11     9      180.000000        1.905016         4    ;  uncertainty k = 0.200484
         8         9        10        40     9        0.000000        0.035752         1    ;  uncertainty k = 0.305800
         8         9        10        40     9      180.000000        7.827037         2    ;  uncertainty k = 0.268347
         8         9        10        40     9        0.000000        0.557555         3    ;  uncertainty k = 0.370059
         8         9        10        40     9      180.000000        0.865304         4    ;  uncertainty k = 0.172707
         8         9        14        13     9        0.000000        0.312413         1    ;  uncertainty k = 0.242918
         8         9        14        13     9      180.000000        8.638334         2    ;  uncertainty k = 0.468596
         8         9        14        13     9        0.000000        1.448800         3    ;  uncertainty k = 0.340804
         8         9        14        13     9      180.000000        1.905016         4    ;  uncertainty k = 0.200484
         8         9        14        44     9        0.000000        0.035753         1    ;  uncertainty k = 0.305801
         8         9        14        44     9      180.000000        7.827039         2    ;  uncertainty k = 0.268348
         8         9        14        44     9        0.000000        0.557555         3    ;  uncertainty k = 0.370060
         8         9        14        44     9      180.000000        0.865304         4    ;  uncertainty k = 0.172707
         8        15        16        17     9        0.000000        0.686747         1    ;  uncertainty k = 0.712911
         8        15        16        17     9      180.000000        3.854042         2    ;  uncertainty k = 0.873391
         8        15        16        17     9        0.000000        0.418756         3    ;  uncertainty k = 0.518758
         8        15        16        17     9      180.000000        0.396777         4    ;  uncertainty k = 0.258882
         8        15        16        24     9        0.000000        4.356761         1    ;  uncertainty k = 1.854836
         8        15        16        24     9      180.000000        1.763320         2    ;  uncertainty k = 0.728161
         8        15        16        24     9        0.000000        0.028482         3    ;  uncertainty k = 0.396903
         8        15        16        24     9      180.000000        0.719514         4    ;  uncertainty k = 0.258763
         9         8         7        25     9        0.000000       -0.634229         1    ;  uncertainty k = 0.736124
         9         8         7        25     9      180.000000       -0.390283         2    ;  uncertainty k = 0.400471
         9         8         7        25     9        0.000000        0.403953         3    ;  uncertainty k = 0.227726
         9         8         7        25     9      180.000000       -0.032291         4    ;  uncertainty k = 0.140098
         9         8         7        38     9        0.000000        0.530295         1    ;  uncertainty k = 0.246708
         9         8         7        38     9      180.000000        0.121250         2    ;  uncertainty k = 0.617133
         9         8         7        38     9        0.000000        0.451811         3    ;  uncertainty k = 0.081496
         9         8         7        38     9      180.000000       -0.031873         4    ;  uncertainty k = 0.108858
         9         8        15        16     9        0.000000       -1.217131         1    ;  uncertainty k = 0.905601
         9         8        15        16     9      180.000000        0.095136         2    ;  uncertainty k = 0.283976
         9         8        15        16     9        0.000000        1.046203         3    ;  uncertainty k = 0.264147
         9         8        15        16     9      180.000000        0.199711         4    ;  uncertainty k = 0.097747
         9         8        15        45     9        0.000000        4.878358         1    ;  uncertainty k = 0.569249
         9         8        15        45     9      180.000000       -1.058872         2    ;  uncertainty k = 0.283859
         9         8        15        45     9        0.000000        0.413858         3    ;  uncertainty k = 0.297007
         9         8        15        45     9      180.000000       -0.032690         4    ;  uncertainty k = 0.182555
         9        10        11        12     9        0.000000       -0.073185         1    ;  uncertainty k = 0.135863
         9        10        11        12     9      180.000000       13.840581         2    ;  uncertainty k = 0.218470
         9        10        11        12     9        0.000000       -0.942124         3    ;  uncertainty k = 0.500159
         9        10        11        12     9      180.000000        0.720226         4    ;  uncertainty k = 0.249573
         9        10        11        41     9        0.000000        0.078938         1    ;  uncertainty k = 0.238410
         9        10        11        41     9      180.000000        7.523903         2    ;  uncertainty k = 0.411008
         9        10        11        41     9        0.000000        1.486224         3    ;  uncertainty k = 0.266909
         9        10        11        41     9      180.000000        1.791253         4    ;  uncertainty k = 0.130361
         9        14        13        12     9        0.000000       -0.073185         1    ;  uncertainty k = 0.135863
         9        14        13        12     9      180.000000       13.840581         2    ;  uncertainty k = 0.218470
         9        14        13        12     9        0.000000       -0.942124         3    ;  uncertainty k = 0.500159
         9        14        13        12     9      180.000000        0.720226         4    ;  uncertainty k = 0.249573
         9        14        13        43     9        0.000000        0.078937         1    ;  uncertainty k = 0.238410
         9        14        13        43     9      180.000000        7.523904         2    ;  uncertainty k = 0.411008
         9        14        13        43     9        0.000000        1.486224         3    ;  uncertainty k = 0.266910
         9        14        13        43     9      180.000000        1.791252         4    ;  uncertainty k = 0.130361
        10         9         8        15     9        0.000000       -0.590756         1    ;  uncertainty k = 0.525590
        10         9         8        15     9      180.000000        2.732820         2    ;  uncertainty k = 0.257489
        10         9         8        15     9        0.000000        0.629229         3    ;  uncertainty k = 0.228491
        10         9         8        15     9      180.000000        0.435378         4    ;  uncertainty k = 0.023802
        10         9         8        39     9        0.000000       -0.618195         1    ;  uncertainty k = 0.243536
        10         9         8        39     9      180.000000        2.285545         2    ;  uncertainty k = 0.337301
        10         9         8        39     9        0.000000        0.482603         3    ;  uncertainty k = 0.112818
        10         9         8        39     9      180.000000        0.236140         4    ;  uncertainty k = 0.049741
        10         9        14        13     9        0.000000       -0.244750         1    ;  uncertainty k = 0.085030
        10         9        14        13     9      180.000000       11.550238         2    ;  uncertainty k = 0.281782
        10         9        14        13     9        0.000000       -0.471965         3    ;  uncertainty k = 0.307308
        10         9        14        13     9      180.000000        0.819629         4    ;  uncertainty k = 0.339588
        10         9        14        44     9        0.000000        0.103785         1    ;  uncertainty k = 0.115164
        10         9        14        44     9      180.000000        7.232566         2    ;  uncertainty k = 0.479326
        10         9        14        44     9        0.000000        1.441609         3    ;  uncertainty k = 0.358039
        10         9        14        44     9      180.000000        1.626932         4    ;  uncertainty k = 0.180627
        10        11        12        13     9        0.000000        0.003338         1    ;  uncertainty k = 0.036528
        10        11        12        13     9      180.000000       15.061872         2    ;  uncertainty k = 0.266781
        10        11        12        13     9        0.000000       -1.241530         3    ;  uncertainty k = 0.510933
        10        11        12        13     9      180.000000        0.486539         4    ;  uncertainty k = 0.300059
        10        11        12        42     9        0.000000        0.055743         1    ;  uncertainty k = 0.094833
        10        11        12        42     9      180.000000        7.490470         2    ;  uncertainty k = 0.333390
        10        11        12        42     9        0.000000        1.467122         3    ;  uncertainty k = 0.292765
        10        11        12        42     9      180.000000        1.797081         4    ;  uncertainty k = 0.179699
        11        10         9        14     9        0.000000       -0.244750         1    ;  uncertainty k = 0.085030
        11        10         9        14     9      180.000000       11.550238         2    ;  uncertainty k = 0.281782
        11        10         9        14     9        0.000000       -0.471965         3    ;  uncertainty k = 0.307308
        11        10         9        14     9      180.000000        0.819629         4    ;  uncertainty k = 0.339588
        11        12        13        14     9        0.000000        0.003338         1    ;  uncertainty k = 0.036528
        11        12        13        14     9      180.000000       15.061872         2    ;  uncertainty k = 0.266781
        11        12        13        14     9        0.000000       -1.241530         3    ;  uncertainty k = 0.510933
        11        12        13        14     9      180.000000        0.486539         4    ;  uncertainty k = 0.300059
        11        12        13        43     9        0.000000        0.045944         1    ;  uncertainty k = 0.040455
        11        12        13        43     9      180.000000        7.527539         2    ;  uncertainty k = 0.325490
        11        12        13        43     9        0.000000        1.433627         3    ;  uncertainty k = 0.327115
        11        12        13        43     9      180.000000        1.790207         4    ;  uncertainty k = 0.158460
        12        11        10        40     9        0.000000        0.053110         1    ;  uncertainty k = 0.076537
        12        11        10        40     9      180.000000        7.946075         2    ;  uncertainty k = 0.338883
        12        11        10        40     9        0.000000        1.427769         3    ;  uncertainty k = 0.326159
        12        11        10        40     9      180.000000        1.836126         4    ;  uncertainty k = 0.159402
        12        13        14        44     9        0.000000        0.053110         1    ;  uncertainty k = 0.076538
        12        13        14        44     9      180.000000        7.946075         2    ;  uncertainty k = 0.338884
        12        13        14        44     9        0.000000        1.427770         3    ;  uncertainty k = 0.326160
        12        13        14        44     9      180.000000        1.836126         4    ;  uncertainty k = 0.159402
        13        12        11        41     9        0.000000        0.045944         1    ;  uncertainty k = 0.040456
        13        12        11        41     9      180.000000        7.527538         2    ;  uncertainty k = 0.325490
        13        12        11        41     9        0.000000        1.433628         3    ;  uncertainty k = 0.327115
        13        12        11        41     9      180.000000        1.790207         4    ;  uncertainty k = 0.158460
        14         9         8        15     9        0.000000       -0.590756         1    ;  uncertainty k = 0.525590
        14         9         8        15     9      180.000000        2.732820         2    ;  uncertainty k = 0.257489
        14         9         8        15     9        0.000000        0.629229         3    ;  uncertainty k = 0.228491
        14         9         8        15     9      180.000000        0.435378         4    ;  uncertainty k = 0.023802
        14         9         8        39     9        0.000000       -0.618195         1    ;  uncertainty k = 0.243536
        14         9         8        39     9      180.000000        2.285545         2    ;  uncertainty k = 0.337301
        14         9         8        39     9        0.000000        0.482603         3    ;  uncertainty k = 0.112818
        14         9         8        39     9      180.000000        0.236140         4    ;  uncertainty k = 0.049741
        14         9        10        40     9        0.000000        0.103786         1    ;  uncertainty k = 0.115164
        14         9        10        40     9      180.000000        7.232565         2    ;  uncertainty k = 0.479326
        14         9        10        40     9        0.000000        1.441610         3    ;  uncertainty k = 0.358040
        14         9        10        40     9      180.000000        1.626932         4    ;  uncertainty k = 0.180626
        14        13        12        42     9        0.000000        0.055743         1    ;  uncertainty k = 0.094833
        14        13        12        42     9      180.000000        7.490470         2    ;  uncertainty k = 0.333390
        14        13        12        42     9        0.000000        1.467122         3    ;  uncertainty k = 0.292765
        14        13        12        42     9      180.000000        1.797081         4    ;  uncertainty k = 0.179699
        15         8         7        25     9        0.000000        0.128575         1    ;  uncertainty k = 2.175325
        15         8         7        25     9      180.000000       -1.233720         2    ;  uncertainty k = 0.317280
        15         8         7        25     9        0.000000        0.531481         3    ;  uncertainty k = 0.436559
        15         8         7        25     9      180.000000       -0.174741         4    ;  uncertainty k = 0.363250
        15         8         7        38     9        0.000000       -0.947832         1    ;  uncertainty k = 0.627969
        15         8         7        38     9      180.000000        0.170574         2    ;  uncertainty k = 0.410475
        15         8         7        38     9        0.000000        0.627907         3    ;  uncertainty k = 0.278858
        15         8         7        38     9      180.000000        0.059565         4    ;  uncertainty k = 0.093137
        15        16        17        18     9        0.000000        0.235353         1    ;  uncertainty k = 0.308247
        15        16        17        18     9      180.000000       10.323042         2    ;  uncertainty k = 0.533778
        15        16        17        18     9        0.000000        1.220322         3    ;  uncertainty k = 0.211212
        15        16        17        18     9      180.000000        1.649556         4    ;  uncertainty k = 0.249751
        15        16        17        46     9        0.000000       -0.283413         1    ;  uncertainty k = 0.599523
        15        16        17        46     9      180.000000        8.008403         2    ;  uncertainty k = 0.282569
        15        16        17        46     9        0.000000        1.054858         3    ;  uncertainty k = 0.161625
        15        16        17        46     9      180.000000        1.245510         4    ;  uncertainty k = 0.293197
        15        16        24        23     9        0.000000        0.518768         1    ;  uncertainty k = 0.596161
        15        16        24        23     9      180.000000        7.806923         2    ;  uncertainty k = 0.350324
        15        16        24        23     9        0.000000        0.951391         3    ;  uncertainty k = 0.170405
        15        16        24        23     9      180.000000        1.312008         4    ;  uncertainty k = 0.371696
        15        16        24        25     9        0.000000       -0.003472         1    ;  uncertainty k = 0.477765
        15        16        24        25     9      180.000000        7.576468         2    ;  uncertainty k = 1.008410
        15        16        24        25     9        0.000000        0.684331         3    ;  uncertainty k = 0.556210
        15        16        24        25     9      180.000000        1.199505         4    ;  uncertainty k = 0.488078
        16        15         8        39     9        0.000000       -0.856603         1    ;  uncertainty k = 0.380714
        16        15         8        39     9      180.000000       -0.543524         2    ;  uncertainty k = 0.445675
        16        15         8        39     9        0.000000        0.709741         3    ;  uncertainty k = 0.159865
        16        15         8        39     9      180.000000        0.205593         4    ;  uncertainty k = 0.095727
        16        17        18        19     9        0.000000       -0.100963         1    ;  uncertainty k = 0.139061
        16        17        18        19     9      180.000000       14.338755         2    ;  uncertainty k = 0.271022
        16        17        18        19     9        0.000000       -0.650873         3    ;  uncertainty k = 0.453708
        16        17        18        19     9      180.000000        0.799670         4    ;  uncertainty k = 0.326195
        16        17        18        47     9        0.000000        0.342097         1    ;  uncertainty k = 0.485970
        16        17        18        47     9      180.000000        9.353861         2    ;  uncertainty k = 0.530255
        16        17        18        47     9        0.000000        1.275251         3    ;  uncertainty k = 0.297271
        16        17        18        47     9      180.000000        1.542463         4    ;  uncertainty k = 0.312402
        16        24        23        19     9        0.000000       -0.212041         1    ;  uncertainty k = 0.372675
        16        24        23        19     9      180.000000       12.609710         2    ;  uncertainty k = 0.451438
        16        24        23        19     9        0.000000       -0.299123         3    ;  uncertainty k = 0.369922
        16        24        23        19     9      180.000000        0.860290         4    ;  uncertainty k = 0.392488
        16        24        23        53     9        0.000000        0.205916         1    ;  uncertainty k = 0.433296
        16        24        23        53     9      180.000000        8.502076         2    ;  uncertainty k = 0.544427
        16        24        23        53     9        0.000000        1.393852         3    ;  uncertainty k = 0.260402
        16        24        23        53     9      180.000000        1.524637         4    ;  uncertainty k = 0.201781
        16        24        25        26     9        0.000000       -1.676599         1    ;  uncertainty k = 1.779126
        16        24        25        26     9      180.000000       -0.195565         2    ;  uncertainty k = 1.142302
        16        24        25        26     9        0.000000        1.467469         3    ;  uncertainty k = 0.347840
        16        24        25        26     9      180.000000        0.026788         4    ;  uncertainty k = 0.164456
        16        24        25        54     9        0.000000       -0.411876         1    ;  uncertainty k = 0.820728
        16        24        25        54     9      180.000000        2.058517         2    ;  uncertainty k = 0.238913
        16        24        25        54     9        0.000000        0.487883         3    ;  uncertainty k = 0.231116
        16        24        25        54     9      180.000000       -0.203412         4    ;  uncertainty k = 0.108668
        17        16        15        45     9        0.000000        1.688566         1    ;  uncertainty k = 0.613307
        17        16        15        45     9      180.000000        4.656685         2    ;  uncertainty k = 0.306350
        17        16        15        45     9        0.000000        0.739946         3    ;  uncertainty k = 0.298149
        17        16        15        45     9      180.000000        0.005577         4    ;  uncertainty k = 0.161189
        17        16        24        23     9        0.000000        0.301747         1    ;  uncertainty k = 0.236748
        17        16        24        23     9      180.000000        6.079089         2    ;  uncertainty k = 0.542940
        17        16        24        23     9        0.000000        0.340470         3    ;  uncertainty k = 0.466049
        17        16        24        23     9      180.000000        1.326676         4    ;  uncertainty k = 0.231164
        17        16        24        25     9        0.000000        0.648645         1    ;  uncertainty k = 0.623505
        17        16        24        25     9      180.000000        5.664042         2    ;  uncertainty k = 0.467810
        17        16        24        25     9        0.000000        1.267972         3    ;  uncertainty k = 0.221520
        17        16        24        25     9      180.000000        1.599661         4    ;  uncertainty k = 0.302592
        17        18        19        20     9        0.000000        0.080323         1    ;  uncertainty k = 0.339112
        17        18        19        20     9      180.000000        8.567278         2    ;  uncertainty k = 0.192701
        17        18        19        20     9        0.000000        1.052027         3    ;  uncertainty k = 0.304572
        17        18        19        20     9      180.000000        1.802238         4    ;  uncertainty k = 0.127485
        17        18        19        23     9        0.000000       -0.047618         1    ;  uncertainty k = 0.078754
        17        18        19        23     9      180.000000       11.109371         2    ;  uncertainty k = 0.429437
        17        18        19        23     9        0.000000       -0.468267         3    ;  uncertainty k = 0.352926
        17        18        19        23     9      180.000000        0.936284         4    ;  uncertainty k = 0.254628
        18        17        16        24     9        0.000000        0.224847         1    ;  uncertainty k = 0.240199
        18        17        16        24     9      180.000000        7.687695         2    ;  uncertainty k = 0.521014
        18        17        16        24     9        0.000000        0.304599         3    ;  uncertainty k = 0.526698
        18        17        16        24     9      180.000000        1.361452         4    ;  uncertainty k = 0.178885
        18        19        20        21     9        0.000000        0.462425         1    ;  uncertainty k = 0.469136
        18        19        20        21     9      180.000000        1.237432         2    ;  uncertainty k = 0.114718
        18        19        20        21     9        0.000000        0.639949         3    ;  uncertainty k = 0.165935
        18        19        20        21     9      180.000000        0.268089         4    ;  uncertainty k = 0.077630
        18        19        20        22     9        0.000000        0.462425         1    ;  uncertainty k = 0.469136
        18        19        20        22     9      180.000000        1.237432         2    ;  uncertainty k = 0.114718
        18        19        20        22     9        0.000000        0.639949         3    ;  uncertainty k = 0.165935
        18        19        20        22     9      180.000000        0.268089         4    ;  uncertainty k = 0.077630
        18        19        20        48     9        0.000000       -0.121207         1    ;  uncertainty k = 0.527090
        18        19        20        48     9      180.000000        1.321439         2    ;  uncertainty k = 0.153540
        18        19        20        48     9        0.000000        0.710933         3    ;  uncertainty k = 0.136543
        18        19        20        48     9      180.000000        0.201868         4    ;  uncertainty k = 0.051500
        18        19        23        24     9        0.000000        0.124397         1    ;  uncertainty k = 0.310061
        18        19        23        24     9      180.000000       10.437920         2    ;  uncertainty k = 0.348765
        18        19        23        24     9        0.000000       -0.141017         3    ;  uncertainty k = 0.734175
        18        19        23        24     9      180.000000        1.099859         4    ;  uncertainty k = 0.488630
        18        19        23        53     9        0.000000        0.059183         1    ;  uncertainty k = 0.140228
        18        19        23        53     9      180.000000        7.070979         2    ;  uncertainty k = 0.391374
        18        19        23        53     9        0.000000        1.507865         3    ;  uncertainty k = 0.375451
        18        19        23        53     9      180.000000        1.677533         4    ;  uncertainty k = 0.097441
        19        18        17        46     9        0.000000        0.108359         1    ;  uncertainty k = 0.192672
        19        18        17        46     9      180.000000        8.362088         2    ;  uncertainty k = 0.404520
        19        18        17        46     9        0.000000        1.435117         3    ;  uncertainty k = 0.336704
        19        18        17        46     9      180.000000        1.925410         4    ;  uncertainty k = 0.222683
        19        20        21        22     9        0.000000       58.503068         1    ;  uncertainty k = 0.364776
        19        20        21        22     9      180.000000       -2.120843         2    ;  uncertainty k = 2.765845
        19        20        21        22     9        0.000000      -11.606804         3    ;  uncertainty k = 1.401541
        19        20        21        22     9      180.000000        7.130218         4    ;  uncertainty k = 0.350570
        19        20        21        49     9        0.000000        0.569868         1    ;  uncertainty k = 1.068566
        19        20        21        49     9      180.000000       -0.789292         2    ;  uncertainty k = 0.555782
        19        20        21        49     9        0.000000        0.635259         3    ;  uncertainty k = 0.523915
        19        20        21        49     9      180.000000       -0.941276         4    ;  uncertainty k = 0.058167
        19        20        21        50     9        0.000000        0.569868         1    ;  uncertainty k = 1.068566
        19        20        21        50     9      180.000000       -0.789292         2    ;  uncertainty k = 0.555782
        19        20        21        50     9        0.000000        0.635259         3    ;  uncertainty k = 0.523915
        19        20        21        50     9      180.000000       -0.941276         4    ;  uncertainty k = 0.058167
        19        20        22        21     9        0.000000       58.503068         1    ;  uncertainty k = 0.364776
        19        20        22        21     9      180.000000       -2.120843         2    ;  uncertainty k = 2.765845
        19        20        22        21     9        0.000000      -11.606804         3    ;  uncertainty k = 1.401541
        19        20        22        21     9      180.000000        7.130218         4    ;  uncertainty k = 0.350570
        19        20        22        51     9        0.000000        0.569868         1    ;  uncertainty k = 1.068566
        19        20        22        51     9      180.000000       -0.789292         2    ;  uncertainty k = 0.555782
        19        20        22        51     9        0.000000        0.635259         3    ;  uncertainty k = 0.523915
        19        20        22        51     9      180.000000       -0.941276         4    ;  uncertainty k = 0.058167
        19        20        22        52     9        0.000000        0.569868         1    ;  uncertainty k = 1.068566
        19        20        22        52     9      180.000000       -0.789292         2    ;  uncertainty k = 0.555782
        19        20        22        52     9        0.000000        0.635259         3    ;  uncertainty k = 0.523915
        19        20        22        52     9      180.000000       -0.941276         4    ;  uncertainty k = 0.058167
        19        23        24        25     9        0.000000        0.069693         1    ;  uncertainty k = 0.343665
        19        23        24        25     9      180.000000        9.782469         2    ;  uncertainty k = 0.212523
        19        23        24        25     9        0.000000        1.379306         3    ;  uncertainty k = 0.185649
        19        23        24        25     9      180.000000        1.846136         4    ;  uncertainty k = 0.348186
        20        19        18        47     9        0.000000       -0.441148         1    ;  uncertainty k = 0.750193
        20        19        18        47     9      180.000000        7.656484         2    ;  uncertainty k = 0.327982
        20        19        18        47     9        0.000000        0.511996         3    ;  uncertainty k = 0.271697
        20        19        18        47     9      180.000000        0.967453         4    ;  uncertainty k = 0.200618
        20        19        23        24     9        0.000000        0.236042         1    ;  uncertainty k = 0.379494
        20        19        23        24     9      180.000000        9.213515         2    ;  uncertainty k = 0.387657
        20        19        23        24     9        0.000000        1.258676         3    ;  uncertainty k = 0.239471
        20        19        23        24     9      180.000000        1.696706         4    ;  uncertainty k = 0.091092
        20        19        23        53     9        0.000000       -0.406095         1    ;  uncertainty k = 0.596583
        20        19        23        53     9      180.000000        7.661621         2    ;  uncertainty k = 0.279747
        20        19        23        53     9        0.000000        0.556803         3    ;  uncertainty k = 0.272859
        20        19        23        53     9      180.000000        1.045062         4    ;  uncertainty k = 0.199628
        20        21        22        51     9        0.000000       42.776095         1    ;  uncertainty k = 0.518421
        20        21        22        51     9      180.000000       -5.433019         2    ;  uncertainty k = 1.227854
        20        21        22        51     9        0.000000      -10.048203         3    ;  uncertainty k = 0.702213
        20        21        22        51     9      180.000000        4.579674         4    ;  uncertainty k = 0.480814
        20        21        22        52     9        0.000000       42.776095         1    ;  uncertainty k = 0.518421
        20        21        22        52     9      180.000000       -5.433019         2    ;  uncertainty k = 1.227854
        20        21        22        52     9        0.000000      -10.048203         3    ;  uncertainty k = 0.702213
        20        21        22        52     9      180.000000        4.579674         4    ;  uncertainty k = 0.480814
        20        22        21        49     9        0.000000       42.776095         1    ;  uncertainty k = 0.518421
        20        22        21        49     9      180.000000       -5.433019         2    ;  uncertainty k = 1.227854
        20        22        21        49     9        0.000000      -10.048203         3    ;  uncertainty k = 0.702213
        20        22        21        49     9      180.000000        4.579674         4    ;  uncertainty k = 0.480814
        20        22        21        50     9        0.000000       42.776095         1    ;  uncertainty k = 0.518421
        20        22        21        50     9      180.000000       -5.433019         2    ;  uncertainty k = 1.227854
        20        22        21        50     9        0.000000      -10.048203         3    ;  uncertainty k = 0.702213
        20        22        21        50     9      180.000000        4.579674         4    ;  uncertainty k = 0.480814
        21        20        19        23     9        0.000000        0.462471         1    ;  uncertainty k = 0.528073
        21        20        19        23     9      180.000000        1.302100         2    ;  uncertainty k = 0.199064
        21        20        19        23     9        0.000000        0.625401         3    ;  uncertainty k = 0.257946
        21        20        19        23     9      180.000000        0.262231         4    ;  uncertainty k = 0.076121
        21        20        22        51     9        0.000000       44.086348         1    ;  uncertainty k = 0.292746
        21        20        22        51     9      180.000000       -3.932959         2    ;  uncertainty k = 0.833273
        21        20        22        51     9        0.000000      -10.476674         3    ;  uncertainty k = 0.884232
        21        20        22        51     9      180.000000        4.968372         4    ;  uncertainty k = 0.324107
        21        20        22        52     9        0.000000       44.086348         1    ;  uncertainty k = 0.292746
        21        20        22        52     9      180.000000       -3.932959         2    ;  uncertainty k = 0.833273
        21        20        22        52     9        0.000000      -10.476674         3    ;  uncertainty k = 0.884232
        21        20        22        52     9      180.000000        4.968372         4    ;  uncertainty k = 0.324107
        21        22        20        48     9        0.000000       47.944702         1    ;  uncertainty k = 0.290842
        21        22        20        48     9      180.000000       -2.774871         2    ;  uncertainty k = 1.516309
        21        22        20        48     9        0.000000      -10.935639         3    ;  uncertainty k = 0.916175
        21        22        20        48     9      180.000000        5.918743         4    ;  uncertainty k = 0.428399
        22        20        19        23     9        0.000000        0.462471         1    ;  uncertainty k = 0.528073
        22        20        19        23     9      180.000000        1.302100         2    ;  uncertainty k = 0.199064
        22        20        19        23     9        0.000000        0.625401         3    ;  uncertainty k = 0.257946
        22        20        19        23     9      180.000000        0.262231         4    ;  uncertainty k = 0.076121
        22        20        21        49     9        0.000000       44.086348         1    ;  uncertainty k = 0.292746
        22        20        21        49     9      180.000000       -3.932959         2    ;  uncertainty k = 0.833273
        22        20        21        49     9        0.000000      -10.476674         3    ;  uncertainty k = 0.884232
        22        20        21        49     9      180.000000        4.968372         4    ;  uncertainty k = 0.324107
        22        20        21        50     9        0.000000       44.086348         1    ;  uncertainty k = 0.292746
        22        20        21        50     9      180.000000       -3.932959         2    ;  uncertainty k = 0.833273
        22        20        21        50     9        0.000000      -10.476674         3    ;  uncertainty k = 0.884232
        22        20        21        50     9      180.000000        4.968372         4    ;  uncertainty k = 0.324107
        22        21        20        48     9        0.000000       47.944702         1    ;  uncertainty k = 0.290842
        22        21        20        48     9      180.000000       -2.774871         2    ;  uncertainty k = 1.516309
        22        21        20        48     9        0.000000      -10.935639         3    ;  uncertainty k = 0.916175
        22        21        20        48     9      180.000000        5.918743         4    ;  uncertainty k = 0.428399
        23        19        18        47     9        0.000000        0.131401         1    ;  uncertainty k = 0.165772
        23        19        18        47     9      180.000000        6.592974         2    ;  uncertainty k = 0.594498
        23        19        18        47     9        0.000000        1.453617         3    ;  uncertainty k = 0.281143
        23        19        18        47     9      180.000000        1.597080         4    ;  uncertainty k = 0.115971
        23        19        20        48     9        0.000000        0.153290         1    ;  uncertainty k = 0.613429
        23        19        20        48     9      180.000000        1.370829         2    ;  uncertainty k = 0.173825
        23        19        20        48     9        0.000000        0.599432         3    ;  uncertainty k = 0.118701
        23        19        20        48     9      180.000000        0.208879         4    ;  uncertainty k = 0.072056
        23        24        25        26     9        0.000000       -0.075879         1    ;  uncertainty k = 0.233529
        23        24        25        26     9      180.000000        0.964001         2    ;  uncertainty k = 0.476063
        23        24        25        26     9        0.000000       -0.219951         3    ;  uncertainty k = 0.457024
        23        24        25        26     9      180.000000        0.075887         4    ;  uncertainty k = 0.130660
        23        24        25        54     9        0.000000        0.459339         1    ;  uncertainty k = 0.819071
        23        24        25        54     9      180.000000        1.837788         2    ;  uncertainty k = 0.381351
        23        24        25        54     9        0.000000        0.105037         3    ;  uncertainty k = 0.160014
        23        24        25        54     9      180.000000       -0.003918         4    ;  uncertainty k = 0.147652
        24        16        15        45     9        0.000000       11.904229         1    ;  uncertainty k = 0.576842
        24        16        15        45     9      180.000000        4.805550         2    ;  uncertainty k = 0.569852
        24        16        15        45     9        0.000000        0.203410         3    ;  uncertainty k = 0.247281
        24        16        15        45     9      180.000000        0.220579         4    ;  uncertainty k = 0.169465
        24        16        17        46     9        0.000000        0.143847         1    ;  uncertainty k = 0.942336
        24        16        17        46     9      180.000000        6.144116         2    ;  uncertainty k = 0.691791
        24        16        17        46     9        0.000000        1.324334         3    ;  uncertainty k = 0.303434
        24        16        17        46     9      180.000000        1.288074         4    ;  uncertainty k = 0.187298
        24        25         7        38     9        0.000000       -0.284232         1    ;  uncertainty k = 1.139593
        24        25         7        38     9      180.000000        0.784529         2    ;  uncertainty k = 0.443309
        24        25         7        38     9        0.000000        0.019177         3    ;  uncertainty k = 0.079100
        24        25         7        38     9      180.000000       -0.072458         4    ;  uncertainty k = 0.097630
        25         7         6        36     9        0.000000       -0.377205         1    ;  uncertainty k = 0.492675
        25         7         6        36     9      180.000000       -0.671384         2    ;  uncertainty k = 0.144375
        25         7         6        36     9        0.000000        0.282874         3    ;  uncertainty k = 0.121003
        25         7         6        36     9      180.000000       -0.012164         4    ;  uncertainty k = 0.050912
        25         7         6        37     9        0.000000       -0.377205         1    ;  uncertainty k = 0.492675
        25         7         6        37     9      180.000000       -0.671384         2    ;  uncertainty k = 0.144375
        25         7         6        37     9        0.000000        0.282874         3    ;  uncertainty k = 0.121003
        25         7         6        37     9      180.000000       -0.012164         4    ;  uncertainty k = 0.050912
        25         7         8        39     9        0.000000        0.621068         1    ;  uncertainty k = 0.767588
        25         7         8        39     9      180.000000       -1.422914         2    ;  uncertainty k = 0.701372
        25         7         8        39     9        0.000000       -0.401653         3    ;  uncertainty k = 0.137381
        25         7         8        39     9      180.000000        0.018450         4    ;  uncertainty k = 0.144642
        25        24        23        53     9        0.000000       -0.244526         1    ;  uncertainty k = 0.441132
        25        24        23        53     9      180.000000        8.434188         2    ;  uncertainty k = 0.918221
        25        24        23        53     9        0.000000        0.771571         3    ;  uncertainty k = 0.298657
        25        24        23        53     9      180.000000        1.100171         4    ;  uncertainty k = 0.458532
        25        26         4        33     9        0.000000       -2.048962         1    ;  uncertainty k = 1.627056
        25        26         4        33     9      180.000000       -0.836812         2    ;  uncertainty k = 0.521874
        25        26         4        33     9        0.000000        0.232561         3    ;  uncertainty k = 0.056480
        25        26         4        33     9      180.000000        0.015152         4    ;  uncertainty k = 0.160223
        26         4         3        31     9        0.000000        1.173470         1    ;  uncertainty k = 0.977602
        26         4         3        31     9      180.000000       -0.816408         2    ;  uncertainty k = 0.269217
        26         4         3        31     9        0.000000        0.408876         3    ;  uncertainty k = 0.294466
        26         4         3        31     9      180.000000       -0.106316         4    ;  uncertainty k = 0.200540
        26         4         3        32     9        0.000000        1.173470         1    ;  uncertainty k = 0.977602
        26         4         3        32     9      180.000000       -0.816408         2    ;  uncertainty k = 0.269217
        26         4         3        32     9        0.000000        0.408876         3    ;  uncertainty k = 0.294466
        26         4         3        32     9      180.000000       -0.106316         4    ;  uncertainty k = 0.200540
        26         4         5        34     9        0.000000       -1.120835         1    ;  uncertainty k = 0.408236
        26         4         5        34     9      180.000000       -1.089181         2    ;  uncertainty k = 0.426858
        26         4         5        34     9        0.000000        1.052287         3    ;  uncertainty k = 0.240255
        26         4         5        34     9      180.000000       -0.072184         4    ;  uncertainty k = 0.050785
        26         4         5        35     9        0.000000       -1.120835         1    ;  uncertainty k = 0.408236
        26         4         5        35     9      180.000000       -1.089181         2    ;  uncertainty k = 0.426858
        26         4         5        35     9        0.000000        1.052287         3    ;  uncertainty k = 0.240255
        26         4         5        35     9      180.000000       -0.072184         4    ;  uncertainty k = 0.050785
        26        25         7        38     9        0.000000       -0.596401         1    ;  uncertainty k = 0.334533
        26        25         7        38     9      180.000000        0.354252         2    ;  uncertainty k = 0.578886
        26        25         7        38     9        0.000000        0.093636         3    ;  uncertainty k = 0.294374
        26        25         7        38     9      180.000000       -0.138412         4    ;  uncertainty k = 0.133407
        27         1         2        30     9        0.000000       -0.199732         1    ;  uncertainty k = 0.663170
        27         1         2        30     9      180.000000       -0.359617         2    ;  uncertainty k = 0.485979
        27         1         2        30     9        0.000000        0.552467         3    ;  uncertainty k = 0.121279
        27         1         2        30     9      180.000000        0.083020         4    ;  uncertainty k = 0.112026
        27         1         2        55     9        0.000000       -0.199732         1    ;  uncertainty k = 0.663169
        27         1         2        55     9      180.000000       -0.359617         2    ;  uncertainty k = 0.485979
        27         1         2        55     9        0.000000        0.552467         3    ;  uncertainty k = 0.121280
        27         1         2        55     9      180.000000        0.083020         4    ;  uncertainty k = 0.112026
        28         1         2        30     9        0.000000       -0.199732         1    ;  uncertainty k = 0.663170
        28         1         2        30     9      180.000000       -0.359617         2    ;  uncertainty k = 0.485979
        28         1         2        30     9        0.000000        0.552467         3    ;  uncertainty k = 0.121279
        28         1         2        30     9      180.000000        0.083020         4    ;  uncertainty k = 0.112026
        28         1         2        55     9        0.000000       -0.199732         1    ;  uncertainty k = 0.663169
        28         1         2        55     9      180.000000       -0.359617         2    ;  uncertainty k = 0.485979
        28         1         2        55     9        0.000000        0.552467         3    ;  uncertainty k = 0.121280
        28         1         2        55     9      180.000000        0.083020         4    ;  uncertainty k = 0.112026
        29         1         2        30     9        0.000000       -0.199733         1    ;  uncertainty k = 0.663171
        29         1         2        30     9      180.000000       -0.359616         2    ;  uncertainty k = 0.485978
        29         1         2        30     9        0.000000        0.552467         3    ;  uncertainty k = 0.121280
        29         1         2        30     9      180.000000        0.083020         4    ;  uncertainty k = 0.112026
        29         1         2        55     9        0.000000       -0.199732         1    ;  uncertainty k = 0.663171
        29         1         2        55     9      180.000000       -0.359616         2    ;  uncertainty k = 0.485978
        29         1         2        55     9        0.000000        0.552467         3    ;  uncertainty k = 0.121279
        29         1         2        55     9      180.000000        0.083020         4    ;  uncertainty k = 0.112026
        30         2         3        31     9        0.000000        0.344846         1    ;  uncertainty k = 0.569641
        30         2         3        31     9      180.000000       -0.270675         2    ;  uncertainty k = 0.212261
        30         2         3        31     9        0.000000        0.296373         3    ;  uncertainty k = 0.102911
        30         2         3        31     9      180.000000        0.019633         4    ;  uncertainty k = 0.099171
        30         2         3        32     9        0.000000        0.344846         1    ;  uncertainty k = 0.569641
        30         2         3        32     9      180.000000       -0.270675         2    ;  uncertainty k = 0.212261
        30         2         3        32     9        0.000000        0.296373         3    ;  uncertainty k = 0.102911
        30         2         3        32     9      180.000000        0.019633         4    ;  uncertainty k = 0.099171
        31         3         2        55     9        0.000000        0.344845         1    ;  uncertainty k = 0.569640
        31         3         2        55     9      180.000000       -0.270674         2    ;  uncertainty k = 0.212262
        31         3         2        55     9        0.000000        0.296373         3    ;  uncertainty k = 0.102911
        31         3         2        55     9      180.000000        0.019633         4    ;  uncertainty k = 0.099171
        31         3         4        33     9        0.000000       -0.216190         1    ;  uncertainty k = 0.375570
        31         3         4        33     9      180.000000        0.070681         2    ;  uncertainty k = 0.423812
        31         3         4        33     9        0.000000        0.186558         3    ;  uncertainty k = 0.185130
        31         3         4        33     9      180.000000       -0.045535         4    ;  uncertainty k = 0.059390
        32         3         2        55     9        0.000000        0.344845         1    ;  uncertainty k = 0.569640
        32         3         2        55     9      180.000000       -0.270674         2    ;  uncertainty k = 0.212262
        32         3         2        55     9        0.000000        0.296373         3    ;  uncertainty k = 0.102911
        32         3         2        55     9      180.000000        0.019633         4    ;  uncertainty k = 0.099171
        32         3         4        33     9        0.000000       -0.216190         1    ;  uncertainty k = 0.375570
        32         3         4        33     9      180.000000        0.070681         2    ;  uncertainty k = 0.423812
        32         3         4        33     9        0.000000        0.186558         3    ;  uncertainty k = 0.185130
        32         3         4        33     9      180.000000       -0.045535         4    ;  uncertainty k = 0.059390
        33         4         5        34     9        0.000000        0.455768         1    ;  uncertainty k = 0.162016
        33         4         5        34     9      180.000000        0.067803         2    ;  uncertainty k = 0.345289
        33         4         5        34     9        0.000000       -0.022970         3    ;  uncertainty k = 0.136639
        33         4         5        34     9      180.000000       -0.119005         4    ;  uncertainty k = 0.074424
        33         4         5        35     9        0.000000        0.455768         1    ;  uncertainty k = 0.162016
        33         4         5        35     9      180.000000        0.067803         2    ;  uncertainty k = 0.345289
        33         4         5        35     9        0.000000       -0.022970         3    ;  uncertainty k = 0.136639
        33         4         5        35     9      180.000000       -0.119005         4    ;  uncertainty k = 0.074424
        34         5         6        36     9        0.000000        1.565776         1    ;  uncertainty k = 0.444564
        34         5         6        36     9      180.000000        0.161485         2    ;  uncertainty k = 0.255154
        34         5         6        36     9        0.000000        0.367677         3    ;  uncertainty k = 0.120802
        34         5         6        36     9      180.000000        0.076828         4    ;  uncertainty k = 0.017254
        34         5         6        37     9        0.000000        1.565776         1    ;  uncertainty k = 0.444564
        34         5         6        37     9      180.000000        0.161485         2    ;  uncertainty k = 0.255154
        34         5         6        37     9        0.000000        0.367677         3    ;  uncertainty k = 0.120802
        34         5         6        37     9      180.000000        0.076828         4    ;  uncertainty k = 0.017254
        35         5         6        36     9        0.000000        1.565776         1    ;  uncertainty k = 0.444564
        35         5         6        36     9      180.000000        0.161485         2    ;  uncertainty k = 0.255154
        35         5         6        36     9        0.000000        0.367677         3    ;  uncertainty k = 0.120802
        35         5         6        36     9      180.000000        0.076828         4    ;  uncertainty k = 0.017254
        35         5         6        37     9        0.000000        1.565776         1    ;  uncertainty k = 0.444564
        35         5         6        37     9      180.000000        0.161485         2    ;  uncertainty k = 0.255154
        35         5         6        37     9        0.000000        0.367677         3    ;  uncertainty k = 0.120802
        35         5         6        37     9      180.000000        0.076828         4    ;  uncertainty k = 0.017254
        36         6         7        38     9        0.000000        1.556155         1    ;  uncertainty k = 0.374248
        36         6         7        38     9      180.000000       -0.010849         2    ;  uncertainty k = 0.316681
        36         6         7        38     9        0.000000       -0.074252         3    ;  uncertainty k = 0.123289
        36         6         7        38     9      180.000000        0.022583         4    ;  uncertainty k = 0.073589
        37         6         7        38     9        0.000000        1.556155         1    ;  uncertainty k = 0.374248
        37         6         7        38     9      180.000000       -0.010849         2    ;  uncertainty k = 0.316681
        37         6         7        38     9        0.000000       -0.074252         3    ;  uncertainty k = 0.123289
        37         6         7        38     9      180.000000        0.022583         4    ;  uncertainty k = 0.073589
        38         7         8        39     9        0.000000        1.077534         1    ;  uncertainty k = 0.458222
        38         7         8        39     9      180.000000       -0.042490         2    ;  uncertainty k = 0.250346
        38         7         8        39     9        0.000000       -0.346965         3    ;  uncertainty k = 0.176981
        38         7         8        39     9      180.000000       -0.270511         4    ;  uncertainty k = 0.102482
        38         7        25        54     9        0.000000        2.069062         1    ;  uncertainty k = 0.451220
        38         7        25        54     9      180.000000        0.873523         2    ;  uncertainty k = 0.446755
        38         7        25        54     9        0.000000       -0.477679         3    ;  uncertainty k = 0.228811
        38         7        25        54     9      180.000000       -0.170775         4    ;  uncertainty k = 0.066056
        39         8        15        45     9        0.000000        0.468542         1    ;  uncertainty k = 0.563664
        39         8        15        45     9      180.000000       -0.983993         2    ;  uncertainty k = 0.285944
        39         8        15        45     9        0.000000        0.482175         3    ;  uncertainty k = 0.277173
        39         8        15        45     9      180.000000        0.028441         4    ;  uncertainty k = 0.127509
        40        10        11        41     9        0.000000       -0.038400         1    ;  uncertainty k = 0.034127
        40        10        11        41     9      180.000000        7.644156         2    ;  uncertainty k = 0.255449
        40        10        11        41     9        0.000000       -0.470075         3    ;  uncertainty k = 0.270053
        40        10        11        41     9      180.000000        0.106023         4    ;  uncertainty k = 0.117776
        41        11        12        42     9        0.000000       -0.016279         1    ;  uncertainty k = 0.090335
        41        11        12        42     9      180.000000        7.510682         2    ;  uncertainty k = 0.369436
        41        11        12        42     9        0.000000       -0.422665         3    ;  uncertainty k = 0.276611
        41        11        12        42     9      180.000000        0.041075         4    ;  uncertainty k = 0.155578
        42        12        13        43     9        0.000000       -0.016280         1    ;  uncertainty k = 0.090335
        42        12        13        43     9      180.000000        7.510680         2    ;  uncertainty k = 0.369436
        42        12        13        43     9        0.000000       -0.422665         3    ;  uncertainty k = 0.276611
        42        12        13        43     9      180.000000        0.041076         4    ;  uncertainty k = 0.155578
        43        13        14        44     9        0.000000       -0.038401         1    ;  uncertainty k = 0.034127
        43        13        14        44     9      180.000000        7.644154         2    ;  uncertainty k = 0.255448
        43        13        14        44     9        0.000000       -0.470075         3    ;  uncertainty k = 0.270053
        43        13        14        44     9      180.000000        0.106023         4    ;  uncertainty k = 0.117776
        46        17        18        47     9        0.000000        0.126450         1    ;  uncertainty k = 0.666907
        46        17        18        47     9      180.000000        7.833023         2    ;  uncertainty k = 0.387471
        46        17        18        47     9        0.000000       -0.387957         3    ;  uncertainty k = 0.348642
        46        17        18        47     9      180.000000        0.191304         4    ;  uncertainty k = 0.170775
        48        20        21        49     9        0.000000        0.192296         1    ;  uncertainty k = 0.974433
        48        20        21        49     9      180.000000       -1.151375         2    ;  uncertainty k = 0.820612
        48        20        21        49     9        0.000000        0.692817         3    ;  uncertainty k = 0.286541
        48        20        21        49     9      180.000000       -0.793501         4    ;  uncertainty k = 0.159963
        48        20        21        50     9        0.000000        0.192296         1    ;  uncertainty k = 0.974433
        48        20        21        50     9      180.000000       -1.151375         2    ;  uncertainty k = 0.820612
        48        20        21        50     9        0.000000        0.692817         3    ;  uncertainty k = 0.286541
        48        20        21        50     9      180.000000       -0.793501         4    ;  uncertainty k = 0.159963
        48        20        22        51     9        0.000000        0.192296         1    ;  uncertainty k = 0.974433
        48        20        22        51     9      180.000000       -1.151375         2    ;  uncertainty k = 0.820612
        48        20        22        51     9        0.000000        0.692817         3    ;  uncertainty k = 0.286541
        48        20        22        51     9      180.000000       -0.793501         4    ;  uncertainty k = 0.159963
        48        20        22        52     9        0.000000        0.192296         1    ;  uncertainty k = 0.974433
        48        20        22        52     9      180.000000       -1.151375         2    ;  uncertainty k = 0.820612
        48        20        22        52     9        0.000000        0.692817         3    ;  uncertainty k = 0.286541
        48        20        22        52     9      180.000000       -0.793501         4    ;  uncertainty k = 0.159963
        49        21        22        51     9        0.000000        0.168461         1    ;  uncertainty k = 0.570130
        49        21        22        51     9      180.000000       -1.306539         2    ;  uncertainty k = 0.577183
        49        21        22        51     9        0.000000        0.977680         3    ;  uncertainty k = 0.318119
        49        21        22        51     9      180.000000       -0.649335         4    ;  uncertainty k = 0.083536
        49        21        22        52     9        0.000000        0.168461         1    ;  uncertainty k = 0.570130
        49        21        22        52     9      180.000000       -1.306539         2    ;  uncertainty k = 0.577183
        49        21        22        52     9        0.000000        0.977680         3    ;  uncertainty k = 0.318119
        49        21        22        52     9      180.000000       -0.649335         4    ;  uncertainty k = 0.083536
        50        21        22        51     9        0.000000        0.168461         1    ;  uncertainty k = 0.570130
        50        21        22        51     9      180.000000       -1.306539         2    ;  uncertainty k = 0.577183
        50        21        22        51     9        0.000000        0.977680         3    ;  uncertainty k = 0.318119
        50        21        22        51     9      180.000000       -0.649335         4    ;  uncertainty k = 0.083536
        50        21        22        52     9        0.000000        0.168461         1    ;  uncertainty k = 0.570130
        50        21        22        52     9      180.000000       -1.306539         2    ;  uncertainty k = 0.577183
        50        21        22        52     9        0.000000        0.977680         3    ;  uncertainty k = 0.318119
        50        21        22        52     9      180.000000       -0.649335         4    ;  uncertainty k = 0.083536

[ dihedrals ] ; impropers
;       ai        aj        ak        al funct           phase               k        pn
         9         8        10        14     4      180.000000       12.903618         2    ;  uncertainty k = 0.121797
         9        10        14         8     4      180.000000       12.903618         2    ;  uncertainty k = 0.121797
         9        14         8        10     4      180.000000       12.903618         2    ;  uncertainty k = 0.121797
        10         9        11        40     4      180.000000        4.073200         2    ;  uncertainty k = 0.089532
        10        11        40         9     4      180.000000        4.073200         2    ;  uncertainty k = 0.089532
        10        40         9        11     4      180.000000        4.073200         2    ;  uncertainty k = 0.089532
        11        10        12        41     4      180.000000        4.075594         2    ;  uncertainty k = 0.076312
        11        12        41        10     4      180.000000        4.075594         2    ;  uncertainty k = 0.076312
        11        41        10        12     4      180.000000        4.075594         2    ;  uncertainty k = 0.076312
        12        11        13        42     4      180.000000        4.286751         2    ;  uncertainty k = 0.163795
        12        13        42        11     4      180.000000        4.286751         2    ;  uncertainty k = 0.163795
        12        42        11        13     4      180.000000        4.286751         2    ;  uncertainty k = 0.163795
        13        12        14        43     4      180.000000        4.075594         2    ;  uncertainty k = 0.076311
        13        14        43        12     4      180.000000        4.075594         2    ;  uncertainty k = 0.076311
        13        43        12        14     4      180.000000        4.075594         2    ;  uncertainty k = 0.076311
        14         9        13        44     4      180.000000        4.073199         2    ;  uncertainty k = 0.089533
        14        13        44         9     4      180.000000        4.073199         2    ;  uncertainty k = 0.089533
        14        44         9        13     4      180.000000        4.073199         2    ;  uncertainty k = 0.089533
        16        15        17        24     4      180.000000       21.002885         2    ;  uncertainty k = 0.151758
        16        17        24        15     4      180.000000       21.002885         2    ;  uncertainty k = 0.151758
        16        24        15        17     4      180.000000       21.002885         2    ;  uncertainty k = 0.151758
        17        16        18        46     4      180.000000        1.977576         2    ;  uncertainty k = 0.245997
        17        18        46        16     4      180.000000        1.977576         2    ;  uncertainty k = 0.245997
        17        46        16        18     4      180.000000        1.977576         2    ;  uncertainty k = 0.245997
        18        17        19        47     4      180.000000        4.237547         2    ;  uncertainty k = 0.101220
        18        19        47        17     4      180.000000        4.237547         2    ;  uncertainty k = 0.101220
        18        47        17        19     4      180.000000        4.237547         2    ;  uncertainty k = 0.101220
        19        18        20        23     4      180.000000       13.988215         2    ;  uncertainty k = 0.132527
        19        20        23        18     4      180.000000       13.988215         2    ;  uncertainty k = 0.132527
        19        23        18        20     4      180.000000       13.988215         2    ;  uncertainty k = 0.132527
        23        19        24        53     4      180.000000        3.973832         2    ;  uncertainty k = 0.296103
        23        24        53        19     4      180.000000        3.973832         2    ;  uncertainty k = 0.296103
        23        53        19        24     4      180.000000        3.973832         2    ;  uncertainty k = 0.296103
        24        16        23        25     4      180.000000       10.724612         2    ;  uncertainty k = 0.242790
        24        23        25        16     4      180.000000       10.724612         2    ;  uncertainty k = 0.242790
        24        25        16        23     4      180.000000       10.724612         2    ;  uncertainty k = 0.242790

[ pairs ]
;       ai        aj funct
         1         4     1
         1        31     1
         1        32     1
         2         5     1
         2        26     1
         2        33     1
         3         6     1
         3        25     1
         3        27     1
         3        28     1
         3        29     1
         3        34     1
         3        35     1
         4         7     1
         4        24     1
         4        30     1
         4        36     1
         4        37     1
         4        54     1
         4        55     1
         5         8     1
         5        25     1
         5        31     1
         5        32     1
         5        38     1
         6         9     1
         6        15     1
         6        24     1
         6        26     1
         6        33     1
         6        39     1
         6        54     1
         7        10     1
         7        14     1
         7        16     1
         7        23     1
         7        34     1
         7        35     1
         7        45     1
         8        11     1
         8        13     1
         8        17     1
         8        24     1
         8        26     1
         8        36     1
         8        37     1
         8        40     1
         8        44     1
         8        54     1
         9        12     1
         9        16     1
         9        25     1
         9        38     1
         9        41     1
         9        43     1
         9        45     1
        10        13     1
        10        15     1
        10        39     1
        10        42     1
        10        44     1
        11        14     1
        11        43     1
        12        40     1
        12        44     1
        13        41     1
        14        15     1
        14        39     1
        14        40     1
        14        42     1
        15        18     1
        15        23     1
        15        25     1
        15        38     1
        15        46     1
        16        19     1
        16        26     1
        16        39     1
        16        47     1
        16        53     1
        16        54     1
        17        20     1
        17        23     1
        17        25     1
        17        45     1
        18        21     1
        18        22     1
        18        24     1
        18        48     1
        18        53     1
        19        25     1
        19        46     1
        19        49     1
        19        50     1
        19        51     1
        19        52     1
        20        24     1
        20        47     1
        20        53     1
        21        23     1
        22        23     1
        23        26     1
        23        47     1
        23        48     1
        23        54     1
        24        38     1
        24        45     1
        24        46     1
        25        33     1
        25        36     1
        25        37     1
        25        39     1
        25        53     1
        26        31     1
        26        32     1
        26        34     1
        26        35     1
        26        38     1
        27        30     1
        27        55     1
        28        30     1
        28        55     1
        29        30     1
        29        55     1
        30        31     1
        30        32     1
        31        33     1
        31        55     1
        32        33     1
        32        55     1
        33        34     1
        33        35     1
        34        36     1
        34        37     1
        35        36     1
        35        37     1
        36        38     1
        37        38     1
        38        39     1
        38        54     1
        39        45     1
        40        41     1
        41        42     1
        42        43     1
        43        44     1
        46        47     1
        48        49     1
        48        50     1
        48        51     1
        48        52     1
        49        51     1
        49        52     1
        50        51     1
        50        52     1
