; ITP file created by ByteFF-joint-25, 2026-02-17 09:13:59.852554

[ atomtypes ]
;name           bonded.type        at.num        mass        charge   ptype           sigma         epsilon
 c0bf                                   6      0.0000       0.00000       A     3.39773e-01     4.50878e-01    ;  uncertainty sigma = 0.000005, epsilon = 0.000421
 c1bf                                   6      0.0000       0.00000       A     3.31519e-01     4.13184e-01    ;  uncertainty sigma = 0.000004, epsilon = 0.000662
 c2bf                                   6      0.0000       0.00000       A     3.31516e-01     4.13379e-01    ;  uncertainty sigma = 0.000003, epsilon = 0.000614
 c3bf                                   6      0.0000       0.00000       A     3.31527e-01     4.13399e-01    ;  uncertainty sigma = 0.000005, epsilon = 0.000618
 c4bf                                   6      0.0000       0.00000       A     3.31518e-01     4.13475e-01    ;  uncertainty sigma = 0.000015, epsilon = 0.001283
 c5bf                                   6      0.0000       0.00000       A     3.31551e-01     4.12539e-01    ;  uncertainty sigma = 0.000037, epsilon = 0.001266
 o6bf                                   8      0.0000       0.00000       A     3.04824e-01     6.12819e-01    ;  uncertainty sigma = 0.000034, epsilon = 0.001931
 n7bf                                   7      0.0000       0.00000       A     3.17875e-01     6.85705e-01    ;  uncertainty sigma = 0.000055, epsilon = 0.004875
 c8bf                                   6      0.0000       0.00000       A     3.39826e-01     4.51063e-01    ;  uncertainty sigma = 0.000038, epsilon = 0.001988
 c9bf                                   6      0.0000       0.00000       A     3.39818e-01     4.50338e-01    ;  uncertainty sigma = 0.000030, epsilon = 0.001453
 n10bf                                  7      0.0000       0.00000       A     2.76667e-01     4.79740e+00    ;  uncertainty sigma = 0.000084, epsilon = 0.015005
 c11bf                                  6      0.0000       0.00000       A     3.39793e-01     4.50536e-01    ;  uncertainty sigma = 0.000016, epsilon = 0.000873
 c12bf                                  6      0.0000       0.00000       A     3.39762e-01     4.51180e-01    ;  uncertainty sigma = 0.000012, epsilon = 0.001358
 c13bf                                  6      0.0000       0.00000       A     3.39789e-01     4.50788e-01    ;  uncertainty sigma = 0.000007, epsilon = 0.000744
 c14bf                                  6      0.0000       0.00000       A     3.39750e-01     4.51142e-01    ;  uncertainty sigma = 0.000011, epsilon = 0.000651
 c15bf                                  6      0.0000       0.00000       A     3.39755e-01     4.50973e-01    ;  uncertainty sigma = 0.000035, epsilon = 0.000615
 c16bf                                  6      0.0000       0.00000       A     3.39774e-01     4.51693e-01    ;  uncertainty sigma = 0.000009, epsilon = 0.001676
 c17bf                                  6      0.0000       0.00000       A     3.31532e-01     4.13295e-01    ;  uncertainty sigma = 0.000012, epsilon = 0.000849
 c18bf                                  6      0.0000       0.00000       A     3.31519e-01     4.13329e-01    ;  uncertainty sigma = 0.000002, epsilon = 0.000632
 c19bf                                  6      0.0000       0.00000       A     3.31520e-01     4.13328e-01    ;  uncertainty sigma = 0.000003, epsilon = 0.000582
 c20bf                                  6      0.0000       0.00000       A     3.31518e-01     4.13340e-01    ;  uncertainty sigma = 0.000003, epsilon = 0.000579
 c21bf                                  6      0.0000       0.00000       A     3.31520e-01     4.13328e-01    ;  uncertainty sigma = 0.000003, epsilon = 0.000582
 c22bf                                  6      0.0000       0.00000       A     3.31519e-01     4.13329e-01    ;  uncertainty sigma = 0.000002, epsilon = 0.000632
 n23bf                                  7      0.0000       0.00000       A     3.27909e-01     6.44315e-01    ;  uncertainty sigma = 0.000015, epsilon = 0.004120
 c24bf                                  6      0.0000       0.00000       A     3.31548e-01     4.13221e-01    ;  uncertainty sigma = 0.000016, epsilon = 0.001142
 c25bf                                  6      0.0000       0.00000       A     3.31520e-01     4.13421e-01    ;  uncertainty sigma = 0.000010, epsilon = 0.000475
 c26bf                                  6      0.0000       0.00000       A     3.31512e-01     4.13402e-01    ;  uncertainty sigma = 0.000007, epsilon = 0.000559
 c27bf                                  6      0.0000       0.00000       A     3.31517e-01     4.13262e-01    ;  uncertainty sigma = 0.000010, epsilon = 0.000628
 c28bf                                  6      0.0000       0.00000       A     3.39792e-01     4.50242e-01    ;  uncertainty sigma = 0.000013, epsilon = 0.000578
 f29bf                                  9      0.0000       0.00000       A     3.03451e-01     3.47806e-01    ;  uncertainty sigma = 0.000008, epsilon = 0.001323
 f30bf                                  9      0.0000       0.00000       A     3.03451e-01     3.47806e-01    ;  uncertainty sigma = 0.000008, epsilon = 0.001323
 f31bf                                  9      0.0000       0.00000       A     3.03451e-01     3.47806e-01    ;  uncertainty sigma = 0.000008, epsilon = 0.001323
 c32bf                                  6      0.0000       0.00000       A     3.31532e-01     4.13181e-01    ;  uncertainty sigma = 0.000009, epsilon = 0.000749
 c33bf                                  6      0.0000       0.00000       A     3.31540e-01     4.13240e-01    ;  uncertainty sigma = 0.000019, epsilon = 0.000618
 c34bf                                  6      0.0000       0.00000       A     3.39758e-01     4.50739e-01    ;  uncertainty sigma = 0.000017, epsilon = 0.001669
 o35bf                                  8      0.0000       0.00000       A     3.15655e-01     3.03527e-01    ;  uncertainty sigma = 0.000036, epsilon = 0.001272
 c36bf                                  6      0.0000       0.00000       A     3.31527e-01     4.13399e-01    ;  uncertainty sigma = 0.000005, epsilon = 0.000618
 c37bf                                  6      0.0000       0.00000       A     3.31516e-01     4.13379e-01    ;  uncertainty sigma = 0.000003, epsilon = 0.000614
 h38bf                                  1      0.0000       0.00000       A     2.60034e-01     8.66894e-02    ;  uncertainty sigma = 0.000006, epsilon = 0.000488
 h39bf                                  1      0.0000       0.00000       A     2.60034e-01     8.66894e-02    ;  uncertainty sigma = 0.000006, epsilon = 0.000488
 h40bf                                  1      0.0000       0.00000       A     2.60034e-01     8.66894e-02    ;  uncertainty sigma = 0.000006, epsilon = 0.000488
 h41bf                                  1      0.0000       0.00000       A     2.62564e-01     6.71089e-02    ;  uncertainty sigma = 0.000008, epsilon = 0.000514
 h42bf                                  1      0.0000       0.00000       A     2.62555e-01     6.70547e-02    ;  uncertainty sigma = 0.000010, epsilon = 0.000692
 h43bf                                  1      0.0000       0.00000       A     2.42192e-01     8.74114e-02    ;  uncertainty sigma = 0.000096, epsilon = 0.001842
 h44bf                                  1      0.0000       0.00000       A     2.42192e-01     8.74114e-02    ;  uncertainty sigma = 0.000096, epsilon = 0.001842
 h45bf                                  1      0.0000       0.00000       A     1.88742e-01     8.62844e-02    ;  uncertainty sigma = 0.000064, epsilon = 0.001743
 h46bf                                  1      0.0000       0.00000       A     1.88742e-01     8.62844e-02    ;  uncertainty sigma = 0.000064, epsilon = 0.001743
 h47bf                                  1      0.0000       0.00000       A     1.10664e-01     4.15737e-02    ;  uncertainty sigma = 0.000063, epsilon = 0.000603
 h48bf                                  1      0.0000       0.00000       A     1.10664e-01     4.15737e-02    ;  uncertainty sigma = 0.000063, epsilon = 0.000603
 h49bf                                  1      0.0000       0.00000       A     2.42161e-01     8.70044e-02    ;  uncertainty sigma = 0.000021, epsilon = 0.000485
 h50bf                                  1      0.0000       0.00000       A     2.42161e-01     8.70044e-02    ;  uncertainty sigma = 0.000021, epsilon = 0.000485
 h51bf                                  1      0.0000       0.00000       A     2.42194e-01     8.72336e-02    ;  uncertainty sigma = 0.000054, epsilon = 0.001176
 h52bf                                  1      0.0000       0.00000       A     2.60026e-01     8.66991e-02    ;  uncertainty sigma = 0.000012, epsilon = 0.000652
 h53bf                                  1      0.0000       0.00000       A     2.60026e-01     8.66991e-02    ;  uncertainty sigma = 0.000012, epsilon = 0.000652
 h54bf                                  1      0.0000       0.00000       A     2.60028e-01     8.66831e-02    ;  uncertainty sigma = 0.000010, epsilon = 0.000720
 h55bf                                  1      0.0000       0.00000       A     2.60028e-01     8.66831e-02    ;  uncertainty sigma = 0.000010, epsilon = 0.000720
 h56bf                                  1      0.0000       0.00000       A     2.59938e-01     8.64077e-02    ;  uncertainty sigma = 0.000052, epsilon = 0.000980
 h57bf                                  1      0.0000       0.00000       A     2.42303e-01     8.69596e-02    ;  uncertainty sigma = 0.000074, epsilon = 0.001557
 h58bf                                  1      0.0000       0.00000       A     2.62560e-01     6.70316e-02    ;  uncertainty sigma = 0.000006, epsilon = 0.000529
 h59bf                                  1      0.0000       0.00000       A     2.62559e-01     6.70249e-02    ;  uncertainty sigma = 0.000010, epsilon = 0.000440
 h60bf                                  1      0.0000       0.00000       A     2.62552e-01     6.70645e-02    ;  uncertainty sigma = 0.000011, epsilon = 0.000453
 h61bf                                  1      0.0000       0.00000       A     2.62559e-01     6.70249e-02    ;  uncertainty sigma = 0.000010, epsilon = 0.000440
 h62bf                                  1      0.0000       0.00000       A     2.62560e-01     6.70316e-02    ;  uncertainty sigma = 0.000006, epsilon = 0.000529
 h63bf                                  1      0.0000       0.00000       A     1.10675e-01     4.07503e-02    ;  uncertainty sigma = 0.000109, epsilon = 0.000764
 h64bf                                  1      0.0000       0.00000       A     2.62577e-01     6.70680e-02    ;  uncertainty sigma = 0.000013, epsilon = 0.000535
 h65bf                                  1      0.0000       0.00000       A     2.62556e-01     6.71147e-02    ;  uncertainty sigma = 0.000013, epsilon = 0.000508
 h66bf                                  1      0.0000       0.00000       A     2.62531e-01     6.70779e-02    ;  uncertainty sigma = 0.000022, epsilon = 0.000511
 h67bf                                  1      0.0000       0.00000       A     2.42239e-01     8.76589e-02    ;  uncertainty sigma = 0.000274, epsilon = 0.002166
 h68bf                                  1      0.0000       0.00000       A     2.62555e-01     6.70547e-02    ;  uncertainty sigma = 0.000010, epsilon = 0.000692
 h69bf                                  1      0.0000       0.00000       A     2.62564e-01     6.71089e-02    ;  uncertainty sigma = 0.000008, epsilon = 0.000514
 h70bf                                  1      0.0000       0.00000       A     1.10664e-01     4.15738e-02    ;  uncertainty sigma = 0.000063, epsilon = 0.000603

[ moleculetype ]
;name             nrexcl
 MOL                   3

[ atoms ]
;       nr            type      resi   res      atom      cgnr      charge          mass ; qtot
         1            c0bf         1   UNL        c0         1    -0.04872       12.0110 ; qtot   -0.049
         2            c1bf         1   UNL        c1         2    -0.05040       12.0110 ; qtot   -0.099
         3            c2bf         1   UNL        c2         3    -0.14220       12.0110 ; qtot   -0.241
         4            c3bf         1   UNL        c3         4    -0.08742       12.0110 ; qtot   -0.329
         5            c4bf         1   UNL        c4         5    -0.15693       12.0110 ; qtot   -0.486
         6            c5bf         1   UNL        c5         6     0.69677       12.0110 ; qtot    0.211
         7            o6bf         1   UNL        o6         7    -0.59202       15.9990 ; qtot   -0.381
         8            n7bf         1   UNL        n7         8    -0.48736       14.0070 ; qtot   -0.868
         9            c8bf         1   UNL        c8         9     0.08448       12.0110 ; qtot   -0.784
        10            c9bf         1   UNL        c9        10     0.12382       12.0110 ; qtot   -0.660
        11           n10bf         1   UNL       n10        11    -0.87128       14.0070 ; qtot   -1.531
        12           c11bf         1   UNL       c11        12     0.08714       12.0110 ; qtot   -1.444
        13           c12bf         1   UNL       c12        13     0.12475       12.0110 ; qtot   -1.319
        14           c13bf         1   UNL       c13        14    -0.10304       12.0110 ; qtot   -1.422
        15           c14bf         1   UNL       c14        15    -0.06725       12.0110 ; qtot   -1.490
        16           c15bf         1   UNL       c15        16    -0.09461       12.0110 ; qtot   -1.584
        17           c16bf         1   UNL       c16        17     0.25867       12.0110 ; qtot   -1.326
        18           c17bf         1   UNL       c17        18    -0.10560       12.0110 ; qtot   -1.431
        19           c18bf         1   UNL       c18        19    -0.11888       12.0110 ; qtot   -1.550
        20           c19bf         1   UNL       c19        20    -0.13078       12.0110 ; qtot   -1.681
        21           c20bf         1   UNL       c20        21    -0.12452       12.0110 ; qtot   -1.805
        22           c21bf         1   UNL       c21        22    -0.13078       12.0110 ; qtot   -1.936
        23           c22bf         1   UNL       c22        23    -0.11888       12.0110 ; qtot   -2.055
        24           n23bf         1   UNL       n23        24    -0.73726       14.0070 ; qtot   -2.792
        25           c24bf         1   UNL       c24        25     0.18349       12.0110 ; qtot   -2.609
        26           c25bf         1   UNL       c25        26    -0.20421       12.0110 ; qtot   -2.813
        27           c26bf         1   UNL       c26        27    -0.02807       12.0110 ; qtot   -2.841
        28           c27bf         1   UNL       c27        28    -0.22948       12.0110 ; qtot   -3.071
        29           c28bf         1   UNL       c28        29     0.71240       12.0110 ; qtot   -2.358
        30           f29bf         1   UNL       f29        30    -0.22895       18.9980 ; qtot   -2.587
        31           f30bf         1   UNL       f30        31    -0.22895       18.9980 ; qtot   -2.816
        32           f31bf         1   UNL       f31        32    -0.22895       18.9980 ; qtot   -3.045
        33           c32bf         1   UNL       c32        33    -0.01242       12.0110 ; qtot   -3.057
        34           c33bf         1   UNL       c33        34    -0.15471       12.0110 ; qtot   -3.212
        35           c34bf         1   UNL       c34        35     0.20145       12.0110 ; qtot   -3.011
        36           o35bf         1   UNL       o35        36    -0.41623       15.9990 ; qtot   -3.427
        37           c36bf         1   UNL       c36        37    -0.08742       12.0110 ; qtot   -3.514
        38           c37bf         1   UNL       c37        38    -0.14220       12.0110 ; qtot   -3.657
        39           h38bf         1   UNL       h38        39     0.04329        1.0080 ; qtot   -3.613
        40           h39bf         1   UNL       h39        40     0.04329        1.0080 ; qtot   -3.570
        41           h40bf         1   UNL       h40        41     0.04329        1.0080 ; qtot   -3.527
        42           h41bf         1   UNL       h41        42     0.13413        1.0080 ; qtot   -3.393
        43           h42bf         1   UNL       h42        43     0.14331        1.0080 ; qtot   -3.249
        44           h43bf         1   UNL       h43        44     0.09113        1.0080 ; qtot   -3.158
        45           h44bf         1   UNL       h44        45     0.09113        1.0080 ; qtot   -3.067
        46           h45bf         1   UNL       h45        46     0.12020        1.0080 ; qtot   -2.947
        47           h46bf         1   UNL       h46        47     0.12020        1.0080 ; qtot   -2.827
        48           h47bf         1   UNL       h47        48     0.47787        1.0080 ; qtot   -2.349
        49           h48bf         1   UNL       h48        49     0.47787        1.0080 ; qtot   -1.871
        50           h49bf         1   UNL       h49        50     0.07555        1.0080 ; qtot   -1.795
        51           h50bf         1   UNL       h50        51     0.07555        1.0080 ; qtot   -1.720
        52           h51bf         1   UNL       h51        52     0.05727        1.0080 ; qtot   -1.662
        53           h52bf         1   UNL       h52        53     0.05483        1.0080 ; qtot   -1.608
        54           h53bf         1   UNL       h53        54     0.05483        1.0080 ; qtot   -1.553
        55           h54bf         1   UNL       h54        55     0.04984        1.0080 ; qtot   -1.503
        56           h55bf         1   UNL       h55        56     0.04984        1.0080 ; qtot   -1.453
        57           h56bf         1   UNL       h56        57     0.06904        1.0080 ; qtot   -1.384
        58           h57bf         1   UNL       h57        58     0.05360        1.0080 ; qtot   -1.330
        59           h58bf         1   UNL       h58        59     0.13512        1.0080 ; qtot   -1.195
        60           h59bf         1   UNL       h59        60     0.13172        1.0080 ; qtot   -1.064
        61           h60bf         1   UNL       h60        61     0.13373        1.0080 ; qtot   -0.930
        62           h61bf         1   UNL       h61        62     0.13172        1.0080 ; qtot   -0.798
        63           h62bf         1   UNL       h62        63     0.13512        1.0080 ; qtot   -0.663
        64           h63bf         1   UNL       h63        64     0.40889        1.0080 ; qtot   -0.254
        65           h64bf         1   UNL       h64        65     0.13718        1.0080 ; qtot   -0.117
        66           h65bf         1   UNL       h65        66     0.15124        1.0080 ; qtot    0.034
        67           h66bf         1   UNL       h66        67     0.15267        1.0080 ; qtot    0.187
        68           h67bf         1   UNL       h67        68     0.05783        1.0080 ; qtot    0.245
        69           h68bf         1   UNL       h68        69     0.14331        1.0080 ; qtot    0.388
        70           h69bf         1   UNL       h69        70     0.13413        1.0080 ; qtot    0.522
        71           h70bf         1   UNL       h70        71     0.47783        1.0080 ; qtot    1.000

[ bonds ]
;       ai        aj funct               r               k
         1         2     1        0.151123   253095.252100    ;  uncertainty r = 0.000012, k = 5.229602
         1        39     1        0.109534   307895.028662    ;  uncertainty r = 0.000008, k = 1.140243
         1        40     1        0.109534   307895.028662    ;  uncertainty r = 0.000008, k = 1.140243
         1        41     1        0.109534   307895.028662    ;  uncertainty r = 0.000008, k = 1.140243
         2         3     1        0.140242   351748.067920    ;  uncertainty r = 0.000027, k = 1.642272
         2        38     1        0.140242   351748.067920    ;  uncertainty r = 0.000027, k = 1.642272
         3         4     1        0.139460   363347.559277    ;  uncertainty r = 0.000036, k = 1.343111
         3        42     1        0.108882   334245.980176    ;  uncertainty r = 0.000012, k = 0.585527
         4         5     1        0.140049   351525.946143    ;  uncertainty r = 0.000033, k = 3.781577
         4        43     1        0.108697   332284.500342    ;  uncertainty r = 0.000010, k = 1.145996
         5         6     1        0.148807   271330.152734    ;  uncertainty r = 0.000205, k = 21.114540
         5        37     1        0.140049   351525.946143    ;  uncertainty r = 0.000033, k = 3.781577
         6         7     1        0.124443   689526.775195    ;  uncertainty r = 0.000198, k = 11.378341
         6         8     1        0.138024   294653.296875    ;  uncertainty r = 0.000447, k = 26.303594
         8         9     1        0.145216   249130.845703    ;  uncertainty r = 0.000424, k = 9.304751
         8        12     1        0.145126   235804.688232    ;  uncertainty r = 0.000273, k = 24.058250
         9        10     1        0.153746   206582.854883    ;  uncertainty r = 0.000166, k = 13.789936
         9        44     1        0.109358   310719.458496    ;  uncertainty r = 0.000073, k = 1.887827
         9        45     1        0.109358   310719.458496    ;  uncertainty r = 0.000073, k = 1.887827
        10        11     1        0.150272   187794.016040    ;  uncertainty r = 0.000139, k = 15.806858
        10        46     1        0.108923   316649.124219    ;  uncertainty r = 0.000077, k = 5.356482
        10        47     1        0.108923   316649.124219    ;  uncertainty r = 0.000077, k = 5.356482
        11        48     1        0.103476   391337.865527    ;  uncertainty r = 0.000221, k = 9.791062
        11        49     1        0.103476   391337.865527    ;  uncertainty r = 0.000221, k = 9.791062
        11        71     1        0.103476   391337.865527    ;  uncertainty r = 0.000221, k = 9.791062
        12        13     1        0.152833   199045.896265    ;  uncertainty r = 0.000118, k = 3.018135
        12        50     1        0.109388   308566.680176    ;  uncertainty r = 0.000037, k = 3.285269
        12        51     1        0.109388   308566.680176    ;  uncertainty r = 0.000037, k = 3.285269
        13        14     1        0.152823   205688.749609    ;  uncertainty r = 0.000049, k = 6.469062
        13        36     1        0.142749   237022.782813    ;  uncertainty r = 0.000166, k = 8.500820
        13        52     1        0.109976   305216.134814    ;  uncertainty r = 0.000062, k = 3.531650
        14        15     1        0.153372   213832.878540    ;  uncertainty r = 0.000061, k = 3.086482
        14        53     1        0.109669   309927.425049    ;  uncertainty r = 0.000019, k = 0.707158
        14        54     1        0.109669   309927.425049    ;  uncertainty r = 0.000019, k = 0.707158
        15        16     1        0.153242   204627.146436    ;  uncertainty r = 0.000107, k = 8.446574
        15        55     1        0.109603   307691.242529    ;  uncertainty r = 0.000022, k = 1.054580
        15        56     1        0.109603   307691.242529    ;  uncertainty r = 0.000022, k = 1.054580
        16        17     1        0.153739   194039.869482    ;  uncertainty r = 0.000049, k = 9.258954
        16        35     1        0.153400   194695.905054    ;  uncertainty r = 0.000160, k = 12.259031
        16        57     1        0.109712   307584.676172    ;  uncertainty r = 0.000061, k = 3.997517
        17        18     1        0.151697   221951.751270    ;  uncertainty r = 0.000088, k = 6.014321
        17        24     1        0.146438   246437.370166    ;  uncertainty r = 0.000120, k = 17.715123
        17        58     1        0.110060   298327.090967    ;  uncertainty r = 0.000134, k = 4.183506
        18        19     1        0.139859   350947.632764    ;  uncertainty r = 0.000040, k = 0.862445
        18        23     1        0.139859   350947.632764    ;  uncertainty r = 0.000040, k = 0.862445
        19        20     1        0.139620   365997.698340    ;  uncertainty r = 0.000023, k = 1.204481
        19        59     1        0.108883   334327.826611    ;  uncertainty r = 0.000023, k = 0.510248
        20        21     1        0.139607   371240.977637    ;  uncertainty r = 0.000016, k = 0.703184
        20        60     1        0.108851   333986.906201    ;  uncertainty r = 0.000010, k = 1.017345
        21        22     1        0.139607   371240.977637    ;  uncertainty r = 0.000016, k = 0.703184
        21        61     1        0.108841   334518.920801    ;  uncertainty r = 0.000012, k = 0.635624
        22        23     1        0.139620   365997.698340    ;  uncertainty r = 0.000023, k = 1.204481
        22        62     1        0.108851   333986.906201    ;  uncertainty r = 0.000010, k = 1.017345
        23        63     1        0.108883   334327.826611    ;  uncertainty r = 0.000023, k = 0.510248
        24        25     1        0.139955   343991.400781    ;  uncertainty r = 0.000126, k = 9.082252
        24        64     1        0.101439   412844.274170    ;  uncertainty r = 0.000047, k = 2.472848
        25        26     1        0.140865   368811.377051    ;  uncertainty r = 0.000044, k = 7.230094
        25        34     1        0.140838   346500.498389    ;  uncertainty r = 0.000177, k = 22.908283
        26        27     1        0.138816   370640.140527    ;  uncertainty r = 0.000068, k = 3.048036
        26        65     1        0.108921   336733.064795    ;  uncertainty r = 0.000029, k = 1.483003
        27        28     1        0.139378   352395.893311    ;  uncertainty r = 0.000125, k = 2.402654
        27        66     1        0.108598   332329.190283    ;  uncertainty r = 0.000022, k = 1.147970
        28        29     1        0.149257   213835.572705    ;  uncertainty r = 0.000082, k = 4.037123
        28        33     1        0.139076   345540.047705    ;  uncertainty r = 0.000116, k = 2.172376
        29        30     1        0.135370   287114.180371    ;  uncertainty r = 0.000024, k = 3.515891
        29        31     1        0.135370   287114.180371    ;  uncertainty r = 0.000024, k = 3.515891
        29        32     1        0.135370   287114.180371    ;  uncertainty r = 0.000024, k = 3.515891
        33        34     1        0.139099   350903.249268    ;  uncertainty r = 0.000165, k = 2.364282
        33        67     1        0.108699   332543.880762    ;  uncertainty r = 0.000028, k = 1.734946
        34        35     1        0.150993   220016.498047    ;  uncertainty r = 0.000073, k = 8.238210
        35        36     1        0.143135   226650.681543    ;  uncertainty r = 0.000162, k = 8.892125
        35        68     1        0.110073   304804.348926    ;  uncertainty r = 0.000100, k = 3.298894
        37        38     1        0.139460   363347.559277    ;  uncertainty r = 0.000036, k = 1.343098
        37        69     1        0.108697   332284.525879    ;  uncertainty r = 0.000010, k = 1.146000
        38        70     1        0.108882   334246.005713    ;  uncertainty r = 0.000012, k = 0.585541

[ angles ]
;       ai        aj        ak funct           theta             cth
         1         2         3     1      120.902832      435.815032    ;  uncertainty theta = 0.001544, k = 0.056431
         1         2        38     1      120.902832      435.815032    ;  uncertainty theta = 0.001544, k = 0.056431
         2         1        39     1      109.989304      397.927442    ;  uncertainty theta = 0.001064, k = 0.027037
         2         1        40     1      109.989304      397.927442    ;  uncertainty theta = 0.001064, k = 0.027037
         2         1        41     1      109.989304      397.927442    ;  uncertainty theta = 0.001064, k = 0.027037
         2         3         4     1      121.483559      529.904915    ;  uncertainty theta = 0.001505, k = 0.044290
         2         3        42     1      119.493553      282.793161    ;  uncertainty theta = 0.001043, k = 0.087303
         2        38        37     1      121.483559      529.904915    ;  uncertainty theta = 0.001505, k = 0.044290
         2        38        70     1      119.493553      282.793161    ;  uncertainty theta = 0.001043, k = 0.087303
         3         2        38     1      118.041260      464.758887    ;  uncertainty theta = 0.001810, k = 0.088768
         3         4         5     1      121.210571      514.645886    ;  uncertainty theta = 0.001433, k = 0.056718
         3         4        43     1      119.986801      285.957432    ;  uncertainty theta = 0.001546, k = 0.063673
         4         3        42     1      119.830956      285.295032    ;  uncertainty theta = 0.001220, k = 0.036464
         4         5         6     1      118.782509      340.146061    ;  uncertainty theta = 0.006046, k = 0.286112
         4         5        37     1      120.686630      463.787041    ;  uncertainty theta = 0.002840, k = 0.029045
         5         4        43     1      119.422997      269.577324    ;  uncertainty theta = 0.002311, k = 0.053105
         5         6         7     1      125.912376      553.234278    ;  uncertainty theta = 0.004379, k = 0.190759
         5         6         8     1      114.336349      409.240445    ;  uncertainty theta = 0.007311, k = 0.209337
         5        37        38     1      121.210571      514.645886    ;  uncertainty theta = 0.001433, k = 0.056718
         5        37        69     1      119.422997      269.577324    ;  uncertainty theta = 0.002311, k = 0.053105
         6         5        37     1      118.782509      340.146061    ;  uncertainty theta = 0.006046, k = 0.286112
         6         8         9     1      113.747658      368.865254    ;  uncertainty theta = 0.008132, k = 0.174596
         6         8        12     1      115.031654      365.314606    ;  uncertainty theta = 0.007075, k = 0.140483
         7         6         8     1      124.724930      736.935474    ;  uncertainty theta = 0.002899, k = 0.153429
         8         9        10     1      112.884827      565.028655    ;  uncertainty theta = 0.009597, k = 0.125653
         8         9        44     1      106.887169      433.851835    ;  uncertainty theta = 0.002701, k = 0.065339
         8         9        45     1      106.887169      433.851835    ;  uncertainty theta = 0.002701, k = 0.065339
         8        12        13     1      110.631920      574.319311    ;  uncertainty theta = 0.001996, k = 0.116204
         8        12        50     1      106.171707      440.867964    ;  uncertainty theta = 0.001401, k = 0.066609
         8        12        51     1      106.171707      440.867964    ;  uncertainty theta = 0.001401, k = 0.066609
         9         8        12     1      114.664536      421.031152    ;  uncertainty theta = 0.002966, k = 0.176816
         9        10        11     1      111.134216      666.742451    ;  uncertainty theta = 0.005688, k = 0.091875
         9        10        46     1      110.403114      388.283768    ;  uncertainty theta = 0.003976, k = 0.098494
         9        10        47     1      110.403114      388.283768    ;  uncertainty theta = 0.003976, k = 0.098494
        10         9        44     1      107.899254      411.850178    ;  uncertainty theta = 0.006762, k = 0.037472
        10         9        45     1      107.899254      411.850178    ;  uncertainty theta = 0.006762, k = 0.037472
        10        11        48     1      110.181992      428.805606    ;  uncertainty theta = 0.003781, k = 0.130816
        10        11        49     1      110.181992      428.805606    ;  uncertainty theta = 0.003781, k = 0.130816
        10        11        71     1      110.181992      428.805606    ;  uncertainty theta = 0.003781, k = 0.130816
        11        10        46     1      105.787865      457.780585    ;  uncertainty theta = 0.003363, k = 0.181656
        11        10        47     1      105.787865      457.780585    ;  uncertainty theta = 0.003363, k = 0.181656
        12        13        14     1      111.111938      548.803334    ;  uncertainty theta = 0.002550, k = 0.095070
        12        13        36     1      106.700302      557.709656    ;  uncertainty theta = 0.003362, k = 0.070931
        12        13        52     1      107.603149      394.407279    ;  uncertainty theta = 0.002877, k = 0.086058
        13        12        50     1      108.004860      402.793315    ;  uncertainty theta = 0.001923, k = 0.042964
        13        12        51     1      108.004860      402.793315    ;  uncertainty theta = 0.001923, k = 0.042964
        13        14        15     1      109.189087      593.281317    ;  uncertainty theta = 0.002594, k = 0.069548
        13        14        53     1      107.696144      381.954459    ;  uncertainty theta = 0.001606, k = 0.087352
        13        14        54     1      107.696144      381.954459    ;  uncertainty theta = 0.001606, k = 0.087352
        13        36        35     1      110.703064      507.540345    ;  uncertainty theta = 0.005681, k = 0.174760
        14        13        36     1      110.371262      686.654757    ;  uncertainty theta = 0.002542, k = 0.176304
        14        13        52     1      109.330002      401.304757    ;  uncertainty theta = 0.001718, k = 0.062715
        14        15        16     1      109.528549      575.326239    ;  uncertainty theta = 0.001878, k = 0.111686
        14        15        55     1      108.677223      404.365411    ;  uncertainty theta = 0.001698, k = 0.085298
        14        15        56     1      108.677223      404.365411    ;  uncertainty theta = 0.001698, k = 0.085298
        15        14        53     1      109.053627      398.455198    ;  uncertainty theta = 0.000838, k = 0.057153
        15        14        54     1      109.053627      398.455198    ;  uncertainty theta = 0.000838, k = 0.057153
        15        16        17     1      110.668663      549.457275    ;  uncertainty theta = 0.001592, k = 0.164942
        15        16        35     1      109.757545      586.243673    ;  uncertainty theta = 0.001743, k = 0.104953
        15        16        57     1      108.033615      400.292593    ;  uncertainty theta = 0.002769, k = 0.102571
        16        15        55     1      108.106873      388.738041    ;  uncertainty theta = 0.001573, k = 0.068099
        16        15        56     1      108.106873      388.738041    ;  uncertainty theta = 0.001573, k = 0.068099
        16        17        18     1      111.667801      538.117586    ;  uncertainty theta = 0.002515, k = 0.172335
        16        17        24     1      108.357506      705.618040    ;  uncertainty theta = 0.004557, k = 0.110168
        16        17        58     1      107.075500      386.196237    ;  uncertainty theta = 0.002778, k = 0.128014
        16        35        34     1      111.625320      556.167789    ;  uncertainty theta = 0.004213, k = 0.223970
        16        35        36     1      110.983864      663.083813    ;  uncertainty theta = 0.005571, k = 0.093097
        16        35        68     1      107.766991      393.384167    ;  uncertainty theta = 0.003517, k = 0.113971
        17        16        35     1      109.545090      552.757117    ;  uncertainty theta = 0.004180, k = 0.136617
        17        16        57     1      105.964149      389.824836    ;  uncertainty theta = 0.001608, k = 0.093762
        17        18        19     1      119.922928      425.651326    ;  uncertainty theta = 0.003113, k = 0.143043
        17        18        23     1      119.922928      425.651326    ;  uncertainty theta = 0.003113, k = 0.143043
        17        24        25     1      114.218895      391.657475    ;  uncertainty theta = 0.007311, k = 0.149022
        17        24        64     1      110.064499      352.462577    ;  uncertainty theta = 0.003551, k = 0.095281
        18        17        24     1      111.031082      663.623221    ;  uncertainty theta = 0.001203, k = 0.168660
        18        17        58     1      106.340919      410.762170    ;  uncertainty theta = 0.002105, k = 0.098132
        18        19        20     1      121.166641      520.323009    ;  uncertainty theta = 0.001889, k = 0.047519
        18        19        59     1      118.895851      266.730000    ;  uncertainty theta = 0.002264, k = 0.064094
        18        23        22     1      121.166641      520.323009    ;  uncertainty theta = 0.001889, k = 0.047519
        18        23        63     1      118.895851      266.730000    ;  uncertainty theta = 0.002264, k = 0.064094
        19        18        23     1      120.206970      460.017476    ;  uncertainty theta = 0.003029, k = 0.098153
        19        20        21     1      119.685776      513.267201    ;  uncertainty theta = 0.000971, k = 0.012607
        19        20        60     1      120.211227      283.897545    ;  uncertainty theta = 0.001315, k = 0.018226
        20        19        59     1      120.235497      292.477280    ;  uncertainty theta = 0.001696, k = 0.031106
        20        21        22     1      118.246803      526.555213    ;  uncertainty theta = 0.000903, k = 0.024013
        20        21        61     1      120.647278      289.320829    ;  uncertainty theta = 0.001403, k = 0.006566
        21        20        60     1      120.620949      287.638764    ;  uncertainty theta = 0.001444, k = 0.012507
        21        22        23     1      119.685776      513.267201    ;  uncertainty theta = 0.000971, k = 0.012607
        21        22        62     1      120.620949      287.638764    ;  uncertainty theta = 0.001444, k = 0.012507
        22        21        61     1      120.647278      289.320829    ;  uncertainty theta = 0.001403, k = 0.006566
        22        23        63     1      120.235497      292.477280    ;  uncertainty theta = 0.001696, k = 0.031106
        23        22        62     1      120.211227      283.897545    ;  uncertainty theta = 0.001315, k = 0.018226
        24        17        58     1      107.894577      455.839254    ;  uncertainty theta = 0.003753, k = 0.115430
        24        25        26     1      123.141701      575.910018    ;  uncertainty theta = 0.003511, k = 0.120934
        24        25        34     1      122.317612      499.033231    ;  uncertainty theta = 0.010194, k = 0.209541
        25        24        64     1      111.105759      386.782760    ;  uncertainty theta = 0.005516, k = 0.186771
        25        26        27     1      120.478416      516.109003    ;  uncertainty theta = 0.002075, k = 0.087339
        25        26        65     1      119.051010      277.924383    ;  uncertainty theta = 0.004177, k = 0.151845
        25        34        33     1      120.424454      453.080097    ;  uncertainty theta = 0.006616, k = 0.179671
        25        34        35     1      120.375427      356.825848    ;  uncertainty theta = 0.009333, k = 0.368707
        26        25        34     1      118.942970      382.845385    ;  uncertainty theta = 0.005312, k = 0.129488
        26        27        28     1      120.981323      513.612814    ;  uncertainty theta = 0.003622, k = 0.061051
        26        27        66     1      120.001465      286.894165    ;  uncertainty theta = 0.002804, k = 0.033751
        27        26        65     1      120.437340      286.262218    ;  uncertainty theta = 0.002252, k = 0.069391
        27        28        29     1      116.839577      343.993737    ;  uncertainty theta = 0.004979, k = 0.130748
        27        28        33     1      121.948021      476.311014    ;  uncertainty theta = 0.002704, k = 0.206185
        28        27        66     1      118.183693      271.648352    ;  uncertainty theta = 0.003054, k = 0.062508
        28        29        30     1      113.129189      665.135146    ;  uncertainty theta = 0.002597, k = 0.018376
        28        29        31     1      113.129189      665.135146    ;  uncertainty theta = 0.002597, k = 0.018376
        28        29        32     1      113.129189      665.135146    ;  uncertainty theta = 0.002597, k = 0.018376
        28        33        34     1      123.128990      512.049368    ;  uncertainty theta = 0.004008, k = 0.124705
        28        33        67     1      117.799782      273.317648    ;  uncertainty theta = 0.004465, k = 0.082060
        29        28        33     1      116.421097      363.451706    ;  uncertainty theta = 0.005624, k = 0.222078
        30        29        31     1      107.629150      789.646430    ;  uncertainty theta = 0.002059, k = 0.013010
        30        29        32     1      107.629150      789.646430    ;  uncertainty theta = 0.002059, k = 0.013010
        31        29        32     1      107.629150      789.646430    ;  uncertainty theta = 0.002059, k = 0.013010
        33        34        35     1      118.950241      402.591572    ;  uncertainty theta = 0.003729, k = 0.167766
        34        33        67     1      118.101120      267.172941    ;  uncertainty theta = 0.003492, k = 0.082588
        34        35        36     1      108.935692      646.206593    ;  uncertainty theta = 0.006912, k = 0.350594
        34        35        68     1      108.297501      391.435015    ;  uncertainty theta = 0.004361, k = 0.086695
        35        16        57     1      106.452866      398.861845    ;  uncertainty theta = 0.002907, k = 0.084787
        36        13        52     1      106.756546      457.022260    ;  uncertainty theta = 0.005303, k = 0.166902
        36        35        68     1      106.282326      448.137038    ;  uncertainty theta = 0.002866, k = 0.167314
        37        38        70     1      119.830956      285.295000    ;  uncertainty theta = 0.001220, k = 0.036464
        38        37        69     1      119.986801      285.957432    ;  uncertainty theta = 0.001546, k = 0.063673
        39         1        40     1      106.736977      316.781394    ;  uncertainty theta = 0.000965, k = 0.019302
        39         1        41     1      106.736977      316.781394    ;  uncertainty theta = 0.000965, k = 0.019302
        40         1        41     1      106.736977      316.781394    ;  uncertainty theta = 0.000965, k = 0.019302
        44         9        45     1      106.810791      320.426625    ;  uncertainty theta = 0.005474, k = 0.080335
        46        10        47     1      108.993568      323.177705    ;  uncertainty theta = 0.005146, k = 0.062839
        48        11        49     1      108.799171      387.740625    ;  uncertainty theta = 0.005392, k = 0.064772
        48        11        71     1      108.799171      387.740625    ;  uncertainty theta = 0.005392, k = 0.064772
        49        11        71     1      108.799171      387.740625    ;  uncertainty theta = 0.005392, k = 0.064772
        50        12        51     1      106.511703      321.920545    ;  uncertainty theta = 0.002682, k = 0.060916
        53        14        54     1      105.201256      313.898222    ;  uncertainty theta = 0.000860, k = 0.027212
        55        15        56     1      104.585793      315.268958    ;  uncertainty theta = 0.002093, k = 0.030266

[ dihedrals ] ; propers for gromacs 4.5 or higher, use funct 9
;       ai        aj        ak        al funct           phase               k        pn
         1         2         3         4     9        0.000000        0.110941         1    ;  uncertainty k = 0.236206
         1         2         3         4     9      180.000000        9.265145         2    ;  uncertainty k = 0.296908
         1         2         3         4     9        0.000000        1.433063         3    ;  uncertainty k = 0.296151
         1         2         3         4     9      180.000000        1.815564         4    ;  uncertainty k = 0.144460
         1         2         3        42     9        0.000000       -0.370033         1    ;  uncertainty k = 0.415323
         1         2         3        42     9      180.000000        8.425560         2    ;  uncertainty k = 0.160093
         1         2         3        42     9        0.000000        0.494548         3    ;  uncertainty k = 0.254296
         1         2         3        42     9      180.000000        0.882043         4    ;  uncertainty k = 0.214166
         1         2        38        37     9        0.000000        0.110941         1    ;  uncertainty k = 0.236206
         1         2        38        37     9      180.000000        9.265145         2    ;  uncertainty k = 0.296908
         1         2        38        37     9        0.000000        1.433063         3    ;  uncertainty k = 0.296151
         1         2        38        37     9      180.000000        1.815564         4    ;  uncertainty k = 0.144460
         1         2        38        70     9        0.000000       -0.370033         1    ;  uncertainty k = 0.415323
         1         2        38        70     9      180.000000        8.425560         2    ;  uncertainty k = 0.160093
         1         2        38        70     9        0.000000        0.494548         3    ;  uncertainty k = 0.254296
         1         2        38        70     9      180.000000        0.882043         4    ;  uncertainty k = 0.214166
         2         3         4         5     9        0.000000       -0.106322         1    ;  uncertainty k = 0.257718
         2         3         4         5     9      180.000000       12.987993         2    ;  uncertainty k = 0.200129
         2         3         4         5     9        0.000000       -0.663865         3    ;  uncertainty k = 0.314199
         2         3         4         5     9      180.000000        0.985169         4    ;  uncertainty k = 0.220723
         2         3         4        43     9        0.000000        0.048412         1    ;  uncertainty k = 0.152839
         2         3         4        43     9      180.000000        7.426045         2    ;  uncertainty k = 0.263552
         2         3         4        43     9        0.000000        1.378625         3    ;  uncertainty k = 0.267811
         2         3         4        43     9      180.000000        1.860094         4    ;  uncertainty k = 0.203222
         2        38        37         5     9        0.000000       -0.106322         1    ;  uncertainty k = 0.257718
         2        38        37         5     9      180.000000       12.987993         2    ;  uncertainty k = 0.200129
         2        38        37         5     9        0.000000       -0.663865         3    ;  uncertainty k = 0.314199
         2        38        37         5     9      180.000000        0.985169         4    ;  uncertainty k = 0.220723
         2        38        37        69     9        0.000000        0.048412         1    ;  uncertainty k = 0.152839
         2        38        37        69     9      180.000000        7.426045         2    ;  uncertainty k = 0.263552
         2        38        37        69     9        0.000000        1.378625         3    ;  uncertainty k = 0.267811
         2        38        37        69     9      180.000000        1.860094         4    ;  uncertainty k = 0.203222
         3         2         1        39     9        0.000000       -0.013218         1    ;  uncertainty k = 0.071426
         3         2         1        39     9      180.000000        1.257991         2    ;  uncertainty k = 0.102373
         3         2         1        39     9        0.000000        0.336749         3    ;  uncertainty k = 0.027218
         3         2         1        39     9      180.000000        0.185340         4    ;  uncertainty k = 0.026545
         3         2         1        40     9        0.000000       -0.013218         1    ;  uncertainty k = 0.071426
         3         2         1        40     9      180.000000        1.257991         2    ;  uncertainty k = 0.102373
         3         2         1        40     9        0.000000        0.336749         3    ;  uncertainty k = 0.027218
         3         2         1        40     9      180.000000        0.185340         4    ;  uncertainty k = 0.026545
         3         2         1        41     9        0.000000       -0.013218         1    ;  uncertainty k = 0.071426
         3         2         1        41     9      180.000000        1.257991         2    ;  uncertainty k = 0.102373
         3         2         1        41     9        0.000000        0.336749         3    ;  uncertainty k = 0.027218
         3         2         1        41     9      180.000000        0.185340         4    ;  uncertainty k = 0.026545
         3         2        38        37     9        0.000000       -0.192702         1    ;  uncertainty k = 0.242283
         3         2        38        37     9      180.000000       11.776237         2    ;  uncertainty k = 0.388251
         3         2        38        37     9        0.000000       -0.388836         3    ;  uncertainty k = 0.314618
         3         2        38        37     9      180.000000        0.847559         4    ;  uncertainty k = 0.394408
         3         2        38        70     9        0.000000        0.058201         1    ;  uncertainty k = 0.128768
         3         2        38        70     9      180.000000        7.264820         2    ;  uncertainty k = 0.329994
         3         2        38        70     9        0.000000        1.485814         3    ;  uncertainty k = 0.355120
         3         2        38        70     9      180.000000        1.628403         4    ;  uncertainty k = 0.114388
         3         4         5         6     9        0.000000        0.388783         1    ;  uncertainty k = 0.254436
         3         4         5         6     9      180.000000        9.246894         2    ;  uncertainty k = 0.508728
         3         4         5         6     9        0.000000        1.429672         3    ;  uncertainty k = 0.357190
         3         4         5         6     9      180.000000        1.889406         4    ;  uncertainty k = 0.154563
         3         4         5        37     9        0.000000       -0.027138         1    ;  uncertainty k = 0.139024
         3         4         5        37     9      180.000000       11.433770         2    ;  uncertainty k = 0.346767
         3         4         5        37     9        0.000000       -0.782791         3    ;  uncertainty k = 0.333255
         3         4         5        37     9      180.000000        0.935605         4    ;  uncertainty k = 0.285777
         4         3         2        38     9        0.000000       -0.192702         1    ;  uncertainty k = 0.242283
         4         3         2        38     9      180.000000       11.776237         2    ;  uncertainty k = 0.388251
         4         3         2        38     9        0.000000       -0.388836         3    ;  uncertainty k = 0.314618
         4         3         2        38     9      180.000000        0.847559         4    ;  uncertainty k = 0.394408
         4         5         6         7     9        0.000000       -1.729617         1    ;  uncertainty k = 0.699329
         4         5         6         7     9      180.000000        3.965376         2    ;  uncertainty k = 0.230668
         4         5         6         7     9        0.000000        0.311655         3    ;  uncertainty k = 0.135186
         4         5         6         7     9      180.000000        0.118682         4    ;  uncertainty k = 0.095899
         4         5         6         8     9        0.000000        0.895228         1    ;  uncertainty k = 0.850776
         4         5         6         8     9      180.000000        5.211569         2    ;  uncertainty k = 0.229395
         4         5         6         8     9        0.000000        0.335759         3    ;  uncertainty k = 0.152107
         4         5         6         8     9      180.000000        0.237901         4    ;  uncertainty k = 0.091050
         4         5        37        38     9        0.000000       -0.027138         1    ;  uncertainty k = 0.139024
         4         5        37        38     9      180.000000       11.433770         2    ;  uncertainty k = 0.346767
         4         5        37        38     9        0.000000       -0.782791         3    ;  uncertainty k = 0.333255
         4         5        37        38     9      180.000000        0.935605         4    ;  uncertainty k = 0.285777
         4         5        37        69     9        0.000000        0.291455         1    ;  uncertainty k = 0.252513
         4         5        37        69     9      180.000000        7.391027         2    ;  uncertainty k = 0.458417
         4         5        37        69     9        0.000000        1.207567         3    ;  uncertainty k = 0.258574
         4         5        37        69     9      180.000000        1.710136         4    ;  uncertainty k = 0.247358
         5         4         3        42     9        0.000000        0.006778         1    ;  uncertainty k = 0.158254
         5         4         3        42     9      180.000000        8.222293         2    ;  uncertainty k = 0.375567
         5         4         3        42     9        0.000000        1.382266         3    ;  uncertainty k = 0.180432
         5         4         3        42     9      180.000000        1.833917         4    ;  uncertainty k = 0.213083
         5         6         8         9     9        0.000000        4.644623         1    ;  uncertainty k = 1.228963
         5         6         8         9     9      180.000000        7.977060         2    ;  uncertainty k = 0.631127
         5         6         8         9     9        0.000000        1.280673         3    ;  uncertainty k = 0.462143
         5         6         8         9     9      180.000000       -0.153746         4    ;  uncertainty k = 0.495879
         5         6         8        12     9        0.000000        4.989493         1    ;  uncertainty k = 1.323468
         5         6         8        12     9      180.000000        7.546432         2    ;  uncertainty k = 0.497223
         5         6         8        12     9        0.000000        1.088184         3    ;  uncertainty k = 0.673989
         5         6         8        12     9      180.000000       -0.079122         4    ;  uncertainty k = 0.375608
         5        37        38        70     9        0.000000        0.006778         1    ;  uncertainty k = 0.158254
         5        37        38        70     9      180.000000        8.222293         2    ;  uncertainty k = 0.375567
         5        37        38        70     9        0.000000        1.382266         3    ;  uncertainty k = 0.180432
         5        37        38        70     9      180.000000        1.833917         4    ;  uncertainty k = 0.213083
         6         5         4        43     9        0.000000        0.040020         1    ;  uncertainty k = 0.261470
         6         5         4        43     9      180.000000        8.152819         2    ;  uncertainty k = 0.430758
         6         5         4        43     9        0.000000        0.875848         3    ;  uncertainty k = 0.173755
         6         5         4        43     9      180.000000        1.153934         4    ;  uncertainty k = 0.270204
         6         5        37        38     9        0.000000        0.388783         1    ;  uncertainty k = 0.254436
         6         5        37        38     9      180.000000        9.246894         2    ;  uncertainty k = 0.508728
         6         5        37        38     9        0.000000        1.429672         3    ;  uncertainty k = 0.357190
         6         5        37        38     9      180.000000        1.889406         4    ;  uncertainty k = 0.154563
         6         5        37        69     9        0.000000        0.040020         1    ;  uncertainty k = 0.261470
         6         5        37        69     9      180.000000        8.152819         2    ;  uncertainty k = 0.430758
         6         5        37        69     9        0.000000        0.875848         3    ;  uncertainty k = 0.173755
         6         5        37        69     9      180.000000        1.153934         4    ;  uncertainty k = 0.270204
         6         8         9        10     9        0.000000        4.832474         1    ;  uncertainty k = 1.623151
         6         8         9        10     9      180.000000       -0.911316         2    ;  uncertainty k = 0.491182
         6         8         9        10     9        0.000000       -0.317141         3    ;  uncertainty k = 0.413798
         6         8         9        10     9      180.000000        0.472585         4    ;  uncertainty k = 0.210919
         6         8         9        44     9        0.000000        0.492465         1    ;  uncertainty k = 0.974600
         6         8         9        44     9      180.000000       -0.125524         2    ;  uncertainty k = 0.417724
         6         8         9        44     9        0.000000       -0.107279         3    ;  uncertainty k = 0.164688
         6         8         9        44     9      180.000000        0.377403         4    ;  uncertainty k = 0.136797
         6         8         9        45     9        0.000000        0.492465         1    ;  uncertainty k = 0.974600
         6         8         9        45     9      180.000000       -0.125524         2    ;  uncertainty k = 0.417724
         6         8         9        45     9        0.000000       -0.107279         3    ;  uncertainty k = 0.164688
         6         8         9        45     9      180.000000        0.377403         4    ;  uncertainty k = 0.136797
         6         8        12        13     9        0.000000        2.329486         1    ;  uncertainty k = 0.704263
         6         8        12        13     9      180.000000       -0.747536         2    ;  uncertainty k = 0.160107
         6         8        12        13     9        0.000000       -0.286403         3    ;  uncertainty k = 0.233009
         6         8        12        13     9      180.000000        0.663195         4    ;  uncertainty k = 0.104903
         6         8        12        50     9        0.000000        0.792745         1    ;  uncertainty k = 0.867187
         6         8        12        50     9      180.000000        0.205835         2    ;  uncertainty k = 0.340680
         6         8        12        50     9        0.000000        0.012274         3    ;  uncertainty k = 0.173633
         6         8        12        50     9      180.000000        0.230547         4    ;  uncertainty k = 0.073196
         6         8        12        51     9        0.000000        0.792745         1    ;  uncertainty k = 0.867187
         6         8        12        51     9      180.000000        0.205835         2    ;  uncertainty k = 0.340680
         6         8        12        51     9        0.000000        0.012274         3    ;  uncertainty k = 0.173633
         6         8        12        51     9      180.000000        0.230547         4    ;  uncertainty k = 0.073196
         7         6         5        37     9        0.000000       -1.729617         1    ;  uncertainty k = 0.699329
         7         6         5        37     9      180.000000        3.965376         2    ;  uncertainty k = 0.230668
         7         6         5        37     9        0.000000        0.311655         3    ;  uncertainty k = 0.135186
         7         6         5        37     9      180.000000        0.118682         4    ;  uncertainty k = 0.095899
         7         6         8         9     9        0.000000        9.035719         1    ;  uncertainty k = 1.747675
         7         6         8         9     9      180.000000       17.401790         2    ;  uncertainty k = 0.485635
         7         6         8         9     9        0.000000        0.207640         3    ;  uncertainty k = 0.413023
         7         6         8         9     9      180.000000       -0.985160         4    ;  uncertainty k = 0.604127
         7         6         8        12     9        0.000000        5.621337         1    ;  uncertainty k = 1.257954
         7         6         8        12     9      180.000000       16.437793         2    ;  uncertainty k = 0.278505
         7         6         8        12     9        0.000000        0.308108         3    ;  uncertainty k = 0.255189
         7         6         8        12     9      180.000000       -0.641234         4    ;  uncertainty k = 0.192155
         8         6         5        37     9        0.000000        0.895228         1    ;  uncertainty k = 0.850776
         8         6         5        37     9      180.000000        5.211569         2    ;  uncertainty k = 0.229395
         8         6         5        37     9        0.000000        0.335759         3    ;  uncertainty k = 0.152107
         8         6         5        37     9      180.000000        0.237901         4    ;  uncertainty k = 0.091050
         8         9        10        11     9        0.000000        4.597146         1    ;  uncertainty k = 1.443541
         8         9        10        11     9      180.000000       -5.085448         2    ;  uncertainty k = 0.748429
         8         9        10        11     9        0.000000        1.076197         3    ;  uncertainty k = 0.471982
         8         9        10        11     9      180.000000       -0.534719         4    ;  uncertainty k = 0.213331
         8         9        10        46     9        0.000000        0.841869         1    ;  uncertainty k = 0.727745
         8         9        10        46     9      180.000000       -1.089583         2    ;  uncertainty k = 0.551819
         8         9        10        46     9        0.000000        1.008529         3    ;  uncertainty k = 0.180053
         8         9        10        46     9      180.000000       -0.050511         4    ;  uncertainty k = 0.135623
         8         9        10        47     9        0.000000        0.841869         1    ;  uncertainty k = 0.727745
         8         9        10        47     9      180.000000       -1.089583         2    ;  uncertainty k = 0.551819
         8         9        10        47     9        0.000000        1.008529         3    ;  uncertainty k = 0.180053
         8         9        10        47     9      180.000000       -0.050511         4    ;  uncertainty k = 0.135623
         8        12        13        14     9        0.000000       -0.115062         1    ;  uncertainty k = 0.861612
         8        12        13        14     9      180.000000       -0.268322         2    ;  uncertainty k = 0.256030
         8        12        13        14     9        0.000000        1.095235         3    ;  uncertainty k = 0.241279
         8        12        13        14     9      180.000000       -0.134849         4    ;  uncertainty k = 0.127067
         8        12        13        36     9        0.000000        0.272557         1    ;  uncertainty k = 1.115154
         8        12        13        36     9      180.000000       -3.703602         2    ;  uncertainty k = 0.184917
         8        12        13        36     9        0.000000        1.658675         3    ;  uncertainty k = 0.119378
         8        12        13        36     9      180.000000       -0.201773         4    ;  uncertainty k = 0.150572
         8        12        13        52     9        0.000000        1.273588         1    ;  uncertainty k = 1.129797
         8        12        13        52     9      180.000000       -1.813201         2    ;  uncertainty k = 0.425932
         8        12        13        52     9        0.000000        0.675998         3    ;  uncertainty k = 0.228102
         8        12        13        52     9      180.000000        0.002795         4    ;  uncertainty k = 0.106391
         9         8        12        13     9        0.000000        0.601963         1    ;  uncertainty k = 1.089664
         9         8        12        13     9      180.000000       -1.736998         2    ;  uncertainty k = 0.548922
         9         8        12        13     9        0.000000        0.765304         3    ;  uncertainty k = 0.176468
         9         8        12        13     9      180.000000        0.132904         4    ;  uncertainty k = 0.124813
         9         8        12        50     9        0.000000       -2.138893         1    ;  uncertainty k = 0.746106
         9         8        12        50     9      180.000000       -0.431215         2    ;  uncertainty k = 0.840971
         9         8        12        50     9        0.000000        0.824100         3    ;  uncertainty k = 0.262695
         9         8        12        50     9      180.000000        0.102674         4    ;  uncertainty k = 0.092028
         9         8        12        51     9        0.000000       -2.138893         1    ;  uncertainty k = 0.746106
         9         8        12        51     9      180.000000       -0.431215         2    ;  uncertainty k = 0.840971
         9         8        12        51     9        0.000000        0.824100         3    ;  uncertainty k = 0.262695
         9         8        12        51     9      180.000000        0.102674         4    ;  uncertainty k = 0.092028
         9        10        11        48     9        0.000000        0.187786         1    ;  uncertainty k = 0.804665
         9        10        11        48     9      180.000000       -0.734181         2    ;  uncertainty k = 0.664128
         9        10        11        48     9        0.000000        0.858242         3    ;  uncertainty k = 0.108235
         9        10        11        48     9      180.000000       -0.044457         4    ;  uncertainty k = 0.047278
         9        10        11        49     9        0.000000        0.187786         1    ;  uncertainty k = 0.804665
         9        10        11        49     9      180.000000       -0.734181         2    ;  uncertainty k = 0.664128
         9        10        11        49     9        0.000000        0.858242         3    ;  uncertainty k = 0.108235
         9        10        11        49     9      180.000000       -0.044457         4    ;  uncertainty k = 0.047278
         9        10        11        71     9        0.000000        0.187786         1    ;  uncertainty k = 0.804665
         9        10        11        71     9      180.000000       -0.734181         2    ;  uncertainty k = 0.664128
         9        10        11        71     9        0.000000        0.858242         3    ;  uncertainty k = 0.108235
         9        10        11        71     9      180.000000       -0.044457         4    ;  uncertainty k = 0.047278
        10         9         8        12     9        0.000000        1.738300         1    ;  uncertainty k = 2.329312
        10         9         8        12     9      180.000000       -2.554060         2    ;  uncertainty k = 0.641699
        10         9         8        12     9        0.000000        0.800752         3    ;  uncertainty k = 0.186830
        10         9         8        12     9      180.000000        0.166559         4    ;  uncertainty k = 0.270628
        11        10         9        44     9        0.000000       -1.313586         1    ;  uncertainty k = 1.273316
        11        10         9        44     9      180.000000       -1.359420         2    ;  uncertainty k = 0.770070
        11        10         9        44     9        0.000000        0.745396         3    ;  uncertainty k = 0.362346
        11        10         9        44     9      180.000000       -0.108263         4    ;  uncertainty k = 0.131005
        11        10         9        45     9        0.000000       -1.313586         1    ;  uncertainty k = 1.273316
        11        10         9        45     9      180.000000       -1.359420         2    ;  uncertainty k = 0.770070
        11        10         9        45     9        0.000000        0.745396         3    ;  uncertainty k = 0.362346
        11        10         9        45     9      180.000000       -0.108263         4    ;  uncertainty k = 0.131005
        12         8         9        44     9        0.000000       -2.657159         1    ;  uncertainty k = 1.133449
        12         8         9        44     9      180.000000       -0.277087         2    ;  uncertainty k = 0.201566
        12         8         9        44     9        0.000000        0.894051         3    ;  uncertainty k = 0.149059
        12         8         9        44     9      180.000000        0.195193         4    ;  uncertainty k = 0.103095
        12         8         9        45     9        0.000000       -2.657159         1    ;  uncertainty k = 1.133449
        12         8         9        45     9      180.000000       -0.277087         2    ;  uncertainty k = 0.201566
        12         8         9        45     9        0.000000        0.894051         3    ;  uncertainty k = 0.149059
        12         8         9        45     9      180.000000        0.195193         4    ;  uncertainty k = 0.103095
        12        13        14        15     9        0.000000       -2.927800         1    ;  uncertainty k = 0.329916
        12        13        14        15     9      180.000000        0.143383         2    ;  uncertainty k = 0.350351
        12        13        14        15     9        0.000000        0.407427         3    ;  uncertainty k = 0.149364
        12        13        14        15     9      180.000000       -0.333027         4    ;  uncertainty k = 0.156966
        12        13        14        53     9        0.000000       -0.469161         1    ;  uncertainty k = 0.263799
        12        13        14        53     9      180.000000       -0.463866         2    ;  uncertainty k = 0.357426
        12        13        14        53     9        0.000000        0.211698         3    ;  uncertainty k = 0.118206
        12        13        14        53     9      180.000000       -0.233711         4    ;  uncertainty k = 0.086965
        12        13        14        54     9        0.000000       -0.469161         1    ;  uncertainty k = 0.263799
        12        13        14        54     9      180.000000       -0.463866         2    ;  uncertainty k = 0.357426
        12        13        14        54     9        0.000000        0.211698         3    ;  uncertainty k = 0.118206
        12        13        14        54     9      180.000000       -0.233711         4    ;  uncertainty k = 0.086965
        12        13        36        35     9        0.000000       -5.199380         1    ;  uncertainty k = 0.968776
        12        13        36        35     9      180.000000       -0.093808         2    ;  uncertainty k = 0.314406
        12        13        36        35     9        0.000000        0.588184         3    ;  uncertainty k = 0.483551
        12        13        36        35     9      180.000000       -0.126139         4    ;  uncertainty k = 0.126124
        13        14        15        16     9        0.000000       -4.857303         1    ;  uncertainty k = 1.163966
        13        14        15        16     9      180.000000       -0.600837         2    ;  uncertainty k = 0.569666
        13        14        15        16     9        0.000000        1.221326         3    ;  uncertainty k = 0.219963
        13        14        15        16     9      180.000000       -0.957490         4    ;  uncertainty k = 0.186442
        13        14        15        55     9        0.000000       -1.051092         1    ;  uncertainty k = 0.638578
        13        14        15        55     9      180.000000       -0.575376         2    ;  uncertainty k = 0.222182
        13        14        15        55     9        0.000000        0.418322         3    ;  uncertainty k = 0.153006
        13        14        15        55     9      180.000000        0.044069         4    ;  uncertainty k = 0.032904
        13        14        15        56     9        0.000000       -1.051092         1    ;  uncertainty k = 0.638578
        13        14        15        56     9      180.000000       -0.575376         2    ;  uncertainty k = 0.222182
        13        14        15        56     9        0.000000        0.418322         3    ;  uncertainty k = 0.153006
        13        14        15        56     9      180.000000        0.044069         4    ;  uncertainty k = 0.032904
        13        36        35        16     9        0.000000        4.359140         1    ;  uncertainty k = 1.371469
        13        36        35        16     9      180.000000       -1.889371         2    ;  uncertainty k = 1.077749
        13        36        35        16     9        0.000000        0.046435         3    ;  uncertainty k = 0.346314
        13        36        35        16     9      180.000000        0.044810         4    ;  uncertainty k = 0.203386
        13        36        35        34     9        0.000000       -3.177941         1    ;  uncertainty k = 1.541552
        13        36        35        34     9      180.000000       -1.049738         2    ;  uncertainty k = 0.841905
        13        36        35        34     9        0.000000        0.909212         3    ;  uncertainty k = 0.556067
        13        36        35        34     9      180.000000       -0.100489         4    ;  uncertainty k = 0.173038
        13        36        35        68     9        0.000000       -1.685084         1    ;  uncertainty k = 0.597840
        13        36        35        68     9      180.000000       -0.525080         2    ;  uncertainty k = 0.342921
        13        36        35        68     9        0.000000        0.429316         3    ;  uncertainty k = 0.086431
        13        36        35        68     9      180.000000       -0.103866         4    ;  uncertainty k = 0.203550
        14        13        12        50     9        0.000000       -1.193806         1    ;  uncertainty k = 0.461722
        14        13        12        50     9      180.000000        0.030527         2    ;  uncertainty k = 0.381536
        14        13        12        50     9        0.000000        0.321290         3    ;  uncertainty k = 0.095357
        14        13        12        50     9      180.000000       -0.213149         4    ;  uncertainty k = 0.067660
        14        13        12        51     9        0.000000       -1.193806         1    ;  uncertainty k = 0.461722
        14        13        12        51     9      180.000000        0.030527         2    ;  uncertainty k = 0.381536
        14        13        12        51     9        0.000000        0.321290         3    ;  uncertainty k = 0.095357
        14        13        12        51     9      180.000000       -0.213149         4    ;  uncertainty k = 0.067660
        14        13        36        35     9        0.000000        2.338246         1    ;  uncertainty k = 2.780733
        14        13        36        35     9      180.000000       -1.303570         2    ;  uncertainty k = 0.486899
        14        13        36        35     9        0.000000       -0.021511         3    ;  uncertainty k = 0.576174
        14        13        36        35     9      180.000000        0.032305         4    ;  uncertainty k = 0.167779
        14        15        16        17     9        0.000000       -3.443009         1    ;  uncertainty k = 0.608179
        14        15        16        17     9      180.000000        0.070627         2    ;  uncertainty k = 0.162240
        14        15        16        17     9        0.000000        1.150476         3    ;  uncertainty k = 0.146037
        14        15        16        17     9      180.000000       -0.543778         4    ;  uncertainty k = 0.161389
        14        15        16        35     9        0.000000       -3.563441         1    ;  uncertainty k = 0.307586
        14        15        16        35     9      180.000000        0.176643         2    ;  uncertainty k = 0.386290
        14        15        16        35     9        0.000000        1.023471         3    ;  uncertainty k = 0.169038
        14        15        16        35     9      180.000000       -0.791233         4    ;  uncertainty k = 0.071847
        14        15        16        57     9        0.000000       -2.388522         1    ;  uncertainty k = 0.521187
        14        15        16        57     9      180.000000        0.117606         2    ;  uncertainty k = 0.252935
        14        15        16        57     9        0.000000        0.024988         3    ;  uncertainty k = 0.081075
        14        15        16        57     9      180.000000       -0.101909         4    ;  uncertainty k = 0.082236
        15        14        13        36     9        0.000000       -2.306903         1    ;  uncertainty k = 0.830911
        15        14        13        36     9      180.000000       -1.006558         2    ;  uncertainty k = 0.577950
        15        14        13        36     9        0.000000        1.407070         3    ;  uncertainty k = 0.448424
        15        14        13        36     9      180.000000       -0.515369         4    ;  uncertainty k = 0.321608
        15        14        13        52     9        0.000000        0.642353         1    ;  uncertainty k = 0.813294
        15        14        13        52     9      180.000000       -1.856654         2    ;  uncertainty k = 0.750690
        15        14        13        52     9        0.000000       -0.282899         3    ;  uncertainty k = 0.136920
        15        14        13        52     9      180.000000        0.149775         4    ;  uncertainty k = 0.061943
        15        16        17        18     9        0.000000       -0.461049         1    ;  uncertainty k = 0.381282
        15        16        17        18     9      180.000000        0.080824         2    ;  uncertainty k = 0.232856
        15        16        17        18     9        0.000000        1.015758         3    ;  uncertainty k = 0.130571
        15        16        17        18     9      180.000000       -0.026766         4    ;  uncertainty k = 0.089496
        15        16        17        24     9        0.000000       -2.649434         1    ;  uncertainty k = 0.376989
        15        16        17        24     9      180.000000        0.575633         2    ;  uncertainty k = 0.355540
        15        16        17        24     9        0.000000        1.148062         3    ;  uncertainty k = 0.198879
        15        16        17        24     9      180.000000       -0.322936         4    ;  uncertainty k = 0.282819
        15        16        17        58     9        0.000000       -0.245811         1    ;  uncertainty k = 0.386688
        15        16        17        58     9      180.000000       -0.315546         2    ;  uncertainty k = 0.172061
        15        16        17        58     9        0.000000        0.086688         3    ;  uncertainty k = 0.150677
        15        16        17        58     9      180.000000       -0.119145         4    ;  uncertainty k = 0.084487
        15        16        35        34     9        0.000000       -1.766780         1    ;  uncertainty k = 0.973514
        15        16        35        34     9      180.000000       -0.718703         2    ;  uncertainty k = 0.145826
        15        16        35        34     9        0.000000        0.620918         3    ;  uncertainty k = 0.188101
        15        16        35        34     9      180.000000       -0.232127         4    ;  uncertainty k = 0.132638
        15        16        35        36     9        0.000000       -1.617761         1    ;  uncertainty k = 0.867953
        15        16        35        36     9      180.000000       -1.466967         2    ;  uncertainty k = 0.969035
        15        16        35        36     9        0.000000        0.890014         3    ;  uncertainty k = 0.272685
        15        16        35        36     9      180.000000       -0.030199         4    ;  uncertainty k = 0.249355
        15        16        35        68     9        0.000000        0.363062         1    ;  uncertainty k = 0.565972
        15        16        35        68     9      180.000000       -0.520923         2    ;  uncertainty k = 0.414610
        15        16        35        68     9        0.000000       -0.168774         3    ;  uncertainty k = 0.117464
        15        16        35        68     9      180.000000       -0.047661         4    ;  uncertainty k = 0.135136
        16        15        14        53     9        0.000000       -0.785141         1    ;  uncertainty k = 0.229869
        16        15        14        53     9      180.000000       -0.688501         2    ;  uncertainty k = 0.213969
        16        15        14        53     9        0.000000        0.408435         3    ;  uncertainty k = 0.128766
        16        15        14        53     9      180.000000       -0.048998         4    ;  uncertainty k = 0.116549
        16        15        14        54     9        0.000000       -0.785141         1    ;  uncertainty k = 0.229869
        16        15        14        54     9      180.000000       -0.688501         2    ;  uncertainty k = 0.213969
        16        15        14        54     9        0.000000        0.408435         3    ;  uncertainty k = 0.128766
        16        15        14        54     9      180.000000       -0.048998         4    ;  uncertainty k = 0.116549
        16        17        18        19     9        0.000000       -0.128230         1    ;  uncertainty k = 0.712209
        16        17        18        19     9      180.000000        1.832448         2    ;  uncertainty k = 0.216281
        16        17        18        19     9        0.000000        0.279323         3    ;  uncertainty k = 0.140015
        16        17        18        19     9      180.000000        0.244071         4    ;  uncertainty k = 0.076874
        16        17        18        23     9        0.000000       -0.128230         1    ;  uncertainty k = 0.712209
        16        17        18        23     9      180.000000        1.832448         2    ;  uncertainty k = 0.216281
        16        17        18        23     9        0.000000        0.279323         3    ;  uncertainty k = 0.140015
        16        17        18        23     9      180.000000        0.244071         4    ;  uncertainty k = 0.076874
        16        17        24        25     9        0.000000        0.719691         1    ;  uncertainty k = 1.244019
        16        17        24        25     9      180.000000        0.209000         2    ;  uncertainty k = 0.601735
        16        17        24        25     9        0.000000        0.378516         3    ;  uncertainty k = 0.264051
        16        17        24        25     9      180.000000        0.142878         4    ;  uncertainty k = 0.153976
        16        17        24        64     9        0.000000        3.620497         1    ;  uncertainty k = 0.960162
        16        17        24        64     9      180.000000       -1.866274         2    ;  uncertainty k = 1.297278
        16        17        24        64     9        0.000000        0.466328         3    ;  uncertainty k = 0.292683
        16        17        24        64     9      180.000000       -0.015212         4    ;  uncertainty k = 0.082183
        16        35        34        25     9        0.000000        0.242411         1    ;  uncertainty k = 2.397408
        16        35        34        25     9      180.000000       -0.318794         2    ;  uncertainty k = 1.365944
        16        35        34        25     9        0.000000        0.084198         3    ;  uncertainty k = 0.707003
        16        35        34        25     9      180.000000        0.713415         4    ;  uncertainty k = 0.239937
        16        35        34        33     9        0.000000       -1.545739         1    ;  uncertainty k = 0.808283
        16        35        34        33     9      180.000000       -0.098598         2    ;  uncertainty k = 0.594677
        16        35        34        33     9        0.000000       -0.228474         3    ;  uncertainty k = 0.118070
        16        35        34        33     9      180.000000        0.425604         4    ;  uncertainty k = 0.113282
        17        16        15        55     9        0.000000        0.094101         1    ;  uncertainty k = 0.301635
        17        16        15        55     9      180.000000       -0.638646         2    ;  uncertainty k = 0.223261
        17        16        15        55     9        0.000000        0.477645         3    ;  uncertainty k = 0.098813
        17        16        15        55     9      180.000000       -0.051282         4    ;  uncertainty k = 0.102093
        17        16        15        56     9        0.000000        0.094101         1    ;  uncertainty k = 0.301635
        17        16        15        56     9      180.000000       -0.638646         2    ;  uncertainty k = 0.223261
        17        16        15        56     9        0.000000        0.477645         3    ;  uncertainty k = 0.098813
        17        16        15        56     9      180.000000       -0.051282         4    ;  uncertainty k = 0.102093
        17        16        35        34     9        0.000000        1.020906         1    ;  uncertainty k = 1.287078
        17        16        35        34     9      180.000000       -2.127650         2    ;  uncertainty k = 0.312599
        17        16        35        34     9        0.000000        0.266223         3    ;  uncertainty k = 0.283237
        17        16        35        34     9      180.000000       -0.130172         4    ;  uncertainty k = 0.142538
        17        16        35        36     9        0.000000       -1.086320         1    ;  uncertainty k = 1.583191
        17        16        35        36     9      180.000000       -3.329487         2    ;  uncertainty k = 1.570623
        17        16        35        36     9        0.000000        0.626985         3    ;  uncertainty k = 0.267638
        17        16        35        36     9      180.000000        0.116292         4    ;  uncertainty k = 0.327289
        17        16        35        68     9        0.000000        0.827756         1    ;  uncertainty k = 0.782493
        17        16        35        68     9      180.000000       -1.073944         2    ;  uncertainty k = 0.477123
        17        16        35        68     9        0.000000       -0.239465         3    ;  uncertainty k = 0.093000
        17        16        35        68     9      180.000000        0.001971         4    ;  uncertainty k = 0.193082
        17        18        19        20     9        0.000000        0.312413         1    ;  uncertainty k = 0.242921
        17        18        19        20     9      180.000000        8.638336         2    ;  uncertainty k = 0.468597
        17        18        19        20     9        0.000000        1.448800         3    ;  uncertainty k = 0.340804
        17        18        19        20     9      180.000000        1.905016         4    ;  uncertainty k = 0.200485
        17        18        19        59     9        0.000000        0.035754         1    ;  uncertainty k = 0.305799
        17        18        19        59     9      180.000000        7.827037         2    ;  uncertainty k = 0.268348
        17        18        19        59     9        0.000000        0.557555         3    ;  uncertainty k = 0.370059
        17        18        19        59     9      180.000000        0.865304         4    ;  uncertainty k = 0.172707
        17        18        23        22     9        0.000000        0.312413         1    ;  uncertainty k = 0.242921
        17        18        23        22     9      180.000000        8.638336         2    ;  uncertainty k = 0.468597
        17        18        23        22     9        0.000000        1.448800         3    ;  uncertainty k = 0.340804
        17        18        23        22     9      180.000000        1.905016         4    ;  uncertainty k = 0.200485
        17        18        23        63     9        0.000000        0.035754         1    ;  uncertainty k = 0.305799
        17        18        23        63     9      180.000000        7.827037         2    ;  uncertainty k = 0.268348
        17        18        23        63     9        0.000000        0.557555         3    ;  uncertainty k = 0.370059
        17        18        23        63     9      180.000000        0.865304         4    ;  uncertainty k = 0.172707
        17        24        25        26     9        0.000000        0.472911         1    ;  uncertainty k = 0.815219
        17        24        25        26     9      180.000000        4.888524         2    ;  uncertainty k = 0.752070
        17        24        25        26     9        0.000000        0.397595         3    ;  uncertainty k = 0.545066
        17        24        25        26     9      180.000000        0.383807         4    ;  uncertainty k = 0.280593
        17        24        25        34     9        0.000000        4.144111         1    ;  uncertainty k = 2.103608
        17        24        25        34     9      180.000000        2.453509         2    ;  uncertainty k = 0.610742
        17        24        25        34     9        0.000000        0.023719         3    ;  uncertainty k = 0.473401
        17        24        25        34     9      180.000000        0.682039         4    ;  uncertainty k = 0.226903
        18        17        16        35     9        0.000000       -0.717354         1    ;  uncertainty k = 0.748357
        18        17        16        35     9      180.000000       -0.367660         2    ;  uncertainty k = 0.370216
        18        17        16        35     9        0.000000        0.397290         3    ;  uncertainty k = 0.216596
        18        17        16        35     9      180.000000       -0.018207         4    ;  uncertainty k = 0.136272
        18        17        16        57     9        0.000000        0.530296         1    ;  uncertainty k = 0.246709
        18        17        16        57     9      180.000000        0.121251         2    ;  uncertainty k = 0.617133
        18        17        16        57     9        0.000000        0.451811         3    ;  uncertainty k = 0.081496
        18        17        16        57     9      180.000000       -0.031873         4    ;  uncertainty k = 0.108858
        18        17        24        25     9        0.000000       -1.240811         1    ;  uncertainty k = 0.913861
        18        17        24        25     9      180.000000        0.100980         2    ;  uncertainty k = 0.285956
        18        17        24        25     9        0.000000        1.048824         3    ;  uncertainty k = 0.262246
        18        17        24        25     9      180.000000        0.199554         4    ;  uncertainty k = 0.098576
        18        17        24        64     9        0.000000        4.878357         1    ;  uncertainty k = 0.569248
        18        17        24        64     9      180.000000       -1.058871         2    ;  uncertainty k = 0.283860
        18        17        24        64     9        0.000000        0.413857         3    ;  uncertainty k = 0.297007
        18        17        24        64     9      180.000000       -0.032689         4    ;  uncertainty k = 0.182555
        18        19        20        21     9        0.000000       -0.073185         1    ;  uncertainty k = 0.135861
        18        19        20        21     9      180.000000       13.840581         2    ;  uncertainty k = 0.218469
        18        19        20        21     9        0.000000       -0.942123         3    ;  uncertainty k = 0.500158
        18        19        20        21     9      180.000000        0.720226         4    ;  uncertainty k = 0.249573
        18        19        20        60     9        0.000000        0.078938         1    ;  uncertainty k = 0.238409
        18        19        20        60     9      180.000000        7.523903         2    ;  uncertainty k = 0.411010
        18        19        20        60     9        0.000000        1.486223         3    ;  uncertainty k = 0.266909
        18        19        20        60     9      180.000000        1.791253         4    ;  uncertainty k = 0.130361
        18        23        22        21     9        0.000000       -0.073185         1    ;  uncertainty k = 0.135861
        18        23        22        21     9      180.000000       13.840581         2    ;  uncertainty k = 0.218469
        18        23        22        21     9        0.000000       -0.942123         3    ;  uncertainty k = 0.500158
        18        23        22        21     9      180.000000        0.720226         4    ;  uncertainty k = 0.249573
        18        23        22        62     9        0.000000        0.078938         1    ;  uncertainty k = 0.238409
        18        23        22        62     9      180.000000        7.523903         2    ;  uncertainty k = 0.411010
        18        23        22        62     9        0.000000        1.486223         3    ;  uncertainty k = 0.266909
        18        23        22        62     9      180.000000        1.791253         4    ;  uncertainty k = 0.130361
        19        18        17        24     9        0.000000       -0.590756         1    ;  uncertainty k = 0.525590
        19        18        17        24     9      180.000000        2.732820         2    ;  uncertainty k = 0.257489
        19        18        17        24     9        0.000000        0.629229         3    ;  uncertainty k = 0.228491
        19        18        17        24     9      180.000000        0.435377         4    ;  uncertainty k = 0.023802
        19        18        17        58     9        0.000000       -0.618195         1    ;  uncertainty k = 0.243533
        19        18        17        58     9      180.000000        2.285546         2    ;  uncertainty k = 0.337301
        19        18        17        58     9        0.000000        0.482603         3    ;  uncertainty k = 0.112818
        19        18        17        58     9      180.000000        0.236140         4    ;  uncertainty k = 0.049741
        19        18        23        22     9        0.000000       -0.244750         1    ;  uncertainty k = 0.085029
        19        18        23        22     9      180.000000       11.550237         2    ;  uncertainty k = 0.281781
        19        18        23        22     9        0.000000       -0.471965         3    ;  uncertainty k = 0.307308
        19        18        23        22     9      180.000000        0.819629         4    ;  uncertainty k = 0.339588
        19        18        23        63     9        0.000000        0.103785         1    ;  uncertainty k = 0.115164
        19        18        23        63     9      180.000000        7.232563         2    ;  uncertainty k = 0.479326
        19        18        23        63     9        0.000000        1.441610         3    ;  uncertainty k = 0.358040
        19        18        23        63     9      180.000000        1.626932         4    ;  uncertainty k = 0.180626
        19        20        21        22     9        0.000000        0.003336         1    ;  uncertainty k = 0.036527
        19        20        21        22     9      180.000000       15.061872         2    ;  uncertainty k = 0.266782
        19        20        21        22     9        0.000000       -1.241530         3    ;  uncertainty k = 0.510934
        19        20        21        22     9      180.000000        0.486540         4    ;  uncertainty k = 0.300058
        19        20        21        61     9        0.000000        0.055741         1    ;  uncertainty k = 0.094832
        19        20        21        61     9      180.000000        7.490470         2    ;  uncertainty k = 0.333391
        19        20        21        61     9        0.000000        1.467122         3    ;  uncertainty k = 0.292764
        19        20        21        61     9      180.000000        1.797081         4    ;  uncertainty k = 0.179699
        20        19        18        23     9        0.000000       -0.244750         1    ;  uncertainty k = 0.085029
        20        19        18        23     9      180.000000       11.550237         2    ;  uncertainty k = 0.281781
        20        19        18        23     9        0.000000       -0.471965         3    ;  uncertainty k = 0.307308
        20        19        18        23     9      180.000000        0.819629         4    ;  uncertainty k = 0.339588
        20        21        22        23     9        0.000000        0.003336         1    ;  uncertainty k = 0.036527
        20        21        22        23     9      180.000000       15.061872         2    ;  uncertainty k = 0.266782
        20        21        22        23     9        0.000000       -1.241530         3    ;  uncertainty k = 0.510934
        20        21        22        23     9      180.000000        0.486540         4    ;  uncertainty k = 0.300058
        20        21        22        62     9        0.000000        0.045944         1    ;  uncertainty k = 0.040455
        20        21        22        62     9      180.000000        7.527538         2    ;  uncertainty k = 0.325492
        20        21        22        62     9        0.000000        1.433628         3    ;  uncertainty k = 0.327115
        20        21        22        62     9      180.000000        1.790207         4    ;  uncertainty k = 0.158460
        21        20        19        59     9        0.000000        0.053110         1    ;  uncertainty k = 0.076538
        21        20        19        59     9      180.000000        7.946076         2    ;  uncertainty k = 0.338882
        21        20        19        59     9        0.000000        1.427769         3    ;  uncertainty k = 0.326160
        21        20        19        59     9      180.000000        1.836126         4    ;  uncertainty k = 0.159402
        21        22        23        63     9        0.000000        0.053110         1    ;  uncertainty k = 0.076538
        21        22        23        63     9      180.000000        7.946076         2    ;  uncertainty k = 0.338882
        21        22        23        63     9        0.000000        1.427769         3    ;  uncertainty k = 0.326160
        21        22        23        63     9      180.000000        1.836126         4    ;  uncertainty k = 0.159402
        22        21        20        60     9        0.000000        0.045944         1    ;  uncertainty k = 0.040455
        22        21        20        60     9      180.000000        7.527538         2    ;  uncertainty k = 0.325492
        22        21        20        60     9        0.000000        1.433628         3    ;  uncertainty k = 0.327115
        22        21        20        60     9      180.000000        1.790207         4    ;  uncertainty k = 0.158460
        23        18        17        24     9        0.000000       -0.590756         1    ;  uncertainty k = 0.525590
        23        18        17        24     9      180.000000        2.732820         2    ;  uncertainty k = 0.257489
        23        18        17        24     9        0.000000        0.629229         3    ;  uncertainty k = 0.228491
        23        18        17        24     9      180.000000        0.435377         4    ;  uncertainty k = 0.023802
        23        18        17        58     9        0.000000       -0.618195         1    ;  uncertainty k = 0.243533
        23        18        17        58     9      180.000000        2.285546         2    ;  uncertainty k = 0.337301
        23        18        17        58     9        0.000000        0.482603         3    ;  uncertainty k = 0.112818
        23        18        17        58     9      180.000000        0.236140         4    ;  uncertainty k = 0.049741
        23        18        19        59     9        0.000000        0.103785         1    ;  uncertainty k = 0.115164
        23        18        19        59     9      180.000000        7.232563         2    ;  uncertainty k = 0.479326
        23        18        19        59     9        0.000000        1.441610         3    ;  uncertainty k = 0.358040
        23        18        19        59     9      180.000000        1.626932         4    ;  uncertainty k = 0.180626
        23        22        21        61     9        0.000000        0.055741         1    ;  uncertainty k = 0.094832
        23        22        21        61     9      180.000000        7.490470         2    ;  uncertainty k = 0.333391
        23        22        21        61     9        0.000000        1.467122         3    ;  uncertainty k = 0.292764
        23        22        21        61     9      180.000000        1.797081         4    ;  uncertainty k = 0.179699
        24        17        16        35     9        0.000000       -0.007594         1    ;  uncertainty k = 2.197311
        24        17        16        35     9      180.000000       -1.143082         2    ;  uncertainty k = 0.276445
        24        17        16        35     9        0.000000        0.537168         3    ;  uncertainty k = 0.459074
        24        17        16        35     9      180.000000       -0.178266         4    ;  uncertainty k = 0.357380
        24        17        16        57     9        0.000000       -0.947833         1    ;  uncertainty k = 0.627969
        24        17        16        57     9      180.000000        0.170574         2    ;  uncertainty k = 0.410475
        24        17        16        57     9        0.000000        0.627907         3    ;  uncertainty k = 0.278857
        24        17        16        57     9      180.000000        0.059564         4    ;  uncertainty k = 0.093137
        24        25        26        27     9        0.000000        0.231429         1    ;  uncertainty k = 0.389795
        24        25        26        27     9      180.000000       10.238476         2    ;  uncertainty k = 0.466629
        24        25        26        27     9        0.000000        1.246350         3    ;  uncertainty k = 0.222856
        24        25        26        27     9      180.000000        1.655065         4    ;  uncertainty k = 0.267772
        24        25        26        65     9        0.000000       -0.252322         1    ;  uncertainty k = 0.534722
        24        25        26        65     9      180.000000        8.173632         2    ;  uncertainty k = 0.357488
        24        25        26        65     9        0.000000        1.005199         3    ;  uncertainty k = 0.139230
        24        25        26        65     9      180.000000        1.186392         4    ;  uncertainty k = 0.335076
        24        25        34        33     9        0.000000        0.514706         1    ;  uncertainty k = 0.664255
        24        25        34        33     9      180.000000        7.605363         2    ;  uncertainty k = 0.362138
        24        25        34        33     9        0.000000        0.991340         3    ;  uncertainty k = 0.193914
        24        25        34        33     9      180.000000        1.359285         4    ;  uncertainty k = 0.393670
        24        25        34        35     9        0.000000        0.052004         1    ;  uncertainty k = 0.599855
        24        25        34        35     9      180.000000        7.581846         2    ;  uncertainty k = 1.015596
        24        25        34        35     9        0.000000        0.683693         3    ;  uncertainty k = 0.579944
        24        25        34        35     9      180.000000        1.194810         4    ;  uncertainty k = 0.485141
        25        24        17        58     9        0.000000       -0.859913         1    ;  uncertainty k = 0.376971
        25        24        17        58     9      180.000000       -0.534873         2    ;  uncertainty k = 0.442169
        25        24        17        58     9        0.000000        0.715681         3    ;  uncertainty k = 0.162008
        25        24        17        58     9      180.000000        0.204030         4    ;  uncertainty k = 0.096027
        25        26        27        28     9        0.000000       -0.182689         1    ;  uncertainty k = 0.192397
        25        26        27        28     9      180.000000       13.581553         2    ;  uncertainty k = 0.317227
        25        26        27        28     9        0.000000       -0.529046         3    ;  uncertainty k = 0.592314
        25        26        27        28     9      180.000000        0.815071         4    ;  uncertainty k = 0.353192
        25        26        27        66     9        0.000000        0.317053         1    ;  uncertainty k = 0.513036
        25        26        27        66     9      180.000000        9.069730         2    ;  uncertainty k = 0.572383
        25        26        27        66     9        0.000000        1.256166         3    ;  uncertainty k = 0.254022
        25        26        27        66     9      180.000000        1.555766         4    ;  uncertainty k = 0.257996
        25        34        33        28     9        0.000000       -0.267304         1    ;  uncertainty k = 0.412366
        25        34        33        28     9      180.000000       11.752076         2    ;  uncertainty k = 0.425099
        25        34        33        28     9        0.000000       -0.315775         3    ;  uncertainty k = 0.520190
        25        34        33        28     9      180.000000        0.915764         4    ;  uncertainty k = 0.515936
        25        34        33        67     9        0.000000        0.324811         1    ;  uncertainty k = 0.368050
        25        34        33        67     9      180.000000        8.288329         2    ;  uncertainty k = 0.526603
        25        34        33        67     9        0.000000        1.376752         3    ;  uncertainty k = 0.326266
        25        34        33        67     9      180.000000        1.578090         4    ;  uncertainty k = 0.187003
        25        34        35        36     9        0.000000       -2.580437         1    ;  uncertainty k = 2.683826
        25        34        35        36     9      180.000000        0.502346         2    ;  uncertainty k = 1.162126
        25        34        35        36     9        0.000000        1.515421         3    ;  uncertainty k = 0.333735
        25        34        35        36     9      180.000000       -0.019105         4    ;  uncertainty k = 0.175976
        25        34        35        68     9        0.000000       -0.390474         1    ;  uncertainty k = 0.832622
        25        34        35        68     9      180.000000        2.111781         2    ;  uncertainty k = 0.240300
        25        34        35        68     9        0.000000        0.472394         3    ;  uncertainty k = 0.238680
        25        34        35        68     9      180.000000       -0.194062         4    ;  uncertainty k = 0.147186
        26        25        24        64     9        0.000000        1.644529         1    ;  uncertainty k = 0.671485
        26        25        24        64     9      180.000000        5.648101         2    ;  uncertainty k = 0.263410
        26        25        24        64     9        0.000000        0.887669         3    ;  uncertainty k = 0.335481
        26        25        24        64     9      180.000000       -0.022901         4    ;  uncertainty k = 0.180172
        26        25        34        33     9        0.000000        0.317715         1    ;  uncertainty k = 0.350190
        26        25        34        33     9      180.000000        5.948735         2    ;  uncertainty k = 0.533572
        26        25        34        33     9        0.000000        0.392054         3    ;  uncertainty k = 0.350698
        26        25        34        33     9      180.000000        1.333497         4    ;  uncertainty k = 0.239548
        26        25        34        35     9        0.000000        0.610301         1    ;  uncertainty k = 0.604383
        26        25        34        35     9      180.000000        5.675482         2    ;  uncertainty k = 0.460551
        26        25        34        35     9        0.000000        1.309673         3    ;  uncertainty k = 0.239002
        26        25        34        35     9      180.000000        1.601892         4    ;  uncertainty k = 0.271408
        26        27        28        29     9        0.000000        0.110284         1    ;  uncertainty k = 0.167157
        26        27        28        29     9      180.000000        9.822616         2    ;  uncertainty k = 0.704573
        26        27        28        29     9        0.000000        1.387104         3    ;  uncertainty k = 0.349698
        26        27        28        29     9      180.000000        1.947235         4    ;  uncertainty k = 0.332595
        26        27        28        33     9        0.000000       -0.034672         1    ;  uncertainty k = 0.203903
        26        27        28        33     9      180.000000       12.012213         2    ;  uncertainty k = 0.382685
        26        27        28        33     9        0.000000       -0.709598         3    ;  uncertainty k = 0.306768
        26        27        28        33     9      180.000000        0.893584         4    ;  uncertainty k = 0.295329
        27        26        25        34     9        0.000000        0.306570         1    ;  uncertainty k = 0.425942
        27        26        25        34     9      180.000000        7.300329         2    ;  uncertainty k = 0.363062
        27        26        25        34     9        0.000000        0.474891         3    ;  uncertainty k = 0.421537
        27        26        25        34     9      180.000000        1.413924         4    ;  uncertainty k = 0.213424
        27        28        29        30     9        0.000000       -0.682420         1    ;  uncertainty k = 0.249405
        27        28        29        30     9      180.000000        2.604905         2    ;  uncertainty k = 0.094363
        27        28        29        30     9        0.000000        0.754799         3    ;  uncertainty k = 0.077531
        27        28        29        30     9      180.000000        0.158520         4    ;  uncertainty k = 0.059056
        27        28        29        31     9        0.000000       -0.682420         1    ;  uncertainty k = 0.249405
        27        28        29        31     9      180.000000        2.604905         2    ;  uncertainty k = 0.094363
        27        28        29        31     9        0.000000        0.754799         3    ;  uncertainty k = 0.077531
        27        28        29        31     9      180.000000        0.158520         4    ;  uncertainty k = 0.059056
        27        28        29        32     9        0.000000       -0.682420         1    ;  uncertainty k = 0.249405
        27        28        29        32     9      180.000000        2.604905         2    ;  uncertainty k = 0.094363
        27        28        29        32     9        0.000000        0.754799         3    ;  uncertainty k = 0.077531
        27        28        29        32     9      180.000000        0.158520         4    ;  uncertainty k = 0.059056
        27        28        33        34     9        0.000000        0.036149         1    ;  uncertainty k = 0.285337
        27        28        33        34     9      180.000000       11.001544         2    ;  uncertainty k = 0.517109
        27        28        33        34     9        0.000000       -0.397288         3    ;  uncertainty k = 0.757389
        27        28        33        34     9      180.000000        1.041673         4    ;  uncertainty k = 0.528914
        27        28        33        67     9        0.000000        0.167489         1    ;  uncertainty k = 0.232761
        27        28        33        67     9      180.000000        7.759392         2    ;  uncertainty k = 0.302342
        27        28        33        67     9        0.000000        1.300806         3    ;  uncertainty k = 0.409955
        27        28        33        67     9      180.000000        1.640924         4    ;  uncertainty k = 0.190721
        28        27        26        65     9        0.000000        0.175559         1    ;  uncertainty k = 0.194210
        28        27        26        65     9      180.000000        8.463923         2    ;  uncertainty k = 0.413468
        28        27        26        65     9        0.000000        1.526974         3    ;  uncertainty k = 0.227748
        28        27        26        65     9      180.000000        1.855719         4    ;  uncertainty k = 0.242608
        28        33        34        35     9        0.000000       -0.052406         1    ;  uncertainty k = 0.525899
        28        33        34        35     9      180.000000       10.535435         2    ;  uncertainty k = 0.438629
        28        33        34        35     9        0.000000        1.345859         3    ;  uncertainty k = 0.153632
        28        33        34        35     9      180.000000        1.746173         4    ;  uncertainty k = 0.503262
        29        28        27        66     9        0.000000       -0.108566         1    ;  uncertainty k = 0.468395
        29        28        27        66     9      180.000000        8.611636         2    ;  uncertainty k = 0.510216
        29        28        27        66     9        0.000000        0.670475         3    ;  uncertainty k = 0.276177
        29        28        27        66     9      180.000000        1.004020         4    ;  uncertainty k = 0.160388
        29        28        33        34     9        0.000000        0.184112         1    ;  uncertainty k = 0.430341
        29        28        33        34     9      180.000000       10.236153         2    ;  uncertainty k = 0.564350
        29        28        33        34     9        0.000000        1.596328         3    ;  uncertainty k = 0.294702
        29        28        33        34     9      180.000000        1.951289         4    ;  uncertainty k = 0.285583
        29        28        33        67     9        0.000000        0.104723         1    ;  uncertainty k = 0.367022
        29        28        33        67     9      180.000000        8.817674         2    ;  uncertainty k = 0.477947
        29        28        33        67     9        0.000000        0.711159         3    ;  uncertainty k = 0.170461
        29        28        33        67     9      180.000000        1.070202         4    ;  uncertainty k = 0.164773
        30        29        28        33     9        0.000000       -0.574436         1    ;  uncertainty k = 0.288119
        30        29        28        33     9      180.000000        2.562506         2    ;  uncertainty k = 0.201571
        30        29        28        33     9        0.000000        0.701170         3    ;  uncertainty k = 0.104983
        30        29        28        33     9      180.000000        0.155920         4    ;  uncertainty k = 0.065716
        31        29        28        33     9        0.000000       -0.574436         1    ;  uncertainty k = 0.288119
        31        29        28        33     9      180.000000        2.562506         2    ;  uncertainty k = 0.201571
        31        29        28        33     9        0.000000        0.701170         3    ;  uncertainty k = 0.104983
        31        29        28        33     9      180.000000        0.155920         4    ;  uncertainty k = 0.065716
        32        29        28        33     9        0.000000       -0.574436         1    ;  uncertainty k = 0.288119
        32        29        28        33     9      180.000000        2.562506         2    ;  uncertainty k = 0.201571
        32        29        28        33     9        0.000000        0.701170         3    ;  uncertainty k = 0.104983
        32        29        28        33     9      180.000000        0.155920         4    ;  uncertainty k = 0.065716
        33        28        27        66     9        0.000000        0.213863         1    ;  uncertainty k = 0.199739
        33        28        27        66     9      180.000000        7.175611         2    ;  uncertainty k = 0.543777
        33        28        27        66     9        0.000000        1.246727         3    ;  uncertainty k = 0.361361
        33        28        27        66     9      180.000000        1.612477         4    ;  uncertainty k = 0.317210
        33        34        35        36     9        0.000000        0.051888         1    ;  uncertainty k = 0.537444
        33        34        35        36     9      180.000000        1.513875         2    ;  uncertainty k = 0.665606
        33        34        35        36     9        0.000000       -0.285620         3    ;  uncertainty k = 0.352570
        33        34        35        36     9      180.000000        0.138635         4    ;  uncertainty k = 0.131551
        33        34        35        68     9        0.000000        0.534070         1    ;  uncertainty k = 0.956167
        33        34        35        68     9      180.000000        1.860060         2    ;  uncertainty k = 0.352982
        33        34        35        68     9        0.000000        0.077794         3    ;  uncertainty k = 0.149453
        33        34        35        68     9      180.000000        0.005636         4    ;  uncertainty k = 0.143229
        34        25        24        64     9        0.000000       11.680210         1    ;  uncertainty k = 0.714263
        34        25        24        64     9      180.000000        5.639670         2    ;  uncertainty k = 0.496849
        34        25        24        64     9        0.000000        0.337104         3    ;  uncertainty k = 0.311468
        34        25        24        64     9      180.000000        0.199068         4    ;  uncertainty k = 0.154313
        34        25        26        65     9        0.000000        0.270042         1    ;  uncertainty k = 0.888279
        34        25        26        65     9      180.000000        6.341358         2    ;  uncertainty k = 0.647731
        34        25        26        65     9        0.000000        1.346205         3    ;  uncertainty k = 0.254113
        34        25        26        65     9      180.000000        1.274156         4    ;  uncertainty k = 0.236801
        34        35        16        57     9        0.000000       -0.495261         1    ;  uncertainty k = 0.912545
        34        35        16        57     9      180.000000        0.758394         2    ;  uncertainty k = 0.524829
        34        35        16        57     9        0.000000       -0.006710         3    ;  uncertainty k = 0.120103
        34        35        16        57     9      180.000000       -0.064125         4    ;  uncertainty k = 0.105449
        35        16        15        55     9        0.000000       -0.375195         1    ;  uncertainty k = 0.393019
        35        16        15        55     9      180.000000       -0.656805         2    ;  uncertainty k = 0.132762
        35        16        15        55     9        0.000000        0.281688         3    ;  uncertainty k = 0.117471
        35        16        15        55     9      180.000000       -0.009048         4    ;  uncertainty k = 0.054184
        35        16        15        56     9        0.000000       -0.375195         1    ;  uncertainty k = 0.393019
        35        16        15        56     9      180.000000       -0.656805         2    ;  uncertainty k = 0.132762
        35        16        15        56     9        0.000000        0.281688         3    ;  uncertainty k = 0.117471
        35        16        15        56     9      180.000000       -0.009048         4    ;  uncertainty k = 0.054184
        35        16        17        58     9        0.000000        0.737392         1    ;  uncertainty k = 0.719923
        35        16        17        58     9      180.000000       -1.388403         2    ;  uncertainty k = 0.748966
        35        16        17        58     9        0.000000       -0.423795         3    ;  uncertainty k = 0.141734
        35        16        17        58     9      180.000000        0.029718         4    ;  uncertainty k = 0.147484
        35        34        33        67     9        0.000000       -0.276769         1    ;  uncertainty k = 0.530614
        35        34        33        67     9      180.000000        8.412442         2    ;  uncertainty k = 0.745644
        35        34        33        67     9        0.000000        0.824115         3    ;  uncertainty k = 0.310579
        35        34        33        67     9      180.000000        1.104340         4    ;  uncertainty k = 0.412602
        35        36        13        52     9        0.000000       -2.016432         1    ;  uncertainty k = 1.145769
        35        36        13        52     9      180.000000       -0.646528         2    ;  uncertainty k = 0.299879
        35        36        13        52     9        0.000000        0.129153         3    ;  uncertainty k = 0.056642
        35        36        13        52     9      180.000000       -0.052104         4    ;  uncertainty k = 0.134741
        36        13        12        50     9        0.000000        0.168319         1    ;  uncertainty k = 0.466048
        36        13        12        50     9      180.000000       -1.074067         2    ;  uncertainty k = 0.248978
        36        13        12        50     9        0.000000        0.315275         3    ;  uncertainty k = 0.156915
        36        13        12        50     9      180.000000       -0.124612         4    ;  uncertainty k = 0.068537
        36        13        12        51     9        0.000000        0.168319         1    ;  uncertainty k = 0.466048
        36        13        12        51     9      180.000000       -1.074067         2    ;  uncertainty k = 0.248978
        36        13        12        51     9        0.000000        0.315275         3    ;  uncertainty k = 0.156915
        36        13        12        51     9      180.000000       -0.124612         4    ;  uncertainty k = 0.068537
        36        13        14        53     9        0.000000       -1.269664         1    ;  uncertainty k = 0.382310
        36        13        14        53     9      180.000000       -1.019785         2    ;  uncertainty k = 0.116191
        36        13        14        53     9        0.000000        0.871525         3    ;  uncertainty k = 0.177340
        36        13        14        53     9      180.000000       -0.142281         4    ;  uncertainty k = 0.105264
        36        13        14        54     9        0.000000       -1.269664         1    ;  uncertainty k = 0.382310
        36        13        14        54     9      180.000000       -1.019785         2    ;  uncertainty k = 0.116191
        36        13        14        54     9        0.000000        0.871525         3    ;  uncertainty k = 0.177340
        36        13        14        54     9      180.000000       -0.142281         4    ;  uncertainty k = 0.105264
        36        35        16        57     9        0.000000       -0.651364         1    ;  uncertainty k = 0.270961
        36        35        16        57     9      180.000000        0.601324         2    ;  uncertainty k = 0.505134
        36        35        16        57     9        0.000000        0.080564         3    ;  uncertainty k = 0.292264
        36        35        16        57     9      180.000000       -0.149327         4    ;  uncertainty k = 0.127471
        37         5         4        43     9        0.000000        0.291455         1    ;  uncertainty k = 0.252513
        37         5         4        43     9      180.000000        7.391027         2    ;  uncertainty k = 0.458417
        37         5         4        43     9        0.000000        1.207567         3    ;  uncertainty k = 0.258574
        37         5         4        43     9      180.000000        1.710136         4    ;  uncertainty k = 0.247358
        38         2         1        39     9        0.000000       -0.013218         1    ;  uncertainty k = 0.071426
        38         2         1        39     9      180.000000        1.257991         2    ;  uncertainty k = 0.102373
        38         2         1        39     9        0.000000        0.336749         3    ;  uncertainty k = 0.027218
        38         2         1        39     9      180.000000        0.185340         4    ;  uncertainty k = 0.026545
        38         2         1        40     9        0.000000       -0.013218         1    ;  uncertainty k = 0.071426
        38         2         1        40     9      180.000000        1.257991         2    ;  uncertainty k = 0.102373
        38         2         1        40     9        0.000000        0.336749         3    ;  uncertainty k = 0.027218
        38         2         1        40     9      180.000000        0.185340         4    ;  uncertainty k = 0.026545
        38         2         1        41     9        0.000000       -0.013218         1    ;  uncertainty k = 0.071426
        38         2         1        41     9      180.000000        1.257991         2    ;  uncertainty k = 0.102373
        38         2         1        41     9        0.000000        0.336749         3    ;  uncertainty k = 0.027218
        38         2         1        41     9      180.000000        0.185340         4    ;  uncertainty k = 0.026545
        38         2         3        42     9        0.000000        0.058201         1    ;  uncertainty k = 0.128768
        38         2         3        42     9      180.000000        7.264820         2    ;  uncertainty k = 0.329994
        38         2         3        42     9        0.000000        1.485814         3    ;  uncertainty k = 0.355120
        38         2         3        42     9      180.000000        1.628403         4    ;  uncertainty k = 0.114388
        42         3         4        43     9        0.000000       -0.173455         1    ;  uncertainty k = 0.123170
        42         3         4        43     9      180.000000        7.942797         2    ;  uncertainty k = 0.291445
        42         3         4        43     9        0.000000       -0.396034         3    ;  uncertainty k = 0.192263
        42         3         4        43     9      180.000000        0.210640         4    ;  uncertainty k = 0.131774
        44         9        10        46     9        0.000000        0.006565         1    ;  uncertainty k = 0.470359
        44         9        10        46     9      180.000000        0.012505         2    ;  uncertainty k = 0.408216
        44         9        10        46     9        0.000000        0.192062         3    ;  uncertainty k = 0.102939
        44         9        10        46     9      180.000000        0.056811         4    ;  uncertainty k = 0.053874
        44         9        10        47     9        0.000000        0.006565         1    ;  uncertainty k = 0.470359
        44         9        10        47     9      180.000000        0.012505         2    ;  uncertainty k = 0.408216
        44         9        10        47     9        0.000000        0.192062         3    ;  uncertainty k = 0.102939
        44         9        10        47     9      180.000000        0.056811         4    ;  uncertainty k = 0.053874
        45         9        10        46     9        0.000000        0.006565         1    ;  uncertainty k = 0.470359
        45         9        10        46     9      180.000000        0.012505         2    ;  uncertainty k = 0.408216
        45         9        10        46     9        0.000000        0.192062         3    ;  uncertainty k = 0.102939
        45         9        10        46     9      180.000000        0.056811         4    ;  uncertainty k = 0.053874
        45         9        10        47     9        0.000000        0.006565         1    ;  uncertainty k = 0.470359
        45         9        10        47     9      180.000000        0.012505         2    ;  uncertainty k = 0.408216
        45         9        10        47     9        0.000000        0.192062         3    ;  uncertainty k = 0.102939
        45         9        10        47     9      180.000000        0.056811         4    ;  uncertainty k = 0.053874
        46        10        11        48     9        0.000000       -0.157883         1    ;  uncertainty k = 0.742639
        46        10        11        48     9      180.000000        0.001750         2    ;  uncertainty k = 0.304374
        46        10        11        48     9        0.000000        0.455383         3    ;  uncertainty k = 0.101644
        46        10        11        48     9      180.000000        0.049650         4    ;  uncertainty k = 0.103027
        46        10        11        49     9        0.000000       -0.157883         1    ;  uncertainty k = 0.742639
        46        10        11        49     9      180.000000        0.001750         2    ;  uncertainty k = 0.304374
        46        10        11        49     9        0.000000        0.455383         3    ;  uncertainty k = 0.101644
        46        10        11        49     9      180.000000        0.049650         4    ;  uncertainty k = 0.103027
        46        10        11        71     9        0.000000       -0.157883         1    ;  uncertainty k = 0.742639
        46        10        11        71     9      180.000000        0.001750         2    ;  uncertainty k = 0.304374
        46        10        11        71     9        0.000000        0.455383         3    ;  uncertainty k = 0.101644
        46        10        11        71     9      180.000000        0.049650         4    ;  uncertainty k = 0.103027
        47        10        11        48     9        0.000000       -0.157883         1    ;  uncertainty k = 0.742639
        47        10        11        48     9      180.000000        0.001750         2    ;  uncertainty k = 0.304374
        47        10        11        48     9        0.000000        0.455383         3    ;  uncertainty k = 0.101644
        47        10        11        48     9      180.000000        0.049650         4    ;  uncertainty k = 0.103027
        47        10        11        49     9        0.000000       -0.157883         1    ;  uncertainty k = 0.742639
        47        10        11        49     9      180.000000        0.001750         2    ;  uncertainty k = 0.304374
        47        10        11        49     9        0.000000        0.455383         3    ;  uncertainty k = 0.101644
        47        10        11        49     9      180.000000        0.049650         4    ;  uncertainty k = 0.103027
        47        10        11        71     9        0.000000       -0.157883         1    ;  uncertainty k = 0.742639
        47        10        11        71     9      180.000000        0.001750         2    ;  uncertainty k = 0.304374
        47        10        11        71     9        0.000000        0.455383         3    ;  uncertainty k = 0.101644
        47        10        11        71     9      180.000000        0.049650         4    ;  uncertainty k = 0.103027
        50        12        13        52     9        0.000000        0.033248         1    ;  uncertainty k = 0.346891
        50        12        13        52     9      180.000000       -0.187164         2    ;  uncertainty k = 0.162307
        50        12        13        52     9        0.000000        0.087527         3    ;  uncertainty k = 0.036788
        50        12        13        52     9      180.000000       -0.094138         4    ;  uncertainty k = 0.103827
        51        12        13        52     9        0.000000        0.033248         1    ;  uncertainty k = 0.346891
        51        12        13        52     9      180.000000       -0.187164         2    ;  uncertainty k = 0.162307
        51        12        13        52     9        0.000000        0.087527         3    ;  uncertainty k = 0.036788
        51        12        13        52     9      180.000000       -0.094138         4    ;  uncertainty k = 0.103827
        52        13        14        53     9        0.000000        0.263517         1    ;  uncertainty k = 0.260811
        52        13        14        53     9      180.000000        0.166903         2    ;  uncertainty k = 0.355009
        52        13        14        53     9        0.000000       -0.056382         3    ;  uncertainty k = 0.087179
        52        13        14        53     9      180.000000       -0.195131         4    ;  uncertainty k = 0.100945
        52        13        14        54     9        0.000000        0.263517         1    ;  uncertainty k = 0.260811
        52        13        14        54     9      180.000000        0.166903         2    ;  uncertainty k = 0.355009
        52        13        14        54     9        0.000000       -0.056382         3    ;  uncertainty k = 0.087179
        52        13        14        54     9      180.000000       -0.195131         4    ;  uncertainty k = 0.100945
        53        14        15        55     9        0.000000        1.668604         1    ;  uncertainty k = 0.442044
        53        14        15        55     9      180.000000        0.121229         2    ;  uncertainty k = 0.256286
        53        14        15        55     9        0.000000        0.347023         3    ;  uncertainty k = 0.104051
        53        14        15        55     9      180.000000        0.074261         4    ;  uncertainty k = 0.026280
        53        14        15        56     9        0.000000        1.668604         1    ;  uncertainty k = 0.442044
        53        14        15        56     9      180.000000        0.121229         2    ;  uncertainty k = 0.256286
        53        14        15        56     9        0.000000        0.347023         3    ;  uncertainty k = 0.104051
        53        14        15        56     9      180.000000        0.074261         4    ;  uncertainty k = 0.026280
        54        14        15        55     9        0.000000        1.668604         1    ;  uncertainty k = 0.442044
        54        14        15        55     9      180.000000        0.121229         2    ;  uncertainty k = 0.256286
        54        14        15        55     9        0.000000        0.347023         3    ;  uncertainty k = 0.104051
        54        14        15        55     9      180.000000        0.074261         4    ;  uncertainty k = 0.026280
        54        14        15        56     9        0.000000        1.668604         1    ;  uncertainty k = 0.442044
        54        14        15        56     9      180.000000        0.121229         2    ;  uncertainty k = 0.256286
        54        14        15        56     9        0.000000        0.347023         3    ;  uncertainty k = 0.104051
        54        14        15        56     9      180.000000        0.074261         4    ;  uncertainty k = 0.026280
        55        15        16        57     9        0.000000        1.545255         1    ;  uncertainty k = 0.344376
        55        15        16        57     9      180.000000       -0.020692         2    ;  uncertainty k = 0.342601
        55        15        16        57     9        0.000000       -0.070632         3    ;  uncertainty k = 0.119714
        55        15        16        57     9      180.000000        0.013810         4    ;  uncertainty k = 0.071778
        56        15        16        57     9        0.000000        1.545255         1    ;  uncertainty k = 0.344376
        56        15        16        57     9      180.000000       -0.020692         2    ;  uncertainty k = 0.342601
        56        15        16        57     9        0.000000       -0.070632         3    ;  uncertainty k = 0.119714
        56        15        16        57     9      180.000000        0.013810         4    ;  uncertainty k = 0.071778
        57        16        17        58     9        0.000000        1.077534         1    ;  uncertainty k = 0.458223
        57        16        17        58     9      180.000000       -0.042492         2    ;  uncertainty k = 0.250347
        57        16        17        58     9        0.000000       -0.346964         3    ;  uncertainty k = 0.176981
        57        16        17        58     9      180.000000       -0.270511         4    ;  uncertainty k = 0.102482
        57        16        35        68     9        0.000000        2.052517         1    ;  uncertainty k = 0.492056
        57        16        35        68     9      180.000000        0.874633         2    ;  uncertainty k = 0.464313
        57        16        35        68     9        0.000000       -0.485357         3    ;  uncertainty k = 0.218178
        57        16        35        68     9      180.000000       -0.175318         4    ;  uncertainty k = 0.074235
        58        17        24        64     9        0.000000        0.468542         1    ;  uncertainty k = 0.563664
        58        17        24        64     9      180.000000       -0.983993         2    ;  uncertainty k = 0.285944
        58        17        24        64     9        0.000000        0.482175         3    ;  uncertainty k = 0.277173
        58        17        24        64     9      180.000000        0.028441         4    ;  uncertainty k = 0.127509
        59        19        20        60     9        0.000000       -0.038400         1    ;  uncertainty k = 0.034128
        59        19        20        60     9      180.000000        7.644156         2    ;  uncertainty k = 0.255449
        59        19        20        60     9        0.000000       -0.470076         3    ;  uncertainty k = 0.270053
        59        19        20        60     9      180.000000        0.106023         4    ;  uncertainty k = 0.117777
        60        20        21        61     9        0.000000       -0.016279         1    ;  uncertainty k = 0.090334
        60        20        21        61     9      180.000000        7.510682         2    ;  uncertainty k = 0.369436
        60        20        21        61     9        0.000000       -0.422665         3    ;  uncertainty k = 0.276612
        60        20        21        61     9      180.000000        0.041075         4    ;  uncertainty k = 0.155578
        61        21        22        62     9        0.000000       -0.016279         1    ;  uncertainty k = 0.090334
        61        21        22        62     9      180.000000        7.510682         2    ;  uncertainty k = 0.369436
        61        21        22        62     9        0.000000       -0.422665         3    ;  uncertainty k = 0.276612
        61        21        22        62     9      180.000000        0.041075         4    ;  uncertainty k = 0.155578
        62        22        23        63     9        0.000000       -0.038400         1    ;  uncertainty k = 0.034128
        62        22        23        63     9      180.000000        7.644156         2    ;  uncertainty k = 0.255449
        62        22        23        63     9        0.000000       -0.470076         3    ;  uncertainty k = 0.270053
        62        22        23        63     9      180.000000        0.106023         4    ;  uncertainty k = 0.117777
        65        26        27        66     9        0.000000        0.247012         1    ;  uncertainty k = 0.623701
        65        26        27        66     9      180.000000        7.829037         2    ;  uncertainty k = 0.394731
        65        26        27        66     9        0.000000       -0.335446         3    ;  uncertainty k = 0.271687
        65        26        27        66     9      180.000000        0.202601         4    ;  uncertainty k = 0.180743
        69        37        38        70     9        0.000000       -0.173455         1    ;  uncertainty k = 0.123170
        69        37        38        70     9      180.000000        7.942797         2    ;  uncertainty k = 0.291445
        69        37        38        70     9        0.000000       -0.396034         3    ;  uncertainty k = 0.192263
        69        37        38        70     9      180.000000        0.210640         4    ;  uncertainty k = 0.131774

[ dihedrals ] ; impropers
;       ai        aj        ak        al funct           phase               k        pn
         2         1         3        38     4      180.000000       16.855716         2    ;  uncertainty k = 0.046412
         2         3        38         1     4      180.000000       16.855716         2    ;  uncertainty k = 0.046412
         2        38         1         3     4      180.000000       16.855716         2    ;  uncertainty k = 0.046412
         3         2         4        42     4      180.000000        3.613288         2    ;  uncertainty k = 0.099776
         3         4        42         2     4      180.000000        3.613288         2    ;  uncertainty k = 0.099776
         3        42         2         4     4      180.000000        3.613288         2    ;  uncertainty k = 0.099776
         4         3         5        43     4      180.000000        4.357388         2    ;  uncertainty k = 0.198289
         4         5        43         3     4      180.000000        4.357388         2    ;  uncertainty k = 0.198289
         4        43         3         5     4      180.000000        4.357388         2    ;  uncertainty k = 0.198289
         5         4         6        37     4      180.000000        8.039320         2    ;  uncertainty k = 0.168017
         5         6        37         4     4      180.000000        8.039320         2    ;  uncertainty k = 0.168017
         5        37         4         6     4      180.000000        8.039320         2    ;  uncertainty k = 0.168017
         6         5         7         8     4      180.000000       50.444750         2    ;  uncertainty k = 0.009720
         6         7         8         5     4      180.000000       50.444750         2    ;  uncertainty k = 0.009720
         6         8         5         7     4      180.000000       50.444750         2    ;  uncertainty k = 0.009720
        18        17        19        23     4      180.000000       12.903617         2    ;  uncertainty k = 0.121797
        18        19        23        17     4      180.000000       12.903617         2    ;  uncertainty k = 0.121797
        18        23        17        19     4      180.000000       12.903617         2    ;  uncertainty k = 0.121797
        19        18        20        59     4      180.000000        4.073198         2    ;  uncertainty k = 0.089532
        19        20        59        18     4      180.000000        4.073198         2    ;  uncertainty k = 0.089532
        19        59        18        20     4      180.000000        4.073198         2    ;  uncertainty k = 0.089532
        20        19        21        60     4      180.000000        4.075596         2    ;  uncertainty k = 0.076311
        20        21        60        19     4      180.000000        4.075596         2    ;  uncertainty k = 0.076311
        20        60        19        21     4      180.000000        4.075596         2    ;  uncertainty k = 0.076311
        21        20        22        61     4      180.000000        4.286749         2    ;  uncertainty k = 0.163795
        21        22        61        20     4      180.000000        4.286749         2    ;  uncertainty k = 0.163795
        21        61        20        22     4      180.000000        4.286749         2    ;  uncertainty k = 0.163795
        22        21        23        62     4      180.000000        4.075596         2    ;  uncertainty k = 0.076311
        22        23        62        21     4      180.000000        4.075596         2    ;  uncertainty k = 0.076311
        22        62        21        23     4      180.000000        4.075596         2    ;  uncertainty k = 0.076311
        23        18        22        63     4      180.000000        4.073202         2    ;  uncertainty k = 0.089534
        23        22        63        18     4      180.000000        4.073202         2    ;  uncertainty k = 0.089534
        23        63        18        22     4      180.000000        4.073202         2    ;  uncertainty k = 0.089534
        25        24        26        34     4      180.000000       21.979194         2    ;  uncertainty k = 0.135021
        25        26        34        24     4      180.000000       21.979194         2    ;  uncertainty k = 0.135021
        25        34        24        26     4      180.000000       21.979194         2    ;  uncertainty k = 0.135021
        26        25        27        65     4      180.000000        1.846540         2    ;  uncertainty k = 0.425682
        26        27        65        25     4      180.000000        1.846540         2    ;  uncertainty k = 0.425682
        26        65        25        27     4      180.000000        1.846540         2    ;  uncertainty k = 0.425682
        27        26        28        66     4      180.000000        4.856163         2    ;  uncertainty k = 0.148465
        27        28        66        26     4      180.000000        4.856163         2    ;  uncertainty k = 0.148465
        27        66        26        28     4      180.000000        4.856163         2    ;  uncertainty k = 0.148465
        28        27        29        33     4      180.000000        6.209822         2    ;  uncertainty k = 0.262054
        28        29        33        27     4      180.000000        6.209822         2    ;  uncertainty k = 0.262054
        28        33        27        29     4      180.000000        6.209822         2    ;  uncertainty k = 0.262054
        33        28        34        67     4      180.000000        4.574179         2    ;  uncertainty k = 0.267402
        33        34        67        28     4      180.000000        4.574179         2    ;  uncertainty k = 0.267402
        33        67        28        34     4      180.000000        4.574179         2    ;  uncertainty k = 0.267402
        34        25        33        35     4      180.000000       10.550445         2    ;  uncertainty k = 0.189412
        34        33        35        25     4      180.000000       10.550445         2    ;  uncertainty k = 0.189412
        34        35        25        33     4      180.000000       10.550445         2    ;  uncertainty k = 0.189412
        37         5        38        69     4      180.000000        4.357387         2    ;  uncertainty k = 0.198289
        37        38        69         5     4      180.000000        4.357387         2    ;  uncertainty k = 0.198289
        37        69         5        38     4      180.000000        4.357387         2    ;  uncertainty k = 0.198289
        38         2        37        70     4      180.000000        3.613285         2    ;  uncertainty k = 0.099775
        38        37        70         2     4      180.000000        3.613285         2    ;  uncertainty k = 0.099775
        38        70         2        37     4      180.000000        3.613285         2    ;  uncertainty k = 0.099775

[ pairs ]
;       ai        aj funct
         1         4     1
         1        37     1
         1        42     1
         1        70     1
         2         5     1
         2        43     1
         2        69     1
         3         6     1
         3        37     1
         3        39     1
         3        40     1
         3        41     1
         3        70     1
         4         7     1
         4         8     1
         4        38     1
         4        69     1
         5         9     1
         5        12     1
         5        42     1
         5        70     1
         6        10     1
         6        13     1
         6        38     1
         6        43     1
         6        44     1
         6        45     1
         6        50     1
         6        51     1
         6        69     1
         7         9     1
         7        12     1
         7        37     1
         8        11     1
         8        14     1
         8        36     1
         8        37     1
         8        46     1
         8        47     1
         8        52     1
         9        13     1
         9        48     1
         9        49     1
         9        50     1
         9        51     1
         9        71     1
        10        12     1
        11        44     1
        11        45     1
        12        15     1
        12        35     1
        12        44     1
        12        45     1
        12        53     1
        12        54     1
        13        16     1
        13        34     1
        13        55     1
        13        56     1
        13        68     1
        14        17     1
        14        35     1
        14        50     1
        14        51     1
        14        57     1
        15        18     1
        15        24     1
        15        34     1
        15        36     1
        15        52     1
        15        58     1
        15        68     1
        16        19     1
        16        23     1
        16        25     1
        16        33     1
        16        53     1
        16        54     1
        16        64     1
        17        20     1
        17        22     1
        17        26     1
        17        34     1
        17        36     1
        17        55     1
        17        56     1
        17        59     1
        17        63     1
        17        68     1
        18        21     1
        18        25     1
        18        35     1
        18        57     1
        18        60     1
        18        62     1
        18        64     1
        19        22     1
        19        24     1
        19        58     1
        19        61     1
        19        63     1
        20        23     1
        20        62     1
        21        59     1
        21        63     1
        22        60     1
        23        24     1
        23        58     1
        23        59     1
        23        61     1
        24        27     1
        24        33     1
        24        35     1
        24        57     1
        24        65     1
        25        28     1
        25        36     1
        25        58     1
        25        66     1
        25        67     1
        25        68     1
        26        29     1
        26        33     1
        26        35     1
        26        64     1
        27        30     1
        27        31     1
        27        32     1
        27        34     1
        27        67     1
        28        35     1
        28        65     1
        29        34     1
        29        66     1
        29        67     1
        30        33     1
        31        33     1
        32        33     1
        33        36     1
        33        66     1
        33        68     1
        34        57     1
        34        64     1
        34        65     1
        35        52     1
        35        55     1
        35        56     1
        35        58     1
        35        67     1
        36        50     1
        36        51     1
        36        53     1
        36        54     1
        36        57     1
        37        43     1
        38        39     1
        38        40     1
        38        41     1
        38        42     1
        42        43     1
        44        46     1
        44        47     1
        45        46     1
        45        47     1
        46        48     1
        46        49     1
        46        71     1
        47        48     1
        47        49     1
        47        71     1
        50        52     1
        51        52     1
        52        53     1
        52        54     1
        53        55     1
        53        56     1
        54        55     1
        54        56     1
        55        57     1
        56        57     1
        57        58     1
        57        68     1
        58        64     1
        59        60     1
        60        61     1
        61        62     1
        62        63     1
        65        66     1
        69        70     1
