; ITP file created by ByteFF-joint-25, 2026-02-17 09:11:54.140139

[ atomtypes ]
;name           bonded.type        at.num        mass        charge   ptype           sigma         epsilon
 o0bf                                   8      0.0000       0.00000       A     3.04822e-01     6.13227e-01    ;  uncertainty sigma = 0.000028, epsilon = 0.002019
 c1bf                                   6      0.0000       0.00000       A     3.31507e-01     4.12851e-01    ;  uncertainty sigma = 0.000014, epsilon = 0.001827
 n2bf                                   7      0.0000       0.00000       A     3.26922e-01     4.91549e-01    ;  uncertainty sigma = 0.000029, epsilon = 0.002234
 c3bf                                   6      0.0000       0.00000       A     3.39750e-01     4.50728e-01    ;  uncertainty sigma = 0.000003, epsilon = 0.001125
 c4bf                                   6      0.0000       0.00000       A     3.39759e-01     4.50684e-01    ;  uncertainty sigma = 0.000014, epsilon = 0.000913
 c5bf                                   6      0.0000       0.00000       A     3.39782e-01     4.50641e-01    ;  uncertainty sigma = 0.000005, epsilon = 0.000800
 o6bf                                   8      0.0000       0.00000       A     3.24317e-01     3.88493e-01    ;  uncertainty sigma = 0.000012, epsilon = 0.001647
 n7bf                                   7      0.0000       0.00000       A     3.27011e-01     4.91212e-01    ;  uncertainty sigma = 0.000033, epsilon = 0.001628
 c8bf                                   6      0.0000       0.00000       A     3.39751e-01     4.50939e-01    ;  uncertainty sigma = 0.000012, epsilon = 0.000501
 c9bf                                   6      0.0000       0.00000       A     3.39760e-01     4.51257e-01    ;  uncertainty sigma = 0.000009, epsilon = 0.001311
 c10bf                                  6      0.0000       0.00000       A     3.39788e-01     4.50768e-01    ;  uncertainty sigma = 0.000008, epsilon = 0.000726
 c11bf                                  6      0.0000       0.00000       A     3.39750e-01     4.51142e-01    ;  uncertainty sigma = 0.000011, epsilon = 0.000651
 c12bf                                  6      0.0000       0.00000       A     3.39755e-01     4.50973e-01    ;  uncertainty sigma = 0.000035, epsilon = 0.000615
 c13bf                                  6      0.0000       0.00000       A     3.39774e-01     4.51693e-01    ;  uncertainty sigma = 0.000009, epsilon = 0.001676
 c14bf                                  6      0.0000       0.00000       A     3.31532e-01     4.13295e-01    ;  uncertainty sigma = 0.000012, epsilon = 0.000849
 c15bf                                  6      0.0000       0.00000       A     3.31519e-01     4.13329e-01    ;  uncertainty sigma = 0.000002, epsilon = 0.000632
 c16bf                                  6      0.0000       0.00000       A     3.31520e-01     4.13328e-01    ;  uncertainty sigma = 0.000003, epsilon = 0.000582
 c17bf                                  6      0.0000       0.00000       A     3.31518e-01     4.13340e-01    ;  uncertainty sigma = 0.000003, epsilon = 0.000580
 c18bf                                  6      0.0000       0.00000       A     3.31520e-01     4.13328e-01    ;  uncertainty sigma = 0.000003, epsilon = 0.000582
 c19bf                                  6      0.0000       0.00000       A     3.31519e-01     4.13329e-01    ;  uncertainty sigma = 0.000002, epsilon = 0.000632
 n20bf                                  7      0.0000       0.00000       A     3.27909e-01     6.44316e-01    ;  uncertainty sigma = 0.000015, epsilon = 0.004120
 c21bf                                  6      0.0000       0.00000       A     3.31548e-01     4.13221e-01    ;  uncertainty sigma = 0.000016, epsilon = 0.001142
 c22bf                                  6      0.0000       0.00000       A     3.31520e-01     4.13421e-01    ;  uncertainty sigma = 0.000010, epsilon = 0.000475
 c23bf                                  6      0.0000       0.00000       A     3.31512e-01     4.13402e-01    ;  uncertainty sigma = 0.000007, epsilon = 0.000559
 c24bf                                  6      0.0000       0.00000       A     3.31517e-01     4.13262e-01    ;  uncertainty sigma = 0.000010, epsilon = 0.000628
 c25bf                                  6      0.0000       0.00000       A     3.39792e-01     4.50242e-01    ;  uncertainty sigma = 0.000013, epsilon = 0.000578
 f26bf                                  9      0.0000       0.00000       A     3.03451e-01     3.47806e-01    ;  uncertainty sigma = 0.000008, epsilon = 0.001323
 f27bf                                  9      0.0000       0.00000       A     3.03451e-01     3.47806e-01    ;  uncertainty sigma = 0.000008, epsilon = 0.001323
 f28bf                                  9      0.0000       0.00000       A     3.03451e-01     3.47806e-01    ;  uncertainty sigma = 0.000008, epsilon = 0.001323
 c29bf                                  6      0.0000       0.00000       A     3.31532e-01     4.13181e-01    ;  uncertainty sigma = 0.000009, epsilon = 0.000749
 c30bf                                  6      0.0000       0.00000       A     3.31540e-01     4.13241e-01    ;  uncertainty sigma = 0.000019, epsilon = 0.000618
 c31bf                                  6      0.0000       0.00000       A     3.39758e-01     4.50739e-01    ;  uncertainty sigma = 0.000017, epsilon = 0.001669
 o32bf                                  8      0.0000       0.00000       A     3.15653e-01     3.03500e-01    ;  uncertainty sigma = 0.000034, epsilon = 0.001279
 h33bf                                  1      0.0000       0.00000       A     1.10649e-01     4.14201e-02    ;  uncertainty sigma = 0.000094, epsilon = 0.001006
 h34bf                                  1      0.0000       0.00000       A     2.42220e-01     8.67502e-02    ;  uncertainty sigma = 0.000028, epsilon = 0.000866
 h35bf                                  1      0.0000       0.00000       A     2.42220e-01     8.67502e-02    ;  uncertainty sigma = 0.000028, epsilon = 0.000866
 h36bf                                  1      0.0000       0.00000       A     2.60026e-01     8.62115e-02    ;  uncertainty sigma = 0.000016, epsilon = 0.000910
 h37bf                                  1      0.0000       0.00000       A     2.60026e-01     8.62115e-02    ;  uncertainty sigma = 0.000016, epsilon = 0.000910
 h38bf                                  1      0.0000       0.00000       A     2.42201e-01     8.62260e-02    ;  uncertainty sigma = 0.000029, epsilon = 0.000769
 h39bf                                  1      0.0000       0.00000       A     2.42201e-01     8.62260e-02    ;  uncertainty sigma = 0.000029, epsilon = 0.000769
 h40bf                                  1      0.0000       0.00000       A     5.38168e-02     1.93064e-02    ;  uncertainty sigma = 0.000108, epsilon = 0.001294
 h41bf                                  1      0.0000       0.00000       A     1.10654e-01     4.13138e-02    ;  uncertainty sigma = 0.000087, epsilon = 0.001036
 h42bf                                  1      0.0000       0.00000       A     2.42187e-01     8.66837e-02    ;  uncertainty sigma = 0.000024, epsilon = 0.000571
 h43bf                                  1      0.0000       0.00000       A     2.42187e-01     8.66837e-02    ;  uncertainty sigma = 0.000024, epsilon = 0.000571
 h44bf                                  1      0.0000       0.00000       A     2.42212e-01     8.72057e-02    ;  uncertainty sigma = 0.000050, epsilon = 0.001067
 h45bf                                  1      0.0000       0.00000       A     2.60026e-01     8.66992e-02    ;  uncertainty sigma = 0.000012, epsilon = 0.000651
 h46bf                                  1      0.0000       0.00000       A     2.60026e-01     8.66992e-02    ;  uncertainty sigma = 0.000012, epsilon = 0.000652
 h47bf                                  1      0.0000       0.00000       A     2.60028e-01     8.66832e-02    ;  uncertainty sigma = 0.000010, epsilon = 0.000720
 h48bf                                  1      0.0000       0.00000       A     2.60028e-01     8.66832e-02    ;  uncertainty sigma = 0.000010, epsilon = 0.000720
 h49bf                                  1      0.0000       0.00000       A     2.59938e-01     8.64077e-02    ;  uncertainty sigma = 0.000052, epsilon = 0.000980
 h50bf                                  1      0.0000       0.00000       A     2.42303e-01     8.69597e-02    ;  uncertainty sigma = 0.000074, epsilon = 0.001557
 h51bf                                  1      0.0000       0.00000       A     2.62560e-01     6.70315e-02    ;  uncertainty sigma = 0.000006, epsilon = 0.000529
 h52bf                                  1      0.0000       0.00000       A     2.62559e-01     6.70249e-02    ;  uncertainty sigma = 0.000010, epsilon = 0.000440
 h53bf                                  1      0.0000       0.00000       A     2.62552e-01     6.70647e-02    ;  uncertainty sigma = 0.000011, epsilon = 0.000453
 h54bf                                  1      0.0000       0.00000       A     2.62559e-01     6.70249e-02    ;  uncertainty sigma = 0.000010, epsilon = 0.000440
 h55bf                                  1      0.0000       0.00000       A     2.62560e-01     6.70315e-02    ;  uncertainty sigma = 0.000006, epsilon = 0.000529
 h56bf                                  1      0.0000       0.00000       A     1.10675e-01     4.07500e-02    ;  uncertainty sigma = 0.000109, epsilon = 0.000764
 h57bf                                  1      0.0000       0.00000       A     2.62577e-01     6.70680e-02    ;  uncertainty sigma = 0.000013, epsilon = 0.000535
 h58bf                                  1      0.0000       0.00000       A     2.62556e-01     6.71146e-02    ;  uncertainty sigma = 0.000013, epsilon = 0.000508
 h59bf                                  1      0.0000       0.00000       A     2.62531e-01     6.70779e-02    ;  uncertainty sigma = 0.000022, epsilon = 0.000511
 h60bf                                  1      0.0000       0.00000       A     2.42239e-01     8.76588e-02    ;  uncertainty sigma = 0.000274, epsilon = 0.002166

[ moleculetype ]
;name             nrexcl
 MOL                   3

[ atoms ]
;       nr            type      resi   res      atom      cgnr      charge          mass ; qtot
         1            o0bf         1   UNL        o0         1    -0.62894       15.9990 ; qtot   -0.629
         2            c1bf         1   UNL        c1         2     0.75159       12.0110 ; qtot    0.123
         3            n2bf         1   UNL        n2         3    -0.56502       14.0070 ; qtot   -0.442
         4            c3bf         1   UNL        c3         4     0.09810       12.0110 ; qtot   -0.344
         5            c4bf         1   UNL        c4         5    -0.12678       12.0110 ; qtot   -0.471
         6            c5bf         1   UNL        c5         6     0.13355       12.0110 ; qtot   -0.338
         7            o6bf         1   UNL        o6         7    -0.60248       15.9990 ; qtot   -0.940
         8            n7bf         1   UNL        n7         8    -0.56401       14.0070 ; qtot   -1.504
         9            c8bf         1   UNL        c8         9     0.08922       12.0110 ; qtot   -1.415
        10            c9bf         1   UNL        c9        10     0.11892       12.0110 ; qtot   -1.296
        11           c10bf         1   UNL       c10        11    -0.10291       12.0110 ; qtot   -1.399
        12           c11bf         1   UNL       c11        12    -0.06725       12.0110 ; qtot   -1.466
        13           c12bf         1   UNL       c12        13    -0.09461       12.0110 ; qtot   -1.561
        14           c13bf         1   UNL       c13        14     0.25867       12.0110 ; qtot   -1.302
        15           c14bf         1   UNL       c14        15    -0.10560       12.0110 ; qtot   -1.408
        16           c15bf         1   UNL       c15        16    -0.11888       12.0110 ; qtot   -1.526
        17           c16bf         1   UNL       c16        17    -0.13078       12.0110 ; qtot   -1.657
        18           c17bf         1   UNL       c17        18    -0.12452       12.0110 ; qtot   -1.782
        19           c18bf         1   UNL       c18        19    -0.13078       12.0110 ; qtot   -1.913
        20           c19bf         1   UNL       c19        20    -0.11888       12.0110 ; qtot   -2.031
        21           n20bf         1   UNL       n20        21    -0.73725       14.0070 ; qtot   -2.769
        22           c21bf         1   UNL       c21        22     0.18349       12.0110 ; qtot   -2.585
        23           c22bf         1   UNL       c22        23    -0.20421       12.0110 ; qtot   -2.789
        24           c23bf         1   UNL       c23        24    -0.02807       12.0110 ; qtot   -2.817
        25           c24bf         1   UNL       c24        25    -0.22948       12.0110 ; qtot   -3.047
        26           c25bf         1   UNL       c25        26     0.71240       12.0110 ; qtot   -2.335
        27           f26bf         1   UNL       f26        27    -0.22895       18.9980 ; qtot   -2.563
        28           f27bf         1   UNL       f27        28    -0.22895       18.9980 ; qtot   -2.792
        29           f28bf         1   UNL       f28        29    -0.22895       18.9980 ; qtot   -3.021
        30           c29bf         1   UNL       c29        30    -0.01242       12.0110 ; qtot   -3.034
        31           c30bf         1   UNL       c30        31    -0.15471       12.0110 ; qtot   -3.188
        32           c31bf         1   UNL       c31        32     0.20159       12.0110 ; qtot   -2.987
        33           o32bf         1   UNL       o32        33    -0.41818       15.9990 ; qtot   -3.405
        34           h33bf         1   UNL       h33        34     0.30025        1.0080 ; qtot   -3.105
        35           h34bf         1   UNL       h34        35     0.05761        1.0080 ; qtot   -3.047
        36           h35bf         1   UNL       h35        36     0.05761        1.0080 ; qtot   -2.990
        37           h36bf         1   UNL       h36        37     0.05554        1.0080 ; qtot   -2.934
        38           h37bf         1   UNL       h37        38     0.05554        1.0080 ; qtot   -2.879
        39           h38bf         1   UNL       h38        39     0.03743        1.0080 ; qtot   -2.841
        40           h39bf         1   UNL       h39        40     0.03743        1.0080 ; qtot   -2.804
        41           h40bf         1   UNL       h40        41     0.40177        1.0080 ; qtot   -2.402
        42           h41bf         1   UNL       h41        42     0.30535        1.0080 ; qtot   -2.097
        43           h42bf         1   UNL       h42        43     0.06727        1.0080 ; qtot   -2.029
        44           h43bf         1   UNL       h43        44     0.06727        1.0080 ; qtot   -1.962
        45           h44bf         1   UNL       h44        45     0.05529        1.0080 ; qtot   -1.907
        46           h45bf         1   UNL       h45        46     0.05461        1.0080 ; qtot   -1.852
        47           h46bf         1   UNL       h46        47     0.05461        1.0080 ; qtot   -1.798
        48           h47bf         1   UNL       h47        48     0.04984        1.0080 ; qtot   -1.748
        49           h48bf         1   UNL       h48        49     0.04984        1.0080 ; qtot   -1.698
        50           h49bf         1   UNL       h49        50     0.06904        1.0080 ; qtot   -1.629
        51           h50bf         1   UNL       h50        51     0.05360        1.0080 ; qtot   -1.575
        52           h51bf         1   UNL       h51        52     0.13512        1.0080 ; qtot   -1.440
        53           h52bf         1   UNL       h52        53     0.13172        1.0080 ; qtot   -1.308
        54           h53bf         1   UNL       h53        54     0.13373        1.0080 ; qtot   -1.175
        55           h54bf         1   UNL       h54        55     0.13172        1.0080 ; qtot   -1.043
        56           h55bf         1   UNL       h55        56     0.13512        1.0080 ; qtot   -0.908
        57           h56bf         1   UNL       h56        57     0.40889        1.0080 ; qtot   -0.499
        58           h57bf         1   UNL       h57        58     0.13718        1.0080 ; qtot   -0.362
        59           h58bf         1   UNL       h58        59     0.15124        1.0080 ; qtot   -0.210
        60           h59bf         1   UNL       h59        60     0.15267        1.0080 ; qtot   -0.058
        61           h60bf         1   UNL       h60        61     0.05779        1.0080 ; qtot   -0.000

[ bonds ]
;       ai        aj funct               r               k
         1         2     1        0.123635   952461.654297    ;  uncertainty r = 0.000094, k = 5.493482
         2         3     1        0.138941   384956.244043    ;  uncertainty r = 0.000114, k = 18.569932
         2         8     1        0.139134   393616.873779    ;  uncertainty r = 0.000100, k = 16.646690
         3         4     1        0.145857   265464.661768    ;  uncertainty r = 0.000064, k = 9.195319
         3        34     1        0.101554   419364.766455    ;  uncertainty r = 0.000067, k = 2.142372
         4         5     1        0.153397   211256.018213    ;  uncertainty r = 0.000058, k = 5.742563
         4        35     1        0.109452   305200.659326    ;  uncertainty r = 0.000021, k = 1.598379
         4        36     1        0.109452   305200.659326    ;  uncertainty r = 0.000021, k = 1.598379
         5         6     1        0.152921   214066.798462    ;  uncertainty r = 0.000010, k = 6.520758
         5        37     1        0.109726   308412.793555    ;  uncertainty r = 0.000019, k = 1.778722
         5        38     1        0.109726   308412.793555    ;  uncertainty r = 0.000019, k = 1.778722
         6         7     1        0.143139   258224.865723    ;  uncertainty r = 0.000069, k = 3.215548
         6        39     1        0.109841   306146.962451    ;  uncertainty r = 0.000015, k = 2.149873
         6        40     1        0.109841   306146.962451    ;  uncertainty r = 0.000015, k = 2.149873
         7        41     1        0.097009   464606.743555    ;  uncertainty r = 0.000023, k = 3.266476
         8         9     1        0.145434   277863.694482    ;  uncertainty r = 0.000074, k = 9.029156
         8        42     1        0.101607   419141.189063    ;  uncertainty r = 0.000097, k = 2.487986
         9        10     1        0.152782   203759.510376    ;  uncertainty r = 0.000066, k = 5.868535
         9        43     1        0.109465   307680.236035    ;  uncertainty r = 0.000035, k = 1.430337
         9        44     1        0.109465   307680.236035    ;  uncertainty r = 0.000035, k = 1.430337
        10        11     1        0.152849   206012.738916    ;  uncertainty r = 0.000052, k = 5.817841
        10        33     1        0.142888   235999.638525    ;  uncertainty r = 0.000170, k = 8.797004
        10        45     1        0.110039   305158.599707    ;  uncertainty r = 0.000060, k = 3.349627
        11        12     1        0.153377   213759.293359    ;  uncertainty r = 0.000058, k = 3.220313
        11        46     1        0.109674   309921.040771    ;  uncertainty r = 0.000019, k = 0.774048
        11        47     1        0.109674   309921.015234    ;  uncertainty r = 0.000019, k = 0.774029
        12        13     1        0.153242   204627.159204    ;  uncertainty r = 0.000107, k = 8.446566
        12        48     1        0.109603   307691.242529    ;  uncertainty r = 0.000022, k = 1.054570
        12        49     1        0.109603   307691.242529    ;  uncertainty r = 0.000022, k = 1.054570
        13        14     1        0.153739   194039.869482    ;  uncertainty r = 0.000049, k = 9.258939
        13        32     1        0.153400   194695.905054    ;  uncertainty r = 0.000160, k = 12.259052
        13        50     1        0.109712   307584.676172    ;  uncertainty r = 0.000061, k = 3.997510
        14        15     1        0.151697   221951.751270    ;  uncertainty r = 0.000088, k = 6.014310
        14        21     1        0.146438   246437.370166    ;  uncertainty r = 0.000120, k = 17.715179
        14        51     1        0.110060   298327.090967    ;  uncertainty r = 0.000134, k = 4.183496
        15        16     1        0.139859   350947.632764    ;  uncertainty r = 0.000040, k = 0.862444
        15        20     1        0.139859   350947.632764    ;  uncertainty r = 0.000040, k = 0.862444
        16        17     1        0.139620   365997.698340    ;  uncertainty r = 0.000023, k = 1.204462
        16        52     1        0.108883   334327.852148    ;  uncertainty r = 0.000023, k = 0.510237
        17        18     1        0.139607   371240.977637    ;  uncertainty r = 0.000016, k = 0.703160
        17        53     1        0.108851   333986.906201    ;  uncertainty r = 0.000010, k = 1.017361
        18        19     1        0.139607   371240.977637    ;  uncertainty r = 0.000016, k = 0.703160
        18        54     1        0.108841   334518.920801    ;  uncertainty r = 0.000012, k = 0.635600
        19        20     1        0.139620   365997.698340    ;  uncertainty r = 0.000023, k = 1.204462
        19        55     1        0.108851   333986.906201    ;  uncertainty r = 0.000010, k = 1.017361
        20        56     1        0.108883   334327.852148    ;  uncertainty r = 0.000023, k = 0.510237
        21        22     1        0.139955   343991.451855    ;  uncertainty r = 0.000126, k = 9.082280
        21        57     1        0.101439   412844.274170    ;  uncertainty r = 0.000047, k = 2.472846
        22        23     1        0.140865   368811.377051    ;  uncertainty r = 0.000044, k = 7.230098
        22        31     1        0.140838   346500.523926    ;  uncertainty r = 0.000177, k = 22.908260
        23        24     1        0.138816   370640.140527    ;  uncertainty r = 0.000068, k = 3.048032
        23        58     1        0.108921   336733.064795    ;  uncertainty r = 0.000029, k = 1.483001
        24        25     1        0.139378   352395.918848    ;  uncertainty r = 0.000125, k = 2.402639
        24        59     1        0.108598   332329.164746    ;  uncertainty r = 0.000022, k = 1.147973
        25        26     1        0.149257   213835.559937    ;  uncertainty r = 0.000082, k = 4.037128
        25        30     1        0.139076   345540.098779    ;  uncertainty r = 0.000116, k = 2.172408
        26        27     1        0.135370   287114.180371    ;  uncertainty r = 0.000024, k = 3.515911
        26        28     1        0.135370   287114.180371    ;  uncertainty r = 0.000024, k = 3.515911
        26        29     1        0.135370   287114.180371    ;  uncertainty r = 0.000024, k = 3.515911
        30        31     1        0.139099   350903.300342    ;  uncertainty r = 0.000165, k = 2.364266
        30        60     1        0.108699   332543.906299    ;  uncertainty r = 0.000028, k = 1.734934
        31        32     1        0.150993   220016.523584    ;  uncertainty r = 0.000073, k = 8.238234
        32        33     1        0.143165   226666.029346    ;  uncertainty r = 0.000172, k = 9.128949
        32        61     1        0.110073   304804.348926    ;  uncertainty r = 0.000100, k = 3.298895

[ angles ]
;       ai        aj        ak funct           theta             cth
         1         2         3     1      125.577065      737.994689    ;  uncertainty theta = 0.004317, k = 0.102836
         1         2         8     1      125.599937      741.622555    ;  uncertainty theta = 0.004085, k = 0.058550
         2         3         4     1      116.278458      423.140007    ;  uncertainty theta = 0.002309, k = 0.060943
         2         3        34     1      114.104263      306.266457    ;  uncertainty theta = 0.003248, k = 0.170202
         2         8         9     1      116.353638      418.721672    ;  uncertainty theta = 0.002401, k = 0.105244
         2         8        42     1      114.400955      299.611422    ;  uncertainty theta = 0.002570, k = 0.219403
         3         2         8     1      116.243874      652.066785    ;  uncertainty theta = 0.003715, k = 0.342513
         3         4         5     1      111.326218      639.730191    ;  uncertainty theta = 0.002029, k = 0.100500
         3         4        35     1      107.125931      443.652179    ;  uncertainty theta = 0.002284, k = 0.059392
         3         4        36     1      107.125931      443.652179    ;  uncertainty theta = 0.002284, k = 0.059392
         4         3        34     1      111.541565      342.742132    ;  uncertainty theta = 0.004040, k = 0.145267
         4         5         6     1      110.322983      569.562641    ;  uncertainty theta = 0.002127, k = 0.090475
         4         5        37     1      107.332237      398.494142    ;  uncertainty theta = 0.002224, k = 0.044521
         4         5        38     1      107.332237      398.494079    ;  uncertainty theta = 0.002224, k = 0.044520
         5         4        35     1      108.284691      402.514960    ;  uncertainty theta = 0.001306, k = 0.052024
         5         4        36     1      108.284691      402.514960    ;  uncertainty theta = 0.001306, k = 0.052024
         5         6         7     1      110.992210      695.405622    ;  uncertainty theta = 0.000719, k = 0.016877
         5         6        39     1      108.956566      400.763210    ;  uncertainty theta = 0.001386, k = 0.040957
         5         6        40     1      108.956566      400.763210    ;  uncertainty theta = 0.001386, k = 0.040957
         6         5        37     1      107.307129      401.329336    ;  uncertainty theta = 0.002827, k = 0.038351
         6         5        38     1      107.307129      401.329336    ;  uncertainty theta = 0.002827, k = 0.038351
         6         7        41     1      106.706642      454.167946    ;  uncertainty theta = 0.000613, k = 0.027776
         7         6        39     1      108.231407      472.804258    ;  uncertainty theta = 0.000633, k = 0.039488
         7         6        40     1      108.231407      472.804258    ;  uncertainty theta = 0.000633, k = 0.039488
         8         9        10     1      110.353943      586.195791    ;  uncertainty theta = 0.002165, k = 0.133564
         8         9        43     1      107.714050      447.996935    ;  uncertainty theta = 0.001495, k = 0.027475
         8         9        44     1      107.714050      447.996935    ;  uncertainty theta = 0.001495, k = 0.027475
         9         8        42     1      112.283592      336.604096    ;  uncertainty theta = 0.003008, k = 0.145289
         9        10        11     1      111.593704      555.269074    ;  uncertainty theta = 0.001020, k = 0.135647
         9        10        33     1      106.667480      566.176421    ;  uncertainty theta = 0.002598, k = 0.049074
         9        10        45     1      107.748428      396.974940    ;  uncertainty theta = 0.002362, k = 0.097226
        10         9        43     1      107.997826      392.780597    ;  uncertainty theta = 0.001296, k = 0.052929
        10         9        44     1      107.997826      392.780597    ;  uncertainty theta = 0.001296, k = 0.052929
        10        11        12     1      109.250107      594.153665    ;  uncertainty theta = 0.002253, k = 0.077514
        10        11        46     1      107.715538      382.824540    ;  uncertainty theta = 0.001580, k = 0.071232
        10        11        47     1      107.715538      382.824508    ;  uncertainty theta = 0.001580, k = 0.071232
        10        33        32     1      110.764000      507.237475    ;  uncertainty theta = 0.006683, k = 0.170333
        11        10        33     1      110.345192      683.713840    ;  uncertainty theta = 0.002437, k = 0.161427
        11        10        45     1      109.340988      400.560254    ;  uncertainty theta = 0.001200, k = 0.066403
        11        12        13     1      109.531601      575.016155    ;  uncertainty theta = 0.001887, k = 0.111836
        11        12        48     1      108.687294      404.607695    ;  uncertainty theta = 0.001709, k = 0.090417
        11        12        49     1      108.687294      404.607695    ;  uncertainty theta = 0.001709, k = 0.090417
        12        11        46     1      109.048744      398.454943    ;  uncertainty theta = 0.000871, k = 0.054277
        12        11        47     1      109.048744      398.454911    ;  uncertainty theta = 0.000871, k = 0.054277
        12        13        14     1      110.668663      549.457211    ;  uncertainty theta = 0.001592, k = 0.164943
        12        13        32     1      109.757545      586.243673    ;  uncertainty theta = 0.001743, k = 0.104953
        12        13        50     1      108.033615      400.292593    ;  uncertainty theta = 0.002769, k = 0.102571
        13        12        48     1      108.106857      388.738073    ;  uncertainty theta = 0.001573, k = 0.068099
        13        12        49     1      108.106857      388.738073    ;  uncertainty theta = 0.001573, k = 0.068099
        13        14        15     1      111.667801      538.117458    ;  uncertainty theta = 0.002515, k = 0.172335
        13        14        21     1      108.357506      705.618040    ;  uncertainty theta = 0.004557, k = 0.110169
        13        14        51     1      107.075500      386.196237    ;  uncertainty theta = 0.002778, k = 0.128014
        13        32        31     1      111.625320      556.167725    ;  uncertainty theta = 0.004213, k = 0.223970
        13        32        33     1      110.977501      663.653483    ;  uncertainty theta = 0.005316, k = 0.090230
        13        32        61     1      107.766983      393.384135    ;  uncertainty theta = 0.003517, k = 0.113971
        14        13        32     1      109.545090      552.757117    ;  uncertainty theta = 0.004180, k = 0.136617
        14        13        50     1      105.964149      389.824868    ;  uncertainty theta = 0.001608, k = 0.093762
        14        15        16     1      119.922928      425.651326    ;  uncertainty theta = 0.003113, k = 0.143043
        14        15        20     1      119.922928      425.651326    ;  uncertainty theta = 0.003113, k = 0.143043
        14        21        22     1      114.218887      391.657507    ;  uncertainty theta = 0.007311, k = 0.149022
        14        21        57     1      110.064499      352.462577    ;  uncertainty theta = 0.003551, k = 0.095281
        15        14        21     1      111.031082      663.623157    ;  uncertainty theta = 0.001203, k = 0.168660
        15        14        51     1      106.340919      410.762138    ;  uncertainty theta = 0.002105, k = 0.098132
        15        16        17     1      121.166641      520.322945    ;  uncertainty theta = 0.001889, k = 0.047519
        15        16        52     1      118.895851      266.729968    ;  uncertainty theta = 0.002264, k = 0.064094
        15        20        19     1      121.166641      520.322945    ;  uncertainty theta = 0.001889, k = 0.047519
        15        20        56     1      118.895851      266.730000    ;  uncertainty theta = 0.002264, k = 0.064094
        16        15        20     1      120.206970      460.017476    ;  uncertainty theta = 0.003029, k = 0.098153
        16        17        18     1      119.685776      513.267201    ;  uncertainty theta = 0.000971, k = 0.012607
        16        17        53     1      120.211227      283.897609    ;  uncertainty theta = 0.001315, k = 0.018226
        17        16        52     1      120.235497      292.477280    ;  uncertainty theta = 0.001696, k = 0.031107
        17        18        19     1      118.246803      526.555213    ;  uncertainty theta = 0.000903, k = 0.024014
        17        18        54     1      120.647278      289.320829    ;  uncertainty theta = 0.001403, k = 0.006566
        18        17        53     1      120.620949      287.638700    ;  uncertainty theta = 0.001444, k = 0.012507
        18        19        20     1      119.685776      513.267201    ;  uncertainty theta = 0.000971, k = 0.012607
        18        19        55     1      120.620949      287.638700    ;  uncertainty theta = 0.001444, k = 0.012507
        19        18        54     1      120.647278      289.320829    ;  uncertainty theta = 0.001403, k = 0.006566
        19        20        56     1      120.235497      292.477248    ;  uncertainty theta = 0.001696, k = 0.031107
        20        19        55     1      120.211227      283.897609    ;  uncertainty theta = 0.001315, k = 0.018226
        21        14        51     1      107.894577      455.839254    ;  uncertainty theta = 0.003753, k = 0.115430
        21        22        23     1      123.141701      575.910018    ;  uncertainty theta = 0.003511, k = 0.120934
        21        22        31     1      122.317627      499.033263    ;  uncertainty theta = 0.010194, k = 0.209541
        22        21        57     1      111.105759      386.782760    ;  uncertainty theta = 0.005516, k = 0.186771
        22        23        24     1      120.478416      516.109066    ;  uncertainty theta = 0.002075, k = 0.087339
        22        23        58     1      119.051010      277.924383    ;  uncertainty theta = 0.004177, k = 0.151846
        22        31        30     1      120.424454      453.080161    ;  uncertainty theta = 0.006616, k = 0.179671
        22        31        32     1      120.375412      356.825784    ;  uncertainty theta = 0.009333, k = 0.368707
        23        22        31     1      118.942970      382.845385    ;  uncertainty theta = 0.005312, k = 0.129487
        23        24        25     1      120.981323      513.612814    ;  uncertainty theta = 0.003622, k = 0.061051
        23        24        59     1      120.001465      286.894165    ;  uncertainty theta = 0.002804, k = 0.033752
        24        23        58     1      120.437340      286.262218    ;  uncertainty theta = 0.002252, k = 0.069391
        24        25        26     1      116.839577      343.993737    ;  uncertainty theta = 0.004979, k = 0.130748
        24        25        30     1      121.948021      476.310950    ;  uncertainty theta = 0.002704, k = 0.206186
        25        24        59     1      118.183693      271.648352    ;  uncertainty theta = 0.003054, k = 0.062508
        25        26        27     1      113.129189      665.135146    ;  uncertainty theta = 0.002597, k = 0.018377
        25        26        28     1      113.129189      665.135146    ;  uncertainty theta = 0.002597, k = 0.018377
        25        26        29     1      113.129189      665.135146    ;  uncertainty theta = 0.002597, k = 0.018377
        25        30        31     1      123.128983      512.049368    ;  uncertainty theta = 0.004008, k = 0.124705
        25        30        60     1      117.799782      273.317648    ;  uncertainty theta = 0.004465, k = 0.082060
        26        25        30     1      116.421097      363.451642    ;  uncertainty theta = 0.005624, k = 0.222079
        27        26        28     1      107.629150      789.646366    ;  uncertainty theta = 0.002059, k = 0.013010
        27        26        29     1      107.629150      789.646366    ;  uncertainty theta = 0.002059, k = 0.013010
        28        26        29     1      107.629150      789.646366    ;  uncertainty theta = 0.002059, k = 0.013010
        30        31        32     1      118.950241      402.591572    ;  uncertainty theta = 0.003729, k = 0.167767
        31        30        60     1      118.101120      267.172941    ;  uncertainty theta = 0.003492, k = 0.082588
        31        32        33     1      108.944107      646.378394    ;  uncertainty theta = 0.006702, k = 0.349200
        31        32        61     1      108.297501      391.435015    ;  uncertainty theta = 0.004361, k = 0.086695
        32        13        50     1      106.452866      398.861877    ;  uncertainty theta = 0.002907, k = 0.084787
        33        10        45     1      106.779495      456.516530    ;  uncertainty theta = 0.005386, k = 0.170316
        33        32        61     1      106.278244      449.051937    ;  uncertainty theta = 0.002859, k = 0.164376
        35         4        36     1      105.661354      319.623802    ;  uncertainty theta = 0.001787, k = 0.029906
        37         5        38     1      105.290688      315.800577    ;  uncertainty theta = 0.003160, k = 0.026255
        39         6        40     1      106.718979      320.777919    ;  uncertainty theta = 0.001097, k = 0.050784
        43         9        44     1      106.242188      323.348581    ;  uncertainty theta = 0.001973, k = 0.033494
        46        11        47     1      105.185684      314.068650    ;  uncertainty theta = 0.000993, k = 0.026189
        48        12        49     1      104.585793      315.269022    ;  uncertainty theta = 0.002093, k = 0.030266

[ dihedrals ] ; propers for gromacs 4.5 or higher, use funct 9
;       ai        aj        ak        al funct           phase               k        pn
         1         2         3         4     9        0.000000        9.166999         1    ;  uncertainty k = 0.779555
         1         2         3         4     9      180.000000        9.150296         2    ;  uncertainty k = 0.238413
         1         2         3         4     9        0.000000        1.524101         3    ;  uncertainty k = 0.167926
         1         2         3         4     9      180.000000        0.198027         4    ;  uncertainty k = 0.167556
         1         2         3        34     9        0.000000        2.822374         1    ;  uncertainty k = 0.634915
         1         2         3        34     9      180.000000       10.941550         2    ;  uncertainty k = 0.172867
         1         2         3        34     9        0.000000        1.432860         3    ;  uncertainty k = 0.267188
         1         2         3        34     9      180.000000       -0.411439         4    ;  uncertainty k = 0.189125
         1         2         8         9     9        0.000000        9.941761         1    ;  uncertainty k = 0.921483
         1         2         8         9     9      180.000000        8.964745         2    ;  uncertainty k = 0.386937
         1         2         8         9     9        0.000000        1.583144         3    ;  uncertainty k = 0.158089
         1         2         8         9     9      180.000000        0.081889         4    ;  uncertainty k = 0.243584
         1         2         8        42     9        0.000000        2.756759         1    ;  uncertainty k = 0.575260
         1         2         8        42     9      180.000000       10.534062         2    ;  uncertainty k = 0.166458
         1         2         8        42     9        0.000000        1.386490         3    ;  uncertainty k = 0.240553
         1         2         8        42     9      180.000000       -0.395777         4    ;  uncertainty k = 0.218526
         2         3         4         5     9        0.000000       -1.359838         1    ;  uncertainty k = 0.283729
         2         3         4         5     9      180.000000       -0.462453         2    ;  uncertainty k = 0.296641
         2         3         4         5     9        0.000000        0.465416         3    ;  uncertainty k = 0.172645
         2         3         4         5     9      180.000000        0.414197         4    ;  uncertainty k = 0.057940
         2         3         4        35     9        0.000000        0.988214         1    ;  uncertainty k = 0.265738
         2         3         4        35     9      180.000000       -1.094031         2    ;  uncertainty k = 0.366456
         2         3         4        35     9        0.000000        0.254316         3    ;  uncertainty k = 0.093918
         2         3         4        35     9      180.000000        0.324937         4    ;  uncertainty k = 0.049903
         2         3         4        36     9        0.000000        0.988214         1    ;  uncertainty k = 0.265738
         2         3         4        36     9      180.000000       -1.094031         2    ;  uncertainty k = 0.366456
         2         3         4        36     9        0.000000        0.254316         3    ;  uncertainty k = 0.093918
         2         3         4        36     9      180.000000        0.324937         4    ;  uncertainty k = 0.049903
         2         8         9        10     9        0.000000       -0.277956         1    ;  uncertainty k = 0.697941
         2         8         9        10     9      180.000000       -0.386940         2    ;  uncertainty k = 0.642111
         2         8         9        10     9        0.000000       -0.063636         3    ;  uncertainty k = 0.203676
         2         8         9        10     9      180.000000        0.571751         4    ;  uncertainty k = 0.099786
         2         8         9        43     9        0.000000        1.148224         1    ;  uncertainty k = 0.163935
         2         8         9        43     9      180.000000       -1.015256         2    ;  uncertainty k = 0.387484
         2         8         9        43     9        0.000000        0.059296         3    ;  uncertainty k = 0.076004
         2         8         9        43     9      180.000000        0.295516         4    ;  uncertainty k = 0.090831
         2         8         9        44     9        0.000000        1.148224         1    ;  uncertainty k = 0.163935
         2         8         9        44     9      180.000000       -1.015256         2    ;  uncertainty k = 0.387484
         2         8         9        44     9        0.000000        0.059296         3    ;  uncertainty k = 0.076004
         2         8         9        44     9      180.000000        0.295516         4    ;  uncertainty k = 0.090831
         3         2         8         9     9        0.000000       10.037499         1    ;  uncertainty k = 0.792901
         3         2         8         9     9      180.000000       10.658477         2    ;  uncertainty k = 0.305179
         3         2         8         9     9        0.000000        0.725602         3    ;  uncertainty k = 0.359200
         3         2         8         9     9      180.000000       -0.520520         4    ;  uncertainty k = 0.262693
         3         2         8        42     9        0.000000        1.218049         1    ;  uncertainty k = 0.724253
         3         2         8        42     9      180.000000        5.597783         2    ;  uncertainty k = 0.359728
         3         2         8        42     9        0.000000        0.973401         3    ;  uncertainty k = 0.467153
         3         2         8        42     9      180.000000       -0.107656         4    ;  uncertainty k = 0.257186
         3         4         5         6     9        0.000000       -5.306369         1    ;  uncertainty k = 0.474429
         3         4         5         6     9      180.000000       -0.937991         2    ;  uncertainty k = 0.380884
         3         4         5         6     9        0.000000        1.717777         3    ;  uncertainty k = 0.229606
         3         4         5         6     9      180.000000       -0.329425         4    ;  uncertainty k = 0.176591
         3         4         5        37     9        0.000000       -0.637082         1    ;  uncertainty k = 0.458762
         3         4         5        37     9      180.000000       -1.753603         2    ;  uncertainty k = 0.447123
         3         4         5        37     9        0.000000        1.326401         3    ;  uncertainty k = 0.161111
         3         4         5        37     9      180.000000       -0.065320         4    ;  uncertainty k = 0.100239
         3         4         5        38     9        0.000000       -0.637082         1    ;  uncertainty k = 0.458762
         3         4         5        38     9      180.000000       -1.753603         2    ;  uncertainty k = 0.447123
         3         4         5        38     9        0.000000        1.326401         3    ;  uncertainty k = 0.161111
         3         4         5        38     9      180.000000       -0.065320         4    ;  uncertainty k = 0.100239
         4         3         2         8     9        0.000000        9.898567         1    ;  uncertainty k = 0.645202
         4         3         2         8     9      180.000000       10.926364         2    ;  uncertainty k = 0.457641
         4         3         2         8     9        0.000000        0.731344         3    ;  uncertainty k = 0.323717
         4         3         2         8     9      180.000000       -0.429275         4    ;  uncertainty k = 0.177933
         4         5         6         7     9        0.000000       -5.387492         1    ;  uncertainty k = 0.754545
         4         5         6         7     9      180.000000       -1.200749         2    ;  uncertainty k = 0.513889
         4         5         6         7     9        0.000000        2.150246         3    ;  uncertainty k = 0.184090
         4         5         6         7     9      180.000000       -0.703650         4    ;  uncertainty k = 0.227183
         4         5         6        39     9        0.000000       -1.670679         1    ;  uncertainty k = 0.423451
         4         5         6        39     9      180.000000       -0.256978         2    ;  uncertainty k = 0.224774
         4         5         6        39     9        0.000000        0.833114         3    ;  uncertainty k = 0.070618
         4         5         6        39     9      180.000000       -0.344175         4    ;  uncertainty k = 0.108827
         4         5         6        40     9        0.000000       -1.670679         1    ;  uncertainty k = 0.423451
         4         5         6        40     9      180.000000       -0.256978         2    ;  uncertainty k = 0.224774
         4         5         6        40     9        0.000000        0.833114         3    ;  uncertainty k = 0.070618
         4         5         6        40     9      180.000000       -0.344175         4    ;  uncertainty k = 0.108827
         5         4         3        34     9        0.000000        1.202361         1    ;  uncertainty k = 0.349016
         5         4         3        34     9      180.000000       -2.450049         2    ;  uncertainty k = 0.230865
         5         4         3        34     9        0.000000        0.434003         3    ;  uncertainty k = 0.095479
         5         4         3        34     9      180.000000        0.040853         4    ;  uncertainty k = 0.036956
         5         6         7        41     9        0.000000       12.608953         1    ;  uncertainty k = 0.159901
         5         6         7        41     9      180.000000       -2.670557         2    ;  uncertainty k = 0.199588
         5         6         7        41     9        0.000000        1.149528         3    ;  uncertainty k = 0.144215
         5         6         7        41     9      180.000000        0.311985         4    ;  uncertainty k = 0.104556
         6         5         4        35     9        0.000000       -1.557878         1    ;  uncertainty k = 0.679500
         6         5         4        35     9      180.000000       -0.205785         2    ;  uncertainty k = 0.198232
         6         5         4        35     9        0.000000        0.757873         3    ;  uncertainty k = 0.095355
         6         5         4        35     9      180.000000       -0.369969         4    ;  uncertainty k = 0.096114
         6         5         4        36     9        0.000000       -1.557878         1    ;  uncertainty k = 0.679500
         6         5         4        36     9      180.000000       -0.205785         2    ;  uncertainty k = 0.198232
         6         5         4        36     9        0.000000        0.757873         3    ;  uncertainty k = 0.095355
         6         5         4        36     9      180.000000       -0.369969         4    ;  uncertainty k = 0.096114
         7         6         5        37     9        0.000000       -1.543464         1    ;  uncertainty k = 0.440475
         7         6         5        37     9      180.000000       -0.932783         2    ;  uncertainty k = 0.427219
         7         6         5        37     9        0.000000        1.461635         3    ;  uncertainty k = 0.079076
         7         6         5        37     9      180.000000       -0.031525         4    ;  uncertainty k = 0.083469
         7         6         5        38     9        0.000000       -1.543464         1    ;  uncertainty k = 0.440475
         7         6         5        38     9      180.000000       -0.932783         2    ;  uncertainty k = 0.427219
         7         6         5        38     9        0.000000        1.461635         3    ;  uncertainty k = 0.079076
         7         6         5        38     9      180.000000       -0.031525         4    ;  uncertainty k = 0.083469
         8         2         3        34     9        0.000000        1.056149         1    ;  uncertainty k = 0.864708
         8         2         3        34     9      180.000000        5.744400         2    ;  uncertainty k = 0.336807
         8         2         3        34     9        0.000000        1.023239         3    ;  uncertainty k = 0.424267
         8         2         3        34     9      180.000000       -0.070111         4    ;  uncertainty k = 0.285665
         8         9        10        11     9        0.000000       -1.615012         1    ;  uncertainty k = 1.141610
         8         9        10        11     9      180.000000        0.726411         2    ;  uncertainty k = 0.143521
         8         9        10        11     9        0.000000        1.127762         3    ;  uncertainty k = 0.254797
         8         9        10        11     9      180.000000       -0.239296         4    ;  uncertainty k = 0.280643
         8         9        10        33     9        0.000000       -0.175823         1    ;  uncertainty k = 0.515975
         8         9        10        33     9      180.000000       -2.320967         2    ;  uncertainty k = 0.523974
         8         9        10        33     9        0.000000        1.820105         3    ;  uncertainty k = 0.342913
         8         9        10        33     9      180.000000       -0.298008         4    ;  uncertainty k = 0.083600
         8         9        10        45     9        0.000000       -0.038332         1    ;  uncertainty k = 0.702515
         8         9        10        45     9      180.000000       -0.875959         2    ;  uncertainty k = 0.341744
         8         9        10        45     9        0.000000        0.877365         3    ;  uncertainty k = 0.245682
         8         9        10        45     9      180.000000       -0.106598         4    ;  uncertainty k = 0.049812
         9        10        11        12     9        0.000000       -2.950527         1    ;  uncertainty k = 0.362111
         9        10        11        12     9      180.000000        0.290457         2    ;  uncertainty k = 0.339033
         9        10        11        12     9        0.000000        0.427445         3    ;  uncertainty k = 0.096639
         9        10        11        12     9      180.000000       -0.344128         4    ;  uncertainty k = 0.099615
         9        10        11        46     9        0.000000       -0.731155         1    ;  uncertainty k = 0.301018
         9        10        11        46     9      180.000000       -0.314835         2    ;  uncertainty k = 0.283147
         9        10        11        46     9        0.000000        0.203926         3    ;  uncertainty k = 0.073881
         9        10        11        46     9      180.000000       -0.230723         4    ;  uncertainty k = 0.076502
         9        10        11        47     9        0.000000       -0.731153         1    ;  uncertainty k = 0.301020
         9        10        11        47     9      180.000000       -0.314835         2    ;  uncertainty k = 0.283146
         9        10        11        47     9        0.000000        0.203926         3    ;  uncertainty k = 0.073882
         9        10        11        47     9      180.000000       -0.230722         4    ;  uncertainty k = 0.076502
         9        10        33        32     9        0.000000       -5.020753         1    ;  uncertainty k = 0.875817
         9        10        33        32     9      180.000000        0.184944         2    ;  uncertainty k = 0.350155
         9        10        33        32     9        0.000000        0.568216         3    ;  uncertainty k = 0.369623
         9        10        33        32     9      180.000000       -0.090658         4    ;  uncertainty k = 0.194430
        10         9         8        42     9        0.000000        3.106500         1    ;  uncertainty k = 0.256749
        10         9         8        42     9      180.000000       -2.854974         2    ;  uncertainty k = 0.229350
        10         9         8        42     9        0.000000        0.618533         3    ;  uncertainty k = 0.090886
        10         9         8        42     9      180.000000       -0.009829         4    ;  uncertainty k = 0.076865
        10        11        12        13     9        0.000000       -4.853349         1    ;  uncertainty k = 1.068566
        10        11        12        13     9      180.000000       -0.591040         2    ;  uncertainty k = 0.606891
        10        11        12        13     9        0.000000        1.233136         3    ;  uncertainty k = 0.228943
        10        11        12        13     9      180.000000       -0.965384         4    ;  uncertainty k = 0.188552
        10        11        12        48     9        0.000000       -1.058143         1    ;  uncertainty k = 0.653269
        10        11        12        48     9      180.000000       -0.568066         2    ;  uncertainty k = 0.236570
        10        11        12        48     9        0.000000        0.416068         3    ;  uncertainty k = 0.156577
        10        11        12        48     9      180.000000        0.039269         4    ;  uncertainty k = 0.032741
        10        11        12        49     9        0.000000       -1.058143         1    ;  uncertainty k = 0.653269
        10        11        12        49     9      180.000000       -0.568066         2    ;  uncertainty k = 0.236570
        10        11        12        49     9        0.000000        0.416068         3    ;  uncertainty k = 0.156577
        10        11        12        49     9      180.000000        0.039269         4    ;  uncertainty k = 0.032741
        10        33        32        13     9        0.000000        4.310309         1    ;  uncertainty k = 1.437824
        10        33        32        13     9      180.000000       -1.899359         2    ;  uncertainty k = 1.132429
        10        33        32        13     9        0.000000        0.063288         3    ;  uncertainty k = 0.324991
        10        33        32        13     9      180.000000        0.032842         4    ;  uncertainty k = 0.194675
        10        33        32        31     9        0.000000       -3.220819         1    ;  uncertainty k = 1.612120
        10        33        32        31     9      180.000000       -1.058477         2    ;  uncertainty k = 0.854942
        10        33        32        31     9        0.000000        0.894088         3    ;  uncertainty k = 0.562198
        10        33        32        31     9      180.000000       -0.103093         4    ;  uncertainty k = 0.173317
        10        33        32        61     9        0.000000       -1.684845         1    ;  uncertainty k = 0.488271
        10        33        32        61     9      180.000000       -0.464945         2    ;  uncertainty k = 0.318916
        10        33        32        61     9        0.000000        0.421504         3    ;  uncertainty k = 0.090617
        10        33        32        61     9      180.000000       -0.106413         4    ;  uncertainty k = 0.210661
        11        10         9        43     9        0.000000       -1.046576         1    ;  uncertainty k = 0.389763
        11        10         9        43     9      180.000000       -0.209756         2    ;  uncertainty k = 0.297149
        11        10         9        43     9        0.000000        0.297530         3    ;  uncertainty k = 0.037064
        11        10         9        43     9      180.000000       -0.176103         4    ;  uncertainty k = 0.090740
        11        10         9        44     9        0.000000       -1.046576         1    ;  uncertainty k = 0.389763
        11        10         9        44     9      180.000000       -0.209756         2    ;  uncertainty k = 0.297149
        11        10         9        44     9        0.000000        0.297530         3    ;  uncertainty k = 0.037064
        11        10         9        44     9      180.000000       -0.176103         4    ;  uncertainty k = 0.090740
        11        10        33        32     9        0.000000        2.481193         1    ;  uncertainty k = 2.756076
        11        10        33        32     9      180.000000       -1.350972         2    ;  uncertainty k = 0.484299
        11        10        33        32     9        0.000000       -0.049764         3    ;  uncertainty k = 0.600794
        11        10        33        32     9      180.000000        0.030288         4    ;  uncertainty k = 0.161425
        11        12        13        14     9        0.000000       -3.443878         1    ;  uncertainty k = 0.605593
        11        12        13        14     9      180.000000        0.062543         2    ;  uncertainty k = 0.168824
        11        12        13        14     9        0.000000        1.152455         3    ;  uncertainty k = 0.142781
        11        12        13        14     9      180.000000       -0.543040         4    ;  uncertainty k = 0.159797
        11        12        13        32     9        0.000000       -3.551718         1    ;  uncertainty k = 0.291227
        11        12        13        32     9      180.000000        0.164559         2    ;  uncertainty k = 0.394674
        11        12        13        32     9        0.000000        1.025462         3    ;  uncertainty k = 0.171956
        11        12        13        32     9      180.000000       -0.793434         4    ;  uncertainty k = 0.066548
        11        12        13        50     9        0.000000       -2.393881         1    ;  uncertainty k = 0.521607
        11        12        13        50     9      180.000000        0.121955         2    ;  uncertainty k = 0.258371
        11        12        13        50     9        0.000000        0.024213         3    ;  uncertainty k = 0.078636
        11        12        13        50     9      180.000000       -0.101045         4    ;  uncertainty k = 0.083409
        12        11        10        33     9        0.000000       -2.274599         1    ;  uncertainty k = 0.795523
        12        11        10        33     9      180.000000       -1.060770         2    ;  uncertainty k = 0.553189
        12        11        10        33     9        0.000000        1.430774         3    ;  uncertainty k = 0.428555
        12        11        10        33     9      180.000000       -0.509748         4    ;  uncertainty k = 0.318955
        12        11        10        45     9        0.000000        0.642348         1    ;  uncertainty k = 0.796172
        12        11        10        45     9      180.000000       -1.861998         2    ;  uncertainty k = 0.717607
        12        11        10        45     9        0.000000       -0.284752         3    ;  uncertainty k = 0.144452
        12        11        10        45     9      180.000000        0.139037         4    ;  uncertainty k = 0.079017
        12        13        14        15     9        0.000000       -0.461049         1    ;  uncertainty k = 0.381283
        12        13        14        15     9      180.000000        0.080823         2    ;  uncertainty k = 0.232856
        12        13        14        15     9        0.000000        1.015758         3    ;  uncertainty k = 0.130571
        12        13        14        15     9      180.000000       -0.026766         4    ;  uncertainty k = 0.089496
        12        13        14        21     9        0.000000       -2.649435         1    ;  uncertainty k = 0.376990
        12        13        14        21     9      180.000000        0.575633         2    ;  uncertainty k = 0.355541
        12        13        14        21     9        0.000000        1.148062         3    ;  uncertainty k = 0.198879
        12        13        14        21     9      180.000000       -0.322936         4    ;  uncertainty k = 0.282820
        12        13        14        51     9        0.000000       -0.245811         1    ;  uncertainty k = 0.386688
        12        13        14        51     9      180.000000       -0.315547         2    ;  uncertainty k = 0.172059
        12        13        14        51     9        0.000000        0.086687         3    ;  uncertainty k = 0.150676
        12        13        14        51     9      180.000000       -0.119145         4    ;  uncertainty k = 0.084487
        12        13        32        31     9        0.000000       -1.766778         1    ;  uncertainty k = 0.973516
        12        13        32        31     9      180.000000       -0.718703         2    ;  uncertainty k = 0.145827
        12        13        32        31     9        0.000000        0.620918         3    ;  uncertainty k = 0.188101
        12        13        32        31     9      180.000000       -0.232127         4    ;  uncertainty k = 0.132638
        12        13        32        33     9        0.000000       -1.597475         1    ;  uncertainty k = 0.895505
        12        13        32        33     9      180.000000       -1.463039         2    ;  uncertainty k = 0.974310
        12        13        32        33     9        0.000000        0.895087         3    ;  uncertainty k = 0.269784
        12        13        32        33     9      180.000000       -0.031597         4    ;  uncertainty k = 0.250749
        12        13        32        61     9        0.000000        0.363062         1    ;  uncertainty k = 0.565973
        12        13        32        61     9      180.000000       -0.520923         2    ;  uncertainty k = 0.414609
        12        13        32        61     9        0.000000       -0.168774         3    ;  uncertainty k = 0.117464
        12        13        32        61     9      180.000000       -0.047662         4    ;  uncertainty k = 0.135136
        13        12        11        46     9        0.000000       -0.789552         1    ;  uncertainty k = 0.235032
        13        12        11        46     9      180.000000       -0.691687         2    ;  uncertainty k = 0.213781
        13        12        11        46     9        0.000000        0.412213         3    ;  uncertainty k = 0.128820
        13        12        11        46     9      180.000000       -0.048909         4    ;  uncertainty k = 0.116103
        13        12        11        47     9        0.000000       -0.789551         1    ;  uncertainty k = 0.235032
        13        12        11        47     9      180.000000       -0.691686         2    ;  uncertainty k = 0.213781
        13        12        11        47     9        0.000000        0.412213         3    ;  uncertainty k = 0.128820
        13        12        11        47     9      180.000000       -0.048909         4    ;  uncertainty k = 0.116103
        13        14        15        16     9        0.000000       -0.128230         1    ;  uncertainty k = 0.712210
        13        14        15        16     9      180.000000        1.832448         2    ;  uncertainty k = 0.216282
        13        14        15        16     9        0.000000        0.279323         3    ;  uncertainty k = 0.140015
        13        14        15        16     9      180.000000        0.244071         4    ;  uncertainty k = 0.076873
        13        14        15        20     9        0.000000       -0.128230         1    ;  uncertainty k = 0.712210
        13        14        15        20     9      180.000000        1.832448         2    ;  uncertainty k = 0.216282
        13        14        15        20     9        0.000000        0.279323         3    ;  uncertainty k = 0.140015
        13        14        15        20     9      180.000000        0.244071         4    ;  uncertainty k = 0.076873
        13        14        21        22     9        0.000000        0.719689         1    ;  uncertainty k = 1.244020
        13        14        21        22     9      180.000000        0.209000         2    ;  uncertainty k = 0.601735
        13        14        21        22     9        0.000000        0.378517         3    ;  uncertainty k = 0.264052
        13        14        21        22     9      180.000000        0.142878         4    ;  uncertainty k = 0.153977
        13        14        21        57     9        0.000000        3.620496         1    ;  uncertainty k = 0.960159
        13        14        21        57     9      180.000000       -1.866275         2    ;  uncertainty k = 1.297277
        13        14        21        57     9        0.000000        0.466328         3    ;  uncertainty k = 0.292683
        13        14        21        57     9      180.000000       -0.015211         4    ;  uncertainty k = 0.082184
        13        32        31        22     9        0.000000        0.242410         1    ;  uncertainty k = 2.397408
        13        32        31        22     9      180.000000       -0.318795         2    ;  uncertainty k = 1.365943
        13        32        31        22     9        0.000000        0.084199         3    ;  uncertainty k = 0.707004
        13        32        31        22     9      180.000000        0.713415         4    ;  uncertainty k = 0.239938
        13        32        31        30     9        0.000000       -1.545739         1    ;  uncertainty k = 0.808284
        13        32        31        30     9      180.000000       -0.098598         2    ;  uncertainty k = 0.594679
        13        32        31        30     9        0.000000       -0.228474         3    ;  uncertainty k = 0.118069
        13        32        31        30     9      180.000000        0.425604         4    ;  uncertainty k = 0.113282
        14        13        12        48     9        0.000000        0.094101         1    ;  uncertainty k = 0.301634
        14        13        12        48     9      180.000000       -0.638647         2    ;  uncertainty k = 0.223261
        14        13        12        48     9        0.000000        0.477645         3    ;  uncertainty k = 0.098813
        14        13        12        48     9      180.000000       -0.051282         4    ;  uncertainty k = 0.102093
        14        13        12        49     9        0.000000        0.094101         1    ;  uncertainty k = 0.301634
        14        13        12        49     9      180.000000       -0.638647         2    ;  uncertainty k = 0.223261
        14        13        12        49     9        0.000000        0.477645         3    ;  uncertainty k = 0.098813
        14        13        12        49     9      180.000000       -0.051282         4    ;  uncertainty k = 0.102093
        14        13        32        31     9        0.000000        1.020906         1    ;  uncertainty k = 1.287081
        14        13        32        31     9      180.000000       -2.127651         2    ;  uncertainty k = 0.312599
        14        13        32        31     9        0.000000        0.266223         3    ;  uncertainty k = 0.283237
        14        13        32        31     9      180.000000       -0.130171         4    ;  uncertainty k = 0.142539
        14        13        32        33     9        0.000000       -1.055808         1    ;  uncertainty k = 1.608217
        14        13        32        33     9      180.000000       -3.328519         2    ;  uncertainty k = 1.575304
        14        13        32        33     9        0.000000        0.629326         3    ;  uncertainty k = 0.265985
        14        13        32        33     9      180.000000        0.113381         4    ;  uncertainty k = 0.328890
        14        13        32        61     9        0.000000        0.827754         1    ;  uncertainty k = 0.782495
        14        13        32        61     9      180.000000       -1.073944         2    ;  uncertainty k = 0.477122
        14        13        32        61     9        0.000000       -0.239465         3    ;  uncertainty k = 0.093001
        14        13        32        61     9      180.000000        0.001972         4    ;  uncertainty k = 0.193082
        14        15        16        17     9        0.000000        0.312413         1    ;  uncertainty k = 0.242918
        14        15        16        17     9      180.000000        8.638334         2    ;  uncertainty k = 0.468596
        14        15        16        17     9        0.000000        1.448800         3    ;  uncertainty k = 0.340804
        14        15        16        17     9      180.000000        1.905016         4    ;  uncertainty k = 0.200484
        14        15        16        52     9        0.000000        0.035753         1    ;  uncertainty k = 0.305801
        14        15        16        52     9      180.000000        7.827039         2    ;  uncertainty k = 0.268348
        14        15        16        52     9        0.000000        0.557555         3    ;  uncertainty k = 0.370060
        14        15        16        52     9      180.000000        0.865304         4    ;  uncertainty k = 0.172707
        14        15        20        19     9        0.000000        0.312413         1    ;  uncertainty k = 0.242918
        14        15        20        19     9      180.000000        8.638334         2    ;  uncertainty k = 0.468596
        14        15        20        19     9        0.000000        1.448800         3    ;  uncertainty k = 0.340804
        14        15        20        19     9      180.000000        1.905016         4    ;  uncertainty k = 0.200484
        14        15        20        56     9        0.000000        0.035753         1    ;  uncertainty k = 0.305801
        14        15        20        56     9      180.000000        7.827039         2    ;  uncertainty k = 0.268348
        14        15        20        56     9        0.000000        0.557555         3    ;  uncertainty k = 0.370060
        14        15        20        56     9      180.000000        0.865304         4    ;  uncertainty k = 0.172707
        14        21        22        23     9        0.000000        0.472912         1    ;  uncertainty k = 0.815216
        14        21        22        23     9      180.000000        4.888522         2    ;  uncertainty k = 0.752070
        14        21        22        23     9        0.000000        0.397595         3    ;  uncertainty k = 0.545066
        14        21        22        23     9      180.000000        0.383807         4    ;  uncertainty k = 0.280593
        14        21        22        31     9        0.000000        4.144113         1    ;  uncertainty k = 2.103607
        14        21        22        31     9      180.000000        2.453511         2    ;  uncertainty k = 0.610740
        14        21        22        31     9        0.000000        0.023719         3    ;  uncertainty k = 0.473401
        14        21        22        31     9      180.000000        0.682039         4    ;  uncertainty k = 0.226903
        15        14        13        32     9        0.000000       -0.717353         1    ;  uncertainty k = 0.748357
        15        14        13        32     9      180.000000       -0.367659         2    ;  uncertainty k = 0.370216
        15        14        13        32     9        0.000000        0.397290         3    ;  uncertainty k = 0.216594
        15        14        13        32     9      180.000000       -0.018207         4    ;  uncertainty k = 0.136272
        15        14        13        50     9        0.000000        0.530297         1    ;  uncertainty k = 0.246710
        15        14        13        50     9      180.000000        0.121251         2    ;  uncertainty k = 0.617132
        15        14        13        50     9        0.000000        0.451811         3    ;  uncertainty k = 0.081496
        15        14        13        50     9      180.000000       -0.031873         4    ;  uncertainty k = 0.108858
        15        14        21        22     9        0.000000       -1.240810         1    ;  uncertainty k = 0.913860
        15        14        21        22     9      180.000000        0.100980         2    ;  uncertainty k = 0.285956
        15        14        21        22     9        0.000000        1.048824         3    ;  uncertainty k = 0.262246
        15        14        21        22     9      180.000000        0.199554         4    ;  uncertainty k = 0.098576
        15        14        21        57     9        0.000000        4.878358         1    ;  uncertainty k = 0.569249
        15        14        21        57     9      180.000000       -1.058872         2    ;  uncertainty k = 0.283859
        15        14        21        57     9        0.000000        0.413858         3    ;  uncertainty k = 0.297007
        15        14        21        57     9      180.000000       -0.032690         4    ;  uncertainty k = 0.182555
        15        16        17        18     9        0.000000       -0.073185         1    ;  uncertainty k = 0.135863
        15        16        17        18     9      180.000000       13.840581         2    ;  uncertainty k = 0.218470
        15        16        17        18     9        0.000000       -0.942124         3    ;  uncertainty k = 0.500159
        15        16        17        18     9      180.000000        0.720226         4    ;  uncertainty k = 0.249573
        15        16        17        53     9        0.000000        0.078937         1    ;  uncertainty k = 0.238410
        15        16        17        53     9      180.000000        7.523904         2    ;  uncertainty k = 0.411008
        15        16        17        53     9        0.000000        1.486224         3    ;  uncertainty k = 0.266910
        15        16        17        53     9      180.000000        1.791252         4    ;  uncertainty k = 0.130361
        15        20        19        18     9        0.000000       -0.073185         1    ;  uncertainty k = 0.135863
        15        20        19        18     9      180.000000       13.840581         2    ;  uncertainty k = 0.218470
        15        20        19        18     9        0.000000       -0.942124         3    ;  uncertainty k = 0.500159
        15        20        19        18     9      180.000000        0.720226         4    ;  uncertainty k = 0.249573
        15        20        19        55     9        0.000000        0.078937         1    ;  uncertainty k = 0.238410
        15        20        19        55     9      180.000000        7.523904         2    ;  uncertainty k = 0.411008
        15        20        19        55     9        0.000000        1.486224         3    ;  uncertainty k = 0.266910
        15        20        19        55     9      180.000000        1.791252         4    ;  uncertainty k = 0.130361
        16        15        14        21     9        0.000000       -0.590756         1    ;  uncertainty k = 0.525590
        16        15        14        21     9      180.000000        2.732820         2    ;  uncertainty k = 0.257489
        16        15        14        21     9        0.000000        0.629229         3    ;  uncertainty k = 0.228491
        16        15        14        21     9      180.000000        0.435378         4    ;  uncertainty k = 0.023802
        16        15        14        51     9        0.000000       -0.618195         1    ;  uncertainty k = 0.243535
        16        15        14        51     9      180.000000        2.285545         2    ;  uncertainty k = 0.337300
        16        15        14        51     9        0.000000        0.482603         3    ;  uncertainty k = 0.112819
        16        15        14        51     9      180.000000        0.236140         4    ;  uncertainty k = 0.049742
        16        15        20        19     9        0.000000       -0.244750         1    ;  uncertainty k = 0.085030
        16        15        20        19     9      180.000000       11.550238         2    ;  uncertainty k = 0.281782
        16        15        20        19     9        0.000000       -0.471965         3    ;  uncertainty k = 0.307308
        16        15        20        19     9      180.000000        0.819629         4    ;  uncertainty k = 0.339588
        16        15        20        56     9        0.000000        0.103785         1    ;  uncertainty k = 0.115164
        16        15        20        56     9      180.000000        7.232566         2    ;  uncertainty k = 0.479326
        16        15        20        56     9        0.000000        1.441609         3    ;  uncertainty k = 0.358039
        16        15        20        56     9      180.000000        1.626932         4    ;  uncertainty k = 0.180627
        16        17        18        19     9        0.000000        0.003338         1    ;  uncertainty k = 0.036528
        16        17        18        19     9      180.000000       15.061872         2    ;  uncertainty k = 0.266781
        16        17        18        19     9        0.000000       -1.241530         3    ;  uncertainty k = 0.510933
        16        17        18        19     9      180.000000        0.486539         4    ;  uncertainty k = 0.300059
        16        17        18        54     9        0.000000        0.055743         1    ;  uncertainty k = 0.094833
        16        17        18        54     9      180.000000        7.490470         2    ;  uncertainty k = 0.333391
        16        17        18        54     9        0.000000        1.467121         3    ;  uncertainty k = 0.292765
        16        17        18        54     9      180.000000        1.797081         4    ;  uncertainty k = 0.179698
        17        16        15        20     9        0.000000       -0.244750         1    ;  uncertainty k = 0.085030
        17        16        15        20     9      180.000000       11.550238         2    ;  uncertainty k = 0.281782
        17        16        15        20     9        0.000000       -0.471965         3    ;  uncertainty k = 0.307308
        17        16        15        20     9      180.000000        0.819629         4    ;  uncertainty k = 0.339588
        17        18        19        20     9        0.000000        0.003338         1    ;  uncertainty k = 0.036528
        17        18        19        20     9      180.000000       15.061872         2    ;  uncertainty k = 0.266781
        17        18        19        20     9        0.000000       -1.241530         3    ;  uncertainty k = 0.510933
        17        18        19        20     9      180.000000        0.486539         4    ;  uncertainty k = 0.300059
        17        18        19        55     9        0.000000        0.045944         1    ;  uncertainty k = 0.040455
        17        18        19        55     9      180.000000        7.527539         2    ;  uncertainty k = 0.325490
        17        18        19        55     9        0.000000        1.433627         3    ;  uncertainty k = 0.327115
        17        18        19        55     9      180.000000        1.790207         4    ;  uncertainty k = 0.158460
        18        17        16        52     9        0.000000        0.053110         1    ;  uncertainty k = 0.076538
        18        17        16        52     9      180.000000        7.946075         2    ;  uncertainty k = 0.338884
        18        17        16        52     9        0.000000        1.427770         3    ;  uncertainty k = 0.326160
        18        17        16        52     9      180.000000        1.836126         4    ;  uncertainty k = 0.159402
        18        19        20        56     9        0.000000        0.053110         1    ;  uncertainty k = 0.076538
        18        19        20        56     9      180.000000        7.946075         2    ;  uncertainty k = 0.338884
        18        19        20        56     9        0.000000        1.427770         3    ;  uncertainty k = 0.326160
        18        19        20        56     9      180.000000        1.836126         4    ;  uncertainty k = 0.159402
        19        18        17        53     9        0.000000        0.045944         1    ;  uncertainty k = 0.040455
        19        18        17        53     9      180.000000        7.527539         2    ;  uncertainty k = 0.325490
        19        18        17        53     9        0.000000        1.433627         3    ;  uncertainty k = 0.327115
        19        18        17        53     9      180.000000        1.790207         4    ;  uncertainty k = 0.158460
        20        15        14        21     9        0.000000       -0.590756         1    ;  uncertainty k = 0.525590
        20        15        14        21     9      180.000000        2.732820         2    ;  uncertainty k = 0.257489
        20        15        14        21     9        0.000000        0.629229         3    ;  uncertainty k = 0.228491
        20        15        14        21     9      180.000000        0.435378         4    ;  uncertainty k = 0.023802
        20        15        14        51     9        0.000000       -0.618195         1    ;  uncertainty k = 0.243535
        20        15        14        51     9      180.000000        2.285545         2    ;  uncertainty k = 0.337300
        20        15        14        51     9        0.000000        0.482603         3    ;  uncertainty k = 0.112819
        20        15        14        51     9      180.000000        0.236140         4    ;  uncertainty k = 0.049742
        20        15        16        52     9        0.000000        0.103785         1    ;  uncertainty k = 0.115164
        20        15        16        52     9      180.000000        7.232566         2    ;  uncertainty k = 0.479326
        20        15        16        52     9        0.000000        1.441609         3    ;  uncertainty k = 0.358039
        20        15        16        52     9      180.000000        1.626932         4    ;  uncertainty k = 0.180627
        20        19        18        54     9        0.000000        0.055743         1    ;  uncertainty k = 0.094833
        20        19        18        54     9      180.000000        7.490470         2    ;  uncertainty k = 0.333391
        20        19        18        54     9        0.000000        1.467121         3    ;  uncertainty k = 0.292765
        20        19        18        54     9      180.000000        1.797081         4    ;  uncertainty k = 0.179698
        21        14        13        32     9        0.000000       -0.007594         1    ;  uncertainty k = 2.197312
        21        14        13        32     9      180.000000       -1.143081         2    ;  uncertainty k = 0.276444
        21        14        13        32     9        0.000000        0.537169         3    ;  uncertainty k = 0.459073
        21        14        13        32     9      180.000000       -0.178265         4    ;  uncertainty k = 0.357380
        21        14        13        50     9        0.000000       -0.947833         1    ;  uncertainty k = 0.627969
        21        14        13        50     9      180.000000        0.170573         2    ;  uncertainty k = 0.410474
        21        14        13        50     9        0.000000        0.627907         3    ;  uncertainty k = 0.278858
        21        14        13        50     9      180.000000        0.059565         4    ;  uncertainty k = 0.093137
        21        22        23        24     9        0.000000        0.231428         1    ;  uncertainty k = 0.389796
        21        22        23        24     9      180.000000       10.238476         2    ;  uncertainty k = 0.466629
        21        22        23        24     9        0.000000        1.246350         3    ;  uncertainty k = 0.222856
        21        22        23        24     9      180.000000        1.655065         4    ;  uncertainty k = 0.267772
        21        22        23        58     9        0.000000       -0.252323         1    ;  uncertainty k = 0.534719
        21        22        23        58     9      180.000000        8.173630         2    ;  uncertainty k = 0.357489
        21        22        23        58     9        0.000000        1.005200         3    ;  uncertainty k = 0.139229
        21        22        23        58     9      180.000000        1.186391         4    ;  uncertainty k = 0.335076
        21        22        31        30     9        0.000000        0.514705         1    ;  uncertainty k = 0.664253
        21        22        31        30     9      180.000000        7.605362         2    ;  uncertainty k = 0.362138
        21        22        31        30     9        0.000000        0.991340         3    ;  uncertainty k = 0.193914
        21        22        31        30     9      180.000000        1.359285         4    ;  uncertainty k = 0.393670
        21        22        31        32     9        0.000000        0.052004         1    ;  uncertainty k = 0.599855
        21        22        31        32     9      180.000000        7.581845         2    ;  uncertainty k = 1.015598
        21        22        31        32     9        0.000000        0.683693         3    ;  uncertainty k = 0.579944
        21        22        31        32     9      180.000000        1.194810         4    ;  uncertainty k = 0.485141
        22        21        14        51     9        0.000000       -0.859913         1    ;  uncertainty k = 0.376970
        22        21        14        51     9      180.000000       -0.534872         2    ;  uncertainty k = 0.442168
        22        21        14        51     9        0.000000        0.715681         3    ;  uncertainty k = 0.162008
        22        21        14        51     9      180.000000        0.204030         4    ;  uncertainty k = 0.096027
        22        23        24        25     9        0.000000       -0.182690         1    ;  uncertainty k = 0.192395
        22        23        24        25     9      180.000000       13.581550         2    ;  uncertainty k = 0.317227
        22        23        24        25     9        0.000000       -0.529046         3    ;  uncertainty k = 0.592314
        22        23        24        25     9      180.000000        0.815071         4    ;  uncertainty k = 0.353191
        22        23        24        59     9        0.000000        0.317053         1    ;  uncertainty k = 0.513037
        22        23        24        59     9      180.000000        9.069728         2    ;  uncertainty k = 0.572384
        22        23        24        59     9        0.000000        1.256166         3    ;  uncertainty k = 0.254022
        22        23        24        59     9      180.000000        1.555765         4    ;  uncertainty k = 0.257997
        22        31        30        25     9        0.000000       -0.267304         1    ;  uncertainty k = 0.412363
        22        31        30        25     9      180.000000       11.752076         2    ;  uncertainty k = 0.425099
        22        31        30        25     9        0.000000       -0.315776         3    ;  uncertainty k = 0.520191
        22        31        30        25     9      180.000000        0.915764         4    ;  uncertainty k = 0.515936
        22        31        30        60     9        0.000000        0.324812         1    ;  uncertainty k = 0.368050
        22        31        30        60     9      180.000000        8.288328         2    ;  uncertainty k = 0.526602
        22        31        30        60     9        0.000000        1.376753         3    ;  uncertainty k = 0.326265
        22        31        30        60     9      180.000000        1.578090         4    ;  uncertainty k = 0.187003
        22        31        32        33     9        0.000000       -2.580743         1    ;  uncertainty k = 2.728083
        22        31        32        33     9      180.000000        0.502450         2    ;  uncertainty k = 1.155667
        22        31        32        33     9        0.000000        1.521882         3    ;  uncertainty k = 0.325627
        22        31        32        33     9      180.000000       -0.020565         4    ;  uncertainty k = 0.177459
        22        31        32        61     9        0.000000       -0.390475         1    ;  uncertainty k = 0.832621
        22        31        32        61     9      180.000000        2.111781         2    ;  uncertainty k = 0.240299
        22        31        32        61     9        0.000000        0.472394         3    ;  uncertainty k = 0.238680
        22        31        32        61     9      180.000000       -0.194062         4    ;  uncertainty k = 0.147186
        23        22        21        57     9        0.000000        1.644528         1    ;  uncertainty k = 0.671486
        23        22        21        57     9      180.000000        5.648100         2    ;  uncertainty k = 0.263411
        23        22        21        57     9        0.000000        0.887669         3    ;  uncertainty k = 0.335481
        23        22        21        57     9      180.000000       -0.022902         4    ;  uncertainty k = 0.180172
        23        22        31        30     9        0.000000        0.317716         1    ;  uncertainty k = 0.350190
        23        22        31        30     9      180.000000        5.948735         2    ;  uncertainty k = 0.533573
        23        22        31        30     9        0.000000        0.392054         3    ;  uncertainty k = 0.350697
        23        22        31        30     9      180.000000        1.333497         4    ;  uncertainty k = 0.239548
        23        22        31        32     9        0.000000        0.610302         1    ;  uncertainty k = 0.604382
        23        22        31        32     9      180.000000        5.675482         2    ;  uncertainty k = 0.460551
        23        22        31        32     9        0.000000        1.309673         3    ;  uncertainty k = 0.239002
        23        22        31        32     9      180.000000        1.601892         4    ;  uncertainty k = 0.271408
        23        24        25        26     9        0.000000        0.110284         1    ;  uncertainty k = 0.167159
        23        24        25        26     9      180.000000        9.822618         2    ;  uncertainty k = 0.704573
        23        24        25        26     9        0.000000        1.387105         3    ;  uncertainty k = 0.349698
        23        24        25        26     9      180.000000        1.947236         4    ;  uncertainty k = 0.332596
        23        24        25        30     9        0.000000       -0.034672         1    ;  uncertainty k = 0.203903
        23        24        25        30     9      180.000000       12.012212         2    ;  uncertainty k = 0.382685
        23        24        25        30     9        0.000000       -0.709598         3    ;  uncertainty k = 0.306769
        23        24        25        30     9      180.000000        0.893585         4    ;  uncertainty k = 0.295330
        24        23        22        31     9        0.000000        0.306570         1    ;  uncertainty k = 0.425942
        24        23        22        31     9      180.000000        7.300329         2    ;  uncertainty k = 0.363063
        24        23        22        31     9        0.000000        0.474892         3    ;  uncertainty k = 0.421538
        24        23        22        31     9      180.000000        1.413924         4    ;  uncertainty k = 0.213423
        24        25        26        27     9        0.000000       -0.682419         1    ;  uncertainty k = 0.249405
        24        25        26        27     9      180.000000        2.604905         2    ;  uncertainty k = 0.094363
        24        25        26        27     9        0.000000        0.754799         3    ;  uncertainty k = 0.077531
        24        25        26        27     9      180.000000        0.158520         4    ;  uncertainty k = 0.059056
        24        25        26        28     9        0.000000       -0.682419         1    ;  uncertainty k = 0.249405
        24        25        26        28     9      180.000000        2.604905         2    ;  uncertainty k = 0.094363
        24        25        26        28     9        0.000000        0.754799         3    ;  uncertainty k = 0.077531
        24        25        26        28     9      180.000000        0.158520         4    ;  uncertainty k = 0.059056
        24        25        26        29     9        0.000000       -0.682419         1    ;  uncertainty k = 0.249405
        24        25        26        29     9      180.000000        2.604905         2    ;  uncertainty k = 0.094363
        24        25        26        29     9        0.000000        0.754799         3    ;  uncertainty k = 0.077531
        24        25        26        29     9      180.000000        0.158520         4    ;  uncertainty k = 0.059056
        24        25        30        31     9        0.000000        0.036150         1    ;  uncertainty k = 0.285338
        24        25        30        31     9      180.000000       11.001547         2    ;  uncertainty k = 0.517109
        24        25        30        31     9        0.000000       -0.397288         3    ;  uncertainty k = 0.757389
        24        25        30        31     9      180.000000        1.041673         4    ;  uncertainty k = 0.528914
        24        25        30        60     9        0.000000        0.167488         1    ;  uncertainty k = 0.232761
        24        25        30        60     9      180.000000        7.759393         2    ;  uncertainty k = 0.302343
        24        25        30        60     9        0.000000        1.300806         3    ;  uncertainty k = 0.409955
        24        25        30        60     9      180.000000        1.640925         4    ;  uncertainty k = 0.190721
        25        24        23        58     9        0.000000        0.175558         1    ;  uncertainty k = 0.194208
        25        24        23        58     9      180.000000        8.463922         2    ;  uncertainty k = 0.413469
        25        24        23        58     9        0.000000        1.526973         3    ;  uncertainty k = 0.227749
        25        24        23        58     9      180.000000        1.855719         4    ;  uncertainty k = 0.242609
        25        30        31        32     9        0.000000       -0.052406         1    ;  uncertainty k = 0.525900
        25        30        31        32     9      180.000000       10.535436         2    ;  uncertainty k = 0.438629
        25        30        31        32     9        0.000000        1.345860         3    ;  uncertainty k = 0.153632
        25        30        31        32     9      180.000000        1.746174         4    ;  uncertainty k = 0.503262
        26        25        24        59     9        0.000000       -0.108565         1    ;  uncertainty k = 0.468395
        26        25        24        59     9      180.000000        8.611636         2    ;  uncertainty k = 0.510213
        26        25        24        59     9        0.000000        0.670475         3    ;  uncertainty k = 0.276177
        26        25        24        59     9      180.000000        1.004020         4    ;  uncertainty k = 0.160387
        26        25        30        31     9        0.000000        0.184112         1    ;  uncertainty k = 0.430340
        26        25        30        31     9      180.000000       10.236153         2    ;  uncertainty k = 0.564348
        26        25        30        31     9        0.000000        1.596329         3    ;  uncertainty k = 0.294702
        26        25        30        31     9      180.000000        1.951289         4    ;  uncertainty k = 0.285583
        26        25        30        60     9        0.000000        0.104725         1    ;  uncertainty k = 0.367020
        26        25        30        60     9      180.000000        8.817675         2    ;  uncertainty k = 0.477946
        26        25        30        60     9        0.000000        0.711158         3    ;  uncertainty k = 0.170461
        26        25        30        60     9      180.000000        1.070202         4    ;  uncertainty k = 0.164772
        27        26        25        30     9        0.000000       -0.574436         1    ;  uncertainty k = 0.288117
        27        26        25        30     9      180.000000        2.562507         2    ;  uncertainty k = 0.201571
        27        26        25        30     9        0.000000        0.701170         3    ;  uncertainty k = 0.104983
        27        26        25        30     9      180.000000        0.155921         4    ;  uncertainty k = 0.065716
        28        26        25        30     9        0.000000       -0.574436         1    ;  uncertainty k = 0.288117
        28        26        25        30     9      180.000000        2.562507         2    ;  uncertainty k = 0.201571
        28        26        25        30     9        0.000000        0.701170         3    ;  uncertainty k = 0.104983
        28        26        25        30     9      180.000000        0.155921         4    ;  uncertainty k = 0.065716
        29        26        25        30     9        0.000000       -0.574436         1    ;  uncertainty k = 0.288117
        29        26        25        30     9      180.000000        2.562507         2    ;  uncertainty k = 0.201571
        29        26        25        30     9        0.000000        0.701170         3    ;  uncertainty k = 0.104983
        29        26        25        30     9      180.000000        0.155921         4    ;  uncertainty k = 0.065716
        30        25        24        59     9        0.000000        0.213861         1    ;  uncertainty k = 0.199738
        30        25        24        59     9      180.000000        7.175611         2    ;  uncertainty k = 0.543777
        30        25        24        59     9        0.000000        1.246727         3    ;  uncertainty k = 0.361361
        30        25        24        59     9      180.000000        1.612476         4    ;  uncertainty k = 0.317209
        30        31        32        33     9        0.000000        0.054932         1    ;  uncertainty k = 0.538480
        30        31        32        33     9      180.000000        1.515123         2    ;  uncertainty k = 0.655022
        30        31        32        33     9        0.000000       -0.286982         3    ;  uncertainty k = 0.358624
        30        31        32        33     9      180.000000        0.140251         4    ;  uncertainty k = 0.131041
        30        31        32        61     9        0.000000        0.534069         1    ;  uncertainty k = 0.956167
        30        31        32        61     9      180.000000        1.860059         2    ;  uncertainty k = 0.352981
        30        31        32        61     9        0.000000        0.077794         3    ;  uncertainty k = 0.149454
        30        31        32        61     9      180.000000        0.005635         4    ;  uncertainty k = 0.143229
        31        22        21        57     9        0.000000       11.680208         1    ;  uncertainty k = 0.714263
        31        22        21        57     9      180.000000        5.639670         2    ;  uncertainty k = 0.496850
        31        22        21        57     9        0.000000        0.337104         3    ;  uncertainty k = 0.311469
        31        22        21        57     9      180.000000        0.199068         4    ;  uncertainty k = 0.154313
        31        22        23        58     9        0.000000        0.270044         1    ;  uncertainty k = 0.888280
        31        22        23        58     9      180.000000        6.341357         2    ;  uncertainty k = 0.647732
        31        22        23        58     9        0.000000        1.346204         3    ;  uncertainty k = 0.254113
        31        22        23        58     9      180.000000        1.274156         4    ;  uncertainty k = 0.236801
        31        32        13        50     9        0.000000       -0.495261         1    ;  uncertainty k = 0.912546
        31        32        13        50     9      180.000000        0.758395         2    ;  uncertainty k = 0.524827
        31        32        13        50     9        0.000000       -0.006710         3    ;  uncertainty k = 0.120103
        31        32        13        50     9      180.000000       -0.064125         4    ;  uncertainty k = 0.105449
        32        13        12        48     9        0.000000       -0.375195         1    ;  uncertainty k = 0.393019
        32        13        12        48     9      180.000000       -0.656804         2    ;  uncertainty k = 0.132762
        32        13        12        48     9        0.000000        0.281687         3    ;  uncertainty k = 0.117472
        32        13        12        48     9      180.000000       -0.009049         4    ;  uncertainty k = 0.054184
        32        13        12        49     9        0.000000       -0.375195         1    ;  uncertainty k = 0.393019
        32        13        12        49     9      180.000000       -0.656804         2    ;  uncertainty k = 0.132762
        32        13        12        49     9        0.000000        0.281687         3    ;  uncertainty k = 0.117472
        32        13        12        49     9      180.000000       -0.009049         4    ;  uncertainty k = 0.054184
        32        13        14        51     9        0.000000        0.737393         1    ;  uncertainty k = 0.719924
        32        13        14        51     9      180.000000       -1.388404         2    ;  uncertainty k = 0.748969
        32        13        14        51     9        0.000000       -0.423795         3    ;  uncertainty k = 0.141733
        32        13        14        51     9      180.000000        0.029717         4    ;  uncertainty k = 0.147484
        32        31        30        60     9        0.000000       -0.276768         1    ;  uncertainty k = 0.530615
        32        31        30        60     9      180.000000        8.412443         2    ;  uncertainty k = 0.745642
        32        31        30        60     9        0.000000        0.824115         3    ;  uncertainty k = 0.310579
        32        31        30        60     9      180.000000        1.104340         4    ;  uncertainty k = 0.412601
        32        33        10        45     9        0.000000       -2.044838         1    ;  uncertainty k = 1.251477
        32        33        10        45     9      180.000000       -0.702424         2    ;  uncertainty k = 0.336188
        32        33        10        45     9        0.000000        0.132775         3    ;  uncertainty k = 0.094273
        32        33        10        45     9      180.000000       -0.063340         4    ;  uncertainty k = 0.129576
        33        10         9        43     9        0.000000        0.245813         1    ;  uncertainty k = 0.324120
        33        10         9        43     9      180.000000       -1.264856         2    ;  uncertainty k = 0.266948
        33        10         9        43     9        0.000000        0.302661         3    ;  uncertainty k = 0.143068
        33        10         9        43     9      180.000000       -0.059359         4    ;  uncertainty k = 0.092779
        33        10         9        44     9        0.000000        0.245813         1    ;  uncertainty k = 0.324120
        33        10         9        44     9      180.000000       -1.264856         2    ;  uncertainty k = 0.266948
        33        10         9        44     9        0.000000        0.302661         3    ;  uncertainty k = 0.143068
        33        10         9        44     9      180.000000       -0.059359         4    ;  uncertainty k = 0.092779
        33        10        11        46     9        0.000000       -1.263600         1    ;  uncertainty k = 0.341881
        33        10        11        46     9      180.000000       -1.059269         2    ;  uncertainty k = 0.100534
        33        10        11        46     9        0.000000        0.867045         3    ;  uncertainty k = 0.164542
        33        10        11        46     9      180.000000       -0.138823         4    ;  uncertainty k = 0.093884
        33        10        11        47     9        0.000000       -1.263602         1    ;  uncertainty k = 0.341881
        33        10        11        47     9      180.000000       -1.059269         2    ;  uncertainty k = 0.100535
        33        10        11        47     9        0.000000        0.867045         3    ;  uncertainty k = 0.164542
        33        10        11        47     9      180.000000       -0.138823         4    ;  uncertainty k = 0.093884
        33        32        13        50     9        0.000000       -0.645217         1    ;  uncertainty k = 0.299703
        33        32        13        50     9      180.000000        0.602671         2    ;  uncertainty k = 0.506006
        33        32        13        50     9        0.000000        0.085886         3    ;  uncertainty k = 0.296121
        33        32        13        50     9      180.000000       -0.145951         4    ;  uncertainty k = 0.127878
        34         3         4        35     9        0.000000        0.925187         1    ;  uncertainty k = 0.332105
        34         3         4        35     9      180.000000       -1.375475         2    ;  uncertainty k = 0.197251
        34         3         4        35     9        0.000000        0.213092         3    ;  uncertainty k = 0.043571
        34         3         4        35     9      180.000000        0.141242         4    ;  uncertainty k = 0.091275
        34         3         4        36     9        0.000000        0.925187         1    ;  uncertainty k = 0.332105
        34         3         4        36     9      180.000000       -1.375475         2    ;  uncertainty k = 0.197251
        34         3         4        36     9        0.000000        0.213092         3    ;  uncertainty k = 0.043571
        34         3         4        36     9      180.000000        0.141242         4    ;  uncertainty k = 0.091275
        35         4         5        37     9        0.000000        0.873385         1    ;  uncertainty k = 0.262389
        35         4         5        37     9      180.000000       -0.476838         2    ;  uncertainty k = 0.192304
        35         4         5        37     9        0.000000        0.017495         3    ;  uncertainty k = 0.068080
        35         4         5        37     9      180.000000       -0.047566         4    ;  uncertainty k = 0.060635
        35         4         5        38     9        0.000000        0.873385         1    ;  uncertainty k = 0.262389
        35         4         5        38     9      180.000000       -0.476838         2    ;  uncertainty k = 0.192304
        35         4         5        38     9        0.000000        0.017495         3    ;  uncertainty k = 0.068080
        35         4         5        38     9      180.000000       -0.047566         4    ;  uncertainty k = 0.060635
        36         4         5        37     9        0.000000        0.873385         1    ;  uncertainty k = 0.262389
        36         4         5        37     9      180.000000       -0.476838         2    ;  uncertainty k = 0.192304
        36         4         5        37     9        0.000000        0.017495         3    ;  uncertainty k = 0.068080
        36         4         5        37     9      180.000000       -0.047566         4    ;  uncertainty k = 0.060635
        36         4         5        38     9        0.000000        0.873385         1    ;  uncertainty k = 0.262389
        36         4         5        38     9      180.000000       -0.476838         2    ;  uncertainty k = 0.192304
        36         4         5        38     9        0.000000        0.017495         3    ;  uncertainty k = 0.068080
        36         4         5        38     9      180.000000       -0.047566         4    ;  uncertainty k = 0.060635
        37         5         6        39     9        0.000000        0.484510         1    ;  uncertainty k = 0.201924
        37         5         6        39     9      180.000000       -0.222534         2    ;  uncertainty k = 0.247013
        37         5         6        39     9        0.000000        0.076255         3    ;  uncertainty k = 0.027725
        37         5         6        39     9      180.000000       -0.088785         4    ;  uncertainty k = 0.075445
        37         5         6        40     9        0.000000        0.484510         1    ;  uncertainty k = 0.201924
        37         5         6        40     9      180.000000       -0.222534         2    ;  uncertainty k = 0.247013
        37         5         6        40     9        0.000000        0.076255         3    ;  uncertainty k = 0.027725
        37         5         6        40     9      180.000000       -0.088785         4    ;  uncertainty k = 0.075445
        38         5         6        39     9        0.000000        0.484510         1    ;  uncertainty k = 0.201924
        38         5         6        39     9      180.000000       -0.222534         2    ;  uncertainty k = 0.247013
        38         5         6        39     9        0.000000        0.076255         3    ;  uncertainty k = 0.027725
        38         5         6        39     9      180.000000       -0.088785         4    ;  uncertainty k = 0.075445
        38         5         6        40     9        0.000000        0.484510         1    ;  uncertainty k = 0.201924
        38         5         6        40     9      180.000000       -0.222534         2    ;  uncertainty k = 0.247013
        38         5         6        40     9        0.000000        0.076255         3    ;  uncertainty k = 0.027725
        38         5         6        40     9      180.000000       -0.088785         4    ;  uncertainty k = 0.075445
        39         6         7        41     9        0.000000       10.101682         1    ;  uncertainty k = 0.187096
        39         6         7        41     9      180.000000       -2.185484         2    ;  uncertainty k = 0.167465
        39         6         7        41     9        0.000000        0.757106         3    ;  uncertainty k = 0.073204
        39         6         7        41     9      180.000000        0.089152         4    ;  uncertainty k = 0.042291
        40         6         7        41     9        0.000000       10.101682         1    ;  uncertainty k = 0.187096
        40         6         7        41     9      180.000000       -2.185484         2    ;  uncertainty k = 0.167465
        40         6         7        41     9        0.000000        0.757106         3    ;  uncertainty k = 0.073204
        40         6         7        41     9      180.000000        0.089152         4    ;  uncertainty k = 0.042291
        42         8         9        43     9        0.000000        1.060085         1    ;  uncertainty k = 0.405288
        42         8         9        43     9      180.000000       -1.104594         2    ;  uncertainty k = 0.411263
        42         8         9        43     9        0.000000        0.285910         3    ;  uncertainty k = 0.075119
        42         8         9        43     9      180.000000        0.134005         4    ;  uncertainty k = 0.069195
        42         8         9        44     9        0.000000        1.060085         1    ;  uncertainty k = 0.405288
        42         8         9        44     9      180.000000       -1.104594         2    ;  uncertainty k = 0.411263
        42         8         9        44     9        0.000000        0.285910         3    ;  uncertainty k = 0.075119
        42         8         9        44     9      180.000000        0.134005         4    ;  uncertainty k = 0.069195
        43         9        10        45     9        0.000000        0.066706         1    ;  uncertainty k = 0.261848
        43         9        10        45     9      180.000000       -0.152187         2    ;  uncertainty k = 0.215643
        43         9        10        45     9        0.000000        0.076813         3    ;  uncertainty k = 0.058360
        43         9        10        45     9      180.000000       -0.073660         4    ;  uncertainty k = 0.103214
        44         9        10        45     9        0.000000        0.066706         1    ;  uncertainty k = 0.261848
        44         9        10        45     9      180.000000       -0.152187         2    ;  uncertainty k = 0.215643
        44         9        10        45     9        0.000000        0.076813         3    ;  uncertainty k = 0.058360
        44         9        10        45     9      180.000000       -0.073660         4    ;  uncertainty k = 0.103214
        45        10        11        46     9        0.000000        0.255718         1    ;  uncertainty k = 0.261646
        45        10        11        46     9      180.000000        0.171495         2    ;  uncertainty k = 0.393583
        45        10        11        46     9        0.000000       -0.049337         3    ;  uncertainty k = 0.084049
        45        10        11        46     9      180.000000       -0.202214         4    ;  uncertainty k = 0.105633
        45        10        11        47     9        0.000000        0.255718         1    ;  uncertainty k = 0.261645
        45        10        11        47     9      180.000000        0.171496         2    ;  uncertainty k = 0.393582
        45        10        11        47     9        0.000000       -0.049337         3    ;  uncertainty k = 0.084049
        45        10        11        47     9      180.000000       -0.202214         4    ;  uncertainty k = 0.105633
        46        11        12        48     9        0.000000        1.668533         1    ;  uncertainty k = 0.432977
        46        11        12        48     9      180.000000        0.114741         2    ;  uncertainty k = 0.247989
        46        11        12        48     9        0.000000        0.345276         3    ;  uncertainty k = 0.102093
        46        11        12        48     9      180.000000        0.074717         4    ;  uncertainty k = 0.026488
        46        11        12        49     9        0.000000        1.668533         1    ;  uncertainty k = 0.432977
        46        11        12        49     9      180.000000        0.114741         2    ;  uncertainty k = 0.247989
        46        11        12        49     9        0.000000        0.345276         3    ;  uncertainty k = 0.102093
        46        11        12        49     9      180.000000        0.074717         4    ;  uncertainty k = 0.026488
        47        11        12        48     9        0.000000        1.668534         1    ;  uncertainty k = 0.432976
        47        11        12        48     9      180.000000        0.114741         2    ;  uncertainty k = 0.247989
        47        11        12        48     9        0.000000        0.345276         3    ;  uncertainty k = 0.102093
        47        11        12        48     9      180.000000        0.074717         4    ;  uncertainty k = 0.026488
        47        11        12        49     9        0.000000        1.668534         1    ;  uncertainty k = 0.432976
        47        11        12        49     9      180.000000        0.114741         2    ;  uncertainty k = 0.247989
        47        11        12        49     9        0.000000        0.345276         3    ;  uncertainty k = 0.102093
        47        11        12        49     9      180.000000        0.074717         4    ;  uncertainty k = 0.026488
        48        12        13        50     9        0.000000        1.545254         1    ;  uncertainty k = 0.344376
        48        12        13        50     9      180.000000       -0.020690         2    ;  uncertainty k = 0.342602
        48        12        13        50     9        0.000000       -0.070632         3    ;  uncertainty k = 0.119714
        48        12        13        50     9      180.000000        0.013810         4    ;  uncertainty k = 0.071778
        49        12        13        50     9        0.000000        1.545254         1    ;  uncertainty k = 0.344376
        49        12        13        50     9      180.000000       -0.020690         2    ;  uncertainty k = 0.342602
        49        12        13        50     9        0.000000       -0.070632         3    ;  uncertainty k = 0.119714
        49        12        13        50     9      180.000000        0.013810         4    ;  uncertainty k = 0.071778
        50        13        14        51     9        0.000000        1.077534         1    ;  uncertainty k = 0.458222
        50        13        14        51     9      180.000000       -0.042492         2    ;  uncertainty k = 0.250347
        50        13        14        51     9        0.000000       -0.346965         3    ;  uncertainty k = 0.176981
        50        13        14        51     9      180.000000       -0.270511         4    ;  uncertainty k = 0.102482
        50        13        32        61     9        0.000000        2.052517         1    ;  uncertainty k = 0.492057
        50        13        32        61     9      180.000000        0.874633         2    ;  uncertainty k = 0.464315
        50        13        32        61     9        0.000000       -0.485357         3    ;  uncertainty k = 0.218178
        50        13        32        61     9      180.000000       -0.175318         4    ;  uncertainty k = 0.074235
        51        14        21        57     9        0.000000        0.468543         1    ;  uncertainty k = 0.563666
        51        14        21        57     9      180.000000       -0.983994         2    ;  uncertainty k = 0.285945
        51        14        21        57     9        0.000000        0.482175         3    ;  uncertainty k = 0.277172
        51        14        21        57     9      180.000000        0.028441         4    ;  uncertainty k = 0.127509
        52        16        17        53     9        0.000000       -0.038401         1    ;  uncertainty k = 0.034127
        52        16        17        53     9      180.000000        7.644154         2    ;  uncertainty k = 0.255448
        52        16        17        53     9        0.000000       -0.470075         3    ;  uncertainty k = 0.270053
        52        16        17        53     9      180.000000        0.106023         4    ;  uncertainty k = 0.117776
        53        17        18        54     9        0.000000       -0.016279         1    ;  uncertainty k = 0.090335
        53        17        18        54     9      180.000000        7.510681         2    ;  uncertainty k = 0.369437
        53        17        18        54     9        0.000000       -0.422665         3    ;  uncertainty k = 0.276612
        53        17        18        54     9      180.000000        0.041075         4    ;  uncertainty k = 0.155578
        54        18        19        55     9        0.000000       -0.016279         1    ;  uncertainty k = 0.090335
        54        18        19        55     9      180.000000        7.510681         2    ;  uncertainty k = 0.369437
        54        18        19        55     9        0.000000       -0.422665         3    ;  uncertainty k = 0.276612
        54        18        19        55     9      180.000000        0.041075         4    ;  uncertainty k = 0.155578
        55        19        20        56     9        0.000000       -0.038401         1    ;  uncertainty k = 0.034127
        55        19        20        56     9      180.000000        7.644154         2    ;  uncertainty k = 0.255448
        55        19        20        56     9        0.000000       -0.470075         3    ;  uncertainty k = 0.270053
        55        19        20        56     9      180.000000        0.106023         4    ;  uncertainty k = 0.117776
        58        23        24        59     9        0.000000        0.247011         1    ;  uncertainty k = 0.623700
        58        23        24        59     9      180.000000        7.829038         2    ;  uncertainty k = 0.394733
        58        23        24        59     9        0.000000       -0.335446         3    ;  uncertainty k = 0.271687
        58        23        24        59     9      180.000000        0.202602         4    ;  uncertainty k = 0.180743

[ dihedrals ] ; impropers
;       ai        aj        ak        al funct           phase               k        pn
         2         1         3         8     4      180.000000       60.021028         2    ;  uncertainty k = 0.031400
         2         3         8         1     4      180.000000       60.021028         2    ;  uncertainty k = 0.031400
         2         8         1         3     4      180.000000       60.021028         2    ;  uncertainty k = 0.031400
         3         2         4        34     4      180.000000        0.219410         2    ;  uncertainty k = 0.490616
         3         4        34         2     4      180.000000        0.219410         2    ;  uncertainty k = 0.490616
         3        34         2         4     4      180.000000        0.219410         2    ;  uncertainty k = 0.490616
         8         2         9        42     4      180.000000        0.180017         2    ;  uncertainty k = 0.402530
         8         9        42         2     4      180.000000        0.180017         2    ;  uncertainty k = 0.402530
         8        42         2         9     4      180.000000        0.180017         2    ;  uncertainty k = 0.402530
        15        14        16        20     4      180.000000       12.903618         2    ;  uncertainty k = 0.121798
        15        16        20        14     4      180.000000       12.903618         2    ;  uncertainty k = 0.121798
        15        20        14        16     4      180.000000       12.903618         2    ;  uncertainty k = 0.121798
        16        15        17        52     4      180.000000        4.073200         2    ;  uncertainty k = 0.089532
        16        17        52        15     4      180.000000        4.073200         2    ;  uncertainty k = 0.089532
        16        52        15        17     4      180.000000        4.073200         2    ;  uncertainty k = 0.089532
        17        16        18        53     4      180.000000        4.075586         2    ;  uncertainty k = 0.076309
        17        18        53        16     4      180.000000        4.075586         2    ;  uncertainty k = 0.076309
        17        53        16        18     4      180.000000        4.075586         2    ;  uncertainty k = 0.076309
        18        17        19        54     4      180.000000        4.286751         2    ;  uncertainty k = 0.163795
        18        19        54        17     4      180.000000        4.286751         2    ;  uncertainty k = 0.163795
        18        54        17        19     4      180.000000        4.286751         2    ;  uncertainty k = 0.163795
        19        18        20        55     4      180.000000        4.075586         2    ;  uncertainty k = 0.076309
        19        20        55        18     4      180.000000        4.075586         2    ;  uncertainty k = 0.076309
        19        55        18        20     4      180.000000        4.075586         2    ;  uncertainty k = 0.076309
        20        15        19        56     4      180.000000        4.073200         2    ;  uncertainty k = 0.089533
        20        19        56        15     4      180.000000        4.073200         2    ;  uncertainty k = 0.089533
        20        56        15        19     4      180.000000        4.073200         2    ;  uncertainty k = 0.089533
        22        21        23        31     4      180.000000       21.979192         2    ;  uncertainty k = 0.135021
        22        23        31        21     4      180.000000       21.979192         2    ;  uncertainty k = 0.135021
        22        31        21        23     4      180.000000       21.979192         2    ;  uncertainty k = 0.135021
        23        22        24        58     4      180.000000        1.846540         2    ;  uncertainty k = 0.425684
        23        24        58        22     4      180.000000        1.846540         2    ;  uncertainty k = 0.425684
        23        58        22        24     4      180.000000        1.846540         2    ;  uncertainty k = 0.425684
        24        23        25        59     4      180.000000        4.856163         2    ;  uncertainty k = 0.148465
        24        25        59        23     4      180.000000        4.856163         2    ;  uncertainty k = 0.148465
        24        59        23        25     4      180.000000        4.856163         2    ;  uncertainty k = 0.148465
        25        24        26        30     4      180.000000        6.209822         2    ;  uncertainty k = 0.262053
        25        26        30        24     4      180.000000        6.209822         2    ;  uncertainty k = 0.262053
        25        30        24        26     4      180.000000        6.209822         2    ;  uncertainty k = 0.262053
        30        25        31        60     4      180.000000        4.574180         2    ;  uncertainty k = 0.267402
        30        31        60        25     4      180.000000        4.574180         2    ;  uncertainty k = 0.267402
        30        60        25        31     4      180.000000        4.574180         2    ;  uncertainty k = 0.267402
        31        22        30        32     4      180.000000       10.550445         2    ;  uncertainty k = 0.189412
        31        30        32        22     4      180.000000       10.550445         2    ;  uncertainty k = 0.189412
        31        32        22        30     4      180.000000       10.550445         2    ;  uncertainty k = 0.189412

[ pairs ]
;       ai        aj funct
         1         4     1
         1         9     1
         1        34     1
         1        42     1
         2         5     1
         2        10     1
         2        35     1
         2        36     1
         2        43     1
         2        44     1
         3         6     1
         3         9     1
         3        37     1
         3        38     1
         3        42     1
         4         7     1
         4         8     1
         4        39     1
         4        40     1
         5        34     1
         5        41     1
         6        35     1
         6        36     1
         7        37     1
         7        38     1
         8        11     1
         8        33     1
         8        34     1
         8        45     1
         9        12     1
         9        32     1
         9        46     1
         9        47     1
        10        13     1
        10        31     1
        10        42     1
        10        48     1
        10        49     1
        10        61     1
        11        14     1
        11        32     1
        11        43     1
        11        44     1
        11        50     1
        12        15     1
        12        21     1
        12        31     1
        12        33     1
        12        45     1
        12        51     1
        12        61     1
        13        16     1
        13        20     1
        13        22     1
        13        30     1
        13        46     1
        13        47     1
        13        57     1
        14        17     1
        14        19     1
        14        23     1
        14        31     1
        14        33     1
        14        48     1
        14        49     1
        14        52     1
        14        56     1
        14        61     1
        15        18     1
        15        22     1
        15        32     1
        15        50     1
        15        53     1
        15        55     1
        15        57     1
        16        19     1
        16        21     1
        16        51     1
        16        54     1
        16        56     1
        17        20     1
        17        55     1
        18        52     1
        18        56     1
        19        53     1
        20        21     1
        20        51     1
        20        52     1
        20        54     1
        21        24     1
        21        30     1
        21        32     1
        21        50     1
        21        58     1
        22        25     1
        22        33     1
        22        51     1
        22        59     1
        22        60     1
        22        61     1
        23        26     1
        23        30     1
        23        32     1
        23        57     1
        24        27     1
        24        28     1
        24        29     1
        24        31     1
        24        60     1
        25        32     1
        25        58     1
        26        31     1
        26        59     1
        26        60     1
        27        30     1
        28        30     1
        29        30     1
        30        33     1
        30        59     1
        30        61     1
        31        50     1
        31        57     1
        31        58     1
        32        45     1
        32        48     1
        32        49     1
        32        51     1
        32        60     1
        33        43     1
        33        44     1
        33        46     1
        33        47     1
        33        50     1
        34        35     1
        34        36     1
        35        37     1
        35        38     1
        36        37     1
        36        38     1
        37        39     1
        37        40     1
        38        39     1
        38        40     1
        39        41     1
        40        41     1
        42        43     1
        42        44     1
        43        45     1
        44        45     1
        45        46     1
        45        47     1
        46        48     1
        46        49     1
        47        48     1
        47        49     1
        48        50     1
        49        50     1
        50        51     1
        50        61     1
        51        57     1
        52        53     1
        53        54     1
        54        55     1
        55        56     1
        58        59     1
