; ITP file created by ByteFF-joint-25, 2026-02-17 09:16:17.842338

[ atomtypes ]
;name           bonded.type        at.num        mass        charge   ptype           sigma         epsilon
 c0bf                                   6      0.0000       0.00000       A     3.39768e-01     4.51334e-01    ;  uncertainty sigma = 0.000008, epsilon = 0.001067
 n1bf                                   7      0.0000       0.00000       A     2.67797e-01     7.09621e+00    ;  uncertainty sigma = 0.000075, epsilon = 0.008221
 c2bf                                   6      0.0000       0.00000       A     3.39787e-01     4.52439e-01    ;  uncertainty sigma = 0.000034, epsilon = 0.001397
 c3bf                                   6      0.0000       0.00000       A     3.39780e-01     4.51679e-01    ;  uncertainty sigma = 0.000029, epsilon = 0.001962
 c4bf                                   6      0.0000       0.00000       A     3.39767e-01     4.50489e-01    ;  uncertainty sigma = 0.000012, epsilon = 0.000621
 c5bf                                   6      0.0000       0.00000       A     3.39742e-01     4.51296e-01    ;  uncertainty sigma = 0.000014, epsilon = 0.001160
 c6bf                                   6      0.0000       0.00000       A     3.39762e-01     4.50994e-01    ;  uncertainty sigma = 0.000034, epsilon = 0.000506
 c7bf                                   6      0.0000       0.00000       A     3.39801e-01     4.50713e-01    ;  uncertainty sigma = 0.000017, epsilon = 0.001619
 c8bf                                   6      0.0000       0.00000       A     3.31511e-01     4.13647e-01    ;  uncertainty sigma = 0.000007, epsilon = 0.000209
 c9bf                                   6      0.0000       0.00000       A     3.31519e-01     4.13190e-01    ;  uncertainty sigma = 0.000007, epsilon = 0.001065
 c10bf                                  6      0.0000       0.00000       A     3.31505e-01     4.13907e-01    ;  uncertainty sigma = 0.000005, epsilon = 0.000329
 c11bf                                  6      0.0000       0.00000       A     3.31504e-01     4.12960e-01    ;  uncertainty sigma = 0.000009, epsilon = 0.000649
 s12bf                                 16      0.0000       0.00000       A     3.53224e-01     1.18201e+00    ;  uncertainty sigma = 0.000011, epsilon = 0.000357
 n13bf                                  7      0.0000       0.00000       A     3.27905e-01     6.45891e-01    ;  uncertainty sigma = 0.000025, epsilon = 0.004460
 c14bf                                  6      0.0000       0.00000       A     3.31547e-01     4.13294e-01    ;  uncertainty sigma = 0.000014, epsilon = 0.001189
 c15bf                                  6      0.0000       0.00000       A     3.31521e-01     4.13586e-01    ;  uncertainty sigma = 0.000004, epsilon = 0.000464
 c16bf                                  6      0.0000       0.00000       A     3.31524e-01     4.13573e-01    ;  uncertainty sigma = 0.000007, epsilon = 0.000695
 c17bf                                  6      0.0000       0.00000       A     3.31532e-01     4.13402e-01    ;  uncertainty sigma = 0.000010, epsilon = 0.001004
 c18bf                                  6      0.0000       0.00000       A     3.39774e-01     4.51167e-01    ;  uncertainty sigma = 0.000015, epsilon = 0.000796
 c19bf                                  6      0.0000       0.00000       A     3.39771e-01     4.50897e-01    ;  uncertainty sigma = 0.000007, epsilon = 0.000479
 c20bf                                  6      0.0000       0.00000       A     3.39771e-01     4.50897e-01    ;  uncertainty sigma = 0.000007, epsilon = 0.000479
 c21bf                                  6      0.0000       0.00000       A     3.39771e-01     4.50897e-01    ;  uncertainty sigma = 0.000007, epsilon = 0.000479
 c22bf                                  6      0.0000       0.00000       A     3.31545e-01     4.13403e-01    ;  uncertainty sigma = 0.000008, epsilon = 0.000917
 c23bf                                  6      0.0000       0.00000       A     3.31542e-01     4.13403e-01    ;  uncertainty sigma = 0.000017, epsilon = 0.000574
 c24bf                                  6      0.0000       0.00000       A     3.39766e-01     4.51040e-01    ;  uncertainty sigma = 0.000019, epsilon = 0.001498
 o25bf                                  8      0.0000       0.00000       A     3.15623e-01     3.04440e-01    ;  uncertainty sigma = 0.000041, epsilon = 0.000889
 h26bf                                  1      0.0000       0.00000       A     1.88778e-01     8.64164e-02    ;  uncertainty sigma = 0.000038, epsilon = 0.000604
 h27bf                                  1      0.0000       0.00000       A     1.88778e-01     8.64164e-02    ;  uncertainty sigma = 0.000038, epsilon = 0.000604
 h28bf                                  1      0.0000       0.00000       A     1.88778e-01     8.64164e-02    ;  uncertainty sigma = 0.000038, epsilon = 0.000604
 h29bf                                  1      0.0000       0.00000       A     1.10712e-01     4.13743e-02    ;  uncertainty sigma = 0.000101, epsilon = 0.000413
 h30bf                                  1      0.0000       0.00000       A     1.88689e-01     8.72656e-02    ;  uncertainty sigma = 0.000114, epsilon = 0.000631
 h31bf                                  1      0.0000       0.00000       A     1.88689e-01     8.72656e-02    ;  uncertainty sigma = 0.000114, epsilon = 0.000631
 h32bf                                  1      0.0000       0.00000       A     2.42333e-01     8.61424e-02    ;  uncertainty sigma = 0.000111, epsilon = 0.001611
 h33bf                                  1      0.0000       0.00000       A     2.60030e-01     8.64970e-02    ;  uncertainty sigma = 0.000010, epsilon = 0.000714
 h34bf                                  1      0.0000       0.00000       A     2.60030e-01     8.64970e-02    ;  uncertainty sigma = 0.000010, epsilon = 0.000714
 h35bf                                  1      0.0000       0.00000       A     2.60029e-01     8.66762e-02    ;  uncertainty sigma = 0.000010, epsilon = 0.000712
 h36bf                                  1      0.0000       0.00000       A     2.60029e-01     8.66762e-02    ;  uncertainty sigma = 0.000010, epsilon = 0.000712
 h37bf                                  1      0.0000       0.00000       A     2.59958e-01     8.64156e-02    ;  uncertainty sigma = 0.000053, epsilon = 0.001079
 h38bf                                  1      0.0000       0.00000       A     2.42274e-01     8.74725e-02    ;  uncertainty sigma = 0.000073, epsilon = 0.001032
 h39bf                                  1      0.0000       0.00000       A     2.62521e-01     6.73614e-02    ;  uncertainty sigma = 0.000020, epsilon = 0.000831
 h40bf                                  1      0.0000       0.00000       A     2.62579e-01     6.72222e-02    ;  uncertainty sigma = 0.000012, epsilon = 0.000449
 h41bf                                  1      0.0000       0.00000       A     2.53628e-01     6.70385e-02    ;  uncertainty sigma = 0.000018, epsilon = 0.000684
 h42bf                                  1      0.0000       0.00000       A     1.10672e-01     4.07782e-02    ;  uncertainty sigma = 0.000103, epsilon = 0.000716
 h43bf                                  1      0.0000       0.00000       A     2.62577e-01     6.70680e-02    ;  uncertainty sigma = 0.000013, epsilon = 0.000535
 h44bf                                  1      0.0000       0.00000       A     2.62546e-01     6.71184e-02    ;  uncertainty sigma = 0.000010, epsilon = 0.000474
 h45bf                                  1      0.0000       0.00000       A     2.60023e-01     8.66595e-02    ;  uncertainty sigma = 0.000006, epsilon = 0.000286
 h46bf                                  1      0.0000       0.00000       A     2.60023e-01     8.66595e-02    ;  uncertainty sigma = 0.000006, epsilon = 0.000286
 h47bf                                  1      0.0000       0.00000       A     2.60023e-01     8.66595e-02    ;  uncertainty sigma = 0.000006, epsilon = 0.000286
 h48bf                                  1      0.0000       0.00000       A     2.60023e-01     8.66595e-02    ;  uncertainty sigma = 0.000006, epsilon = 0.000286
 h49bf                                  1      0.0000       0.00000       A     2.60023e-01     8.66595e-02    ;  uncertainty sigma = 0.000006, epsilon = 0.000286
 h50bf                                  1      0.0000       0.00000       A     2.60023e-01     8.66595e-02    ;  uncertainty sigma = 0.000006, epsilon = 0.000286
 h51bf                                  1      0.0000       0.00000       A     2.60023e-01     8.66595e-02    ;  uncertainty sigma = 0.000006, epsilon = 0.000286
 h52bf                                  1      0.0000       0.00000       A     2.60023e-01     8.66595e-02    ;  uncertainty sigma = 0.000006, epsilon = 0.000286
 h53bf                                  1      0.0000       0.00000       A     2.60023e-01     8.66595e-02    ;  uncertainty sigma = 0.000006, epsilon = 0.000286
 h54bf                                  1      0.0000       0.00000       A     2.62494e-01     6.70935e-02    ;  uncertainty sigma = 0.000026, epsilon = 0.000462
 h55bf                                  1      0.0000       0.00000       A     2.42236e-01     8.76452e-02    ;  uncertainty sigma = 0.000273, epsilon = 0.002236
 h56bf                                  1      0.0000       0.00000       A     1.10712e-01     4.13743e-02    ;  uncertainty sigma = 0.000101, epsilon = 0.000413

[ moleculetype ]
;name             nrexcl
 MOL                   3

[ atoms ]
;       nr            type      resi   res      atom      cgnr      charge          mass ; qtot
         1            c0bf         1   UNL        c0         1     0.11949       12.0110 ; qtot    0.119
         2            n1bf         1   UNL        n1         2    -0.78217       14.0070 ; qtot   -0.663
         3            c2bf         1   UNL        c2         3     0.12987       12.0110 ; qtot   -0.533
         4            c3bf         1   UNL        c3         4     0.12350       12.0110 ; qtot   -0.409
         5            c4bf         1   UNL        c4         5    -0.10301       12.0110 ; qtot   -0.512
         6            c5bf         1   UNL        c5         6    -0.07008       12.0110 ; qtot   -0.582
         7            c6bf         1   UNL        c6         7    -0.09566       12.0110 ; qtot   -0.678
         8            c7bf         1   UNL        c7         8     0.28949       12.0110 ; qtot   -0.389
         9            c8bf         1   UNL        c8         9    -0.07608       12.0110 ; qtot   -0.465
        10            c9bf         1   UNL        c9        10    -0.13737       12.0110 ; qtot   -0.602
        11           c10bf         1   UNL       c10        11    -0.15119       12.0110 ; qtot   -0.753
        12           c11bf         1   UNL       c11        12    -0.09710       12.0110 ; qtot   -0.850
        13           s12bf         1   UNL       s12        13    -0.12464       32.0670 ; qtot   -0.975
        14           n13bf         1   UNL       n13        14    -0.73444       14.0070 ; qtot   -1.709
        15           c14bf         1   UNL       c14        15     0.15342       12.0110 ; qtot   -1.556
        16           c15bf         1   UNL       c15        16    -0.18908       12.0110 ; qtot   -1.745
        17           c16bf         1   UNL       c16        17    -0.08952       12.0110 ; qtot   -1.835
        18           c17bf         1   UNL       c17        18    -0.09788       12.0110 ; qtot   -1.932
        19           c18bf         1   UNL       c18        19    -0.00014       12.0110 ; qtot   -1.933
        20           c19bf         1   UNL       c19        20    -0.08520       12.0110 ; qtot   -2.018
        21           c20bf         1   UNL       c20        21    -0.08520       12.0110 ; qtot   -2.103
        22           c21bf         1   UNL       c21        22    -0.08520       12.0110 ; qtot   -2.188
        23           c22bf         1   UNL       c22        23    -0.07677       12.0110 ; qtot   -2.265
        24           c23bf         1   UNL       c23        24    -0.14518       12.0110 ; qtot   -2.410
        25           c24bf         1   UNL       c24        25     0.20365       12.0110 ; qtot   -2.206
        26           o25bf         1   UNL       o25        26    -0.42598       15.9990 ; qtot   -2.632
        27           h26bf         1   UNL       h26        27     0.10873        1.0080 ; qtot   -2.524
        28           h27bf         1   UNL       h27        28     0.10873        1.0080 ; qtot   -2.415
        29           h28bf         1   UNL       h28        29     0.10873        1.0080 ; qtot   -2.306
        30           h29bf         1   UNL       h29        30     0.46300        1.0080 ; qtot   -1.843
        31           h30bf         1   UNL       h30        31     0.11437        1.0080 ; qtot   -1.729
        32           h31bf         1   UNL       h31        32     0.11437        1.0080 ; qtot   -1.615
        33           h32bf         1   UNL       h32        33     0.08383        1.0080 ; qtot   -1.531
        34           h33bf         1   UNL       h33        34     0.07226        1.0080 ; qtot   -1.458
        35           h34bf         1   UNL       h34        35     0.07226        1.0080 ; qtot   -1.386
        36           h35bf         1   UNL       h35        36     0.05861        1.0080 ; qtot   -1.328
        37           h36bf         1   UNL       h36        37     0.05861        1.0080 ; qtot   -1.269
        38           h37bf         1   UNL       h37        38     0.07080        1.0080 ; qtot   -1.198
        39           h38bf         1   UNL       h38        39     0.05892        1.0080 ; qtot   -1.139
        40           h39bf         1   UNL       h39        40     0.15630        1.0080 ; qtot   -0.983
        41           h40bf         1   UNL       h40        41     0.15387        1.0080 ; qtot   -0.829
        42           h41bf         1   UNL       h41        42     0.16945        1.0080 ; qtot   -0.660
        43           h42bf         1   UNL       h42        43     0.40940        1.0080 ; qtot   -0.250
        44           h43bf         1   UNL       h43        44     0.13027        1.0080 ; qtot   -0.120
        45           h44bf         1   UNL       h44        45     0.13382        1.0080 ; qtot    0.014
        46           h45bf         1   UNL       h45        46     0.03604        1.0080 ; qtot    0.050
        47           h46bf         1   UNL       h46        47     0.03604        1.0080 ; qtot    0.086
        48           h47bf         1   UNL       h47        48     0.03604        1.0080 ; qtot    0.122
        49           h48bf         1   UNL       h48        49     0.03604        1.0080 ; qtot    0.158
        50           h49bf         1   UNL       h49        50     0.03604        1.0080 ; qtot    0.194
        51           h50bf         1   UNL       h50        51     0.03604        1.0080 ; qtot    0.230
        52           h51bf         1   UNL       h51        52     0.03604        1.0080 ; qtot    0.266
        53           h52bf         1   UNL       h52        53     0.03604        1.0080 ; qtot    0.302
        54           h53bf         1   UNL       h53        54     0.03604        1.0080 ; qtot    0.338
        55           h54bf         1   UNL       h54        55     0.13358        1.0080 ; qtot    0.472
        56           h55bf         1   UNL       h55        56     0.06523        1.0080 ; qtot    0.537
        57           h56bf         1   UNL       h56        57     0.46297        1.0080 ; qtot    1.000

[ bonds ]
;       ai        aj funct               r               k
         1         2     1        0.150483   206081.638037    ;  uncertainty r = 0.000127, k = 26.323707
         1        27     1        0.108971   315101.064648    ;  uncertainty r = 0.000019, k = 3.510020
         1        28     1        0.108971   315101.064648    ;  uncertainty r = 0.000019, k = 3.510020
         1        29     1        0.108971   315101.064648    ;  uncertainty r = 0.000019, k = 3.510020
         2         3     1        0.151116   193505.569312    ;  uncertainty r = 0.000091, k = 20.286602
         2        30     1        0.102983   385701.467969    ;  uncertainty r = 0.000064, k = 3.804169
         2        57     1        0.102983   385701.416895    ;  uncertainty r = 0.000064, k = 3.804183
         3         4     1        0.153088   198525.935181    ;  uncertainty r = 0.000227, k = 18.576038
         3        31     1        0.109071   316699.023730    ;  uncertainty r = 0.000066, k = 2.655839
         3        32     1        0.109071   316699.023730    ;  uncertainty r = 0.000066, k = 2.655839
         4         5     1        0.152859   204763.935962    ;  uncertainty r = 0.000153, k = 9.516844
         4        26     1        0.142397   237324.478223    ;  uncertainty r = 0.000159, k = 14.244305
         4        33     1        0.110046   305044.499902    ;  uncertainty r = 0.000072, k = 6.484756
         5         6     1        0.153417   212549.651562    ;  uncertainty r = 0.000103, k = 6.282098
         5        34     1        0.109580   309778.569238    ;  uncertainty r = 0.000017, k = 2.348451
         5        35     1        0.109580   309778.569238    ;  uncertainty r = 0.000017, k = 2.348451
         6         7     1        0.153188   204738.117944    ;  uncertainty r = 0.000118, k = 7.088213
         6        36     1        0.109530   307384.337549    ;  uncertainty r = 0.000012, k = 1.946511
         6        37     1        0.109530   307384.337549    ;  uncertainty r = 0.000012, k = 1.946511
         7         8     1        0.153731   193776.977710    ;  uncertainty r = 0.000080, k = 9.113071
         7        25     1        0.153185   194370.868726    ;  uncertainty r = 0.000159, k = 9.396015
         7        38     1        0.109697   307938.237451    ;  uncertainty r = 0.000055, k = 3.692003
         8         9     1        0.150591   220948.040723    ;  uncertainty r = 0.000080, k = 8.948739
         8        14     1        0.146348   250554.284180    ;  uncertainty r = 0.000151, k = 28.078074
         8        39     1        0.110002   298550.668359    ;  uncertainty r = 0.000082, k = 4.101192
         9        10     1        0.137042   410074.008545    ;  uncertainty r = 0.000075, k = 2.699610
         9        13     1        0.174377   170372.714941    ;  uncertainty r = 0.000088, k = 4.371066
        10        11     1        0.143186   263746.473975    ;  uncertainty r = 0.000041, k = 4.743250
        10        40     1        0.108627   333806.512061    ;  uncertainty r = 0.000027, k = 1.839373
        11        12     1        0.136924   429026.553027    ;  uncertainty r = 0.000020, k = 1.141779
        11        41     1        0.108621   333832.815283    ;  uncertainty r = 0.000028, k = 1.698832
        12        13     1        0.173301   181865.767627    ;  uncertainty r = 0.000066, k = 1.952076
        12        42     1        0.108457   341965.592969    ;  uncertainty r = 0.000021, k = 1.529315
        14        15     1        0.140010   343773.901221    ;  uncertainty r = 0.000121, k = 9.655931
        14        43     1        0.101449   412425.618799    ;  uncertainty r = 0.000043, k = 2.715778
        15        16     1        0.140549   370290.741797    ;  uncertainty r = 0.000114, k = 7.494362
        15        24     1        0.140560   348224.483105    ;  uncertainty r = 0.000140, k = 24.086508
        16        17     1        0.139231   369247.397656    ;  uncertainty r = 0.000086, k = 6.036902
        16        44     1        0.108971   336337.648193    ;  uncertainty r = 0.000020, k = 1.947173
        17        18     1        0.139993   342791.488623    ;  uncertainty r = 0.000055, k = 3.149912
        17        45     1        0.108722   334842.297217    ;  uncertainty r = 0.000029, k = 1.142359
        18        19     1        0.151796   210318.767993    ;  uncertainty r = 0.000061, k = 4.451875
        18        23     1        0.139700   338297.646875    ;  uncertainty r = 0.000123, k = 7.301087
        19        20     1        0.153655   198668.802539    ;  uncertainty r = 0.000045, k = 2.713764
        19        21     1        0.153655   198668.802539    ;  uncertainty r = 0.000045, k = 2.713764
        19        22     1        0.153655   198668.777002    ;  uncertainty r = 0.000045, k = 2.713759
        20        46     1        0.109659   308676.642969    ;  uncertainty r = 0.000022, k = 1.372185
        20        47     1        0.109659   308676.642969    ;  uncertainty r = 0.000022, k = 1.372185
        20        48     1        0.109659   308676.642969    ;  uncertainty r = 0.000022, k = 1.372185
        21        49     1        0.109659   308676.642969    ;  uncertainty r = 0.000022, k = 1.372185
        21        50     1        0.109659   308676.642969    ;  uncertainty r = 0.000022, k = 1.372185
        21        51     1        0.109659   308676.642969    ;  uncertainty r = 0.000022, k = 1.372185
        22        52     1        0.109659   308676.642969    ;  uncertainty r = 0.000022, k = 1.372185
        22        53     1        0.109659   308676.642969    ;  uncertainty r = 0.000022, k = 1.372185
        22        54     1        0.109659   308676.642969    ;  uncertainty r = 0.000022, k = 1.372185
        23        24     1        0.139488   352133.703809    ;  uncertainty r = 0.000093, k = 3.638809
        23        55     1        0.108815   334998.328955    ;  uncertainty r = 0.000071, k = 3.653137
        24        25     1        0.150730   221485.775635    ;  uncertainty r = 0.000133, k = 13.406337
        25        26     1        0.144667   219085.568262    ;  uncertainty r = 0.000477, k = 6.038768
        25        56     1        0.110012   305634.458203    ;  uncertainty r = 0.000068, k = 4.602571

[ angles ]
;       ai        aj        ak funct           theta             cth
         1         2         3     1      114.120590      627.009199    ;  uncertainty theta = 0.004769, k = 0.177844
         1         2        30     1      108.045982      455.367615    ;  uncertainty theta = 0.003064, k = 0.184078
         1         2        57     1      108.045982      455.367615    ;  uncertainty theta = 0.003064, k = 0.184078
         2         1        27     1      107.931419      474.361064    ;  uncertainty theta = 0.002343, k = 0.076147
         2         1        28     1      107.931419      474.361064    ;  uncertainty theta = 0.002343, k = 0.076147
         2         1        29     1      107.931419      474.361064    ;  uncertainty theta = 0.002343, k = 0.076147
         2         3         4     1      109.598450      697.693364    ;  uncertainty theta = 0.004814, k = 0.255220
         2         3        31     1      106.173927      463.691021    ;  uncertainty theta = 0.004234, k = 0.056842
         2         3        32     1      106.173927      463.691021    ;  uncertainty theta = 0.004234, k = 0.056842
         3         2        30     1      108.767532      433.355904    ;  uncertainty theta = 0.002716, k = 0.090610
         3         2        57     1      108.767532      433.355968    ;  uncertainty theta = 0.002716, k = 0.090610
         3         4         5     1      111.613235      560.734080    ;  uncertainty theta = 0.007684, k = 0.190040
         3         4        26     1      105.572304      576.705243    ;  uncertainty theta = 0.004338, k = 0.106002
         3         4        33     1      108.340309      391.475523    ;  uncertainty theta = 0.003241, k = 0.118548
         4         3        31     1      110.351929      396.491490    ;  uncertainty theta = 0.002550, k = 0.130995
         4         3        32     1      110.351929      396.491490    ;  uncertainty theta = 0.002550, k = 0.130995
         4         5         6     1      108.922989      584.803508    ;  uncertainty theta = 0.003349, k = 0.192982
         4         5        34     1      107.560936      391.786533    ;  uncertainty theta = 0.001621, k = 0.061018
         4         5        35     1      107.560936      391.786533    ;  uncertainty theta = 0.001621, k = 0.061018
         4        26        25     1      110.498611      514.107276    ;  uncertainty theta = 0.009371, k = 0.134083
         5         4        26     1      111.167953      678.948615    ;  uncertainty theta = 0.004652, k = 0.107151
         5         4        33     1      109.803185      407.456359    ;  uncertainty theta = 0.003040, k = 0.039020
         5         6         7     1      109.795982      573.884925    ;  uncertainty theta = 0.003751, k = 0.118272
         5         6        36     1      108.478844      406.082080    ;  uncertainty theta = 0.002291, k = 0.104768
         5         6        37     1      108.478844      406.082080    ;  uncertainty theta = 0.002291, k = 0.104768
         6         5        34     1      109.099220      400.232070    ;  uncertainty theta = 0.001054, k = 0.040985
         6         5        35     1      109.099220      400.232070    ;  uncertainty theta = 0.001054, k = 0.040985
         6         7         8     1      110.391983      548.940915    ;  uncertainty theta = 0.001972, k = 0.168135
         6         7        25     1      109.650940      582.480141    ;  uncertainty theta = 0.002412, k = 0.139359
         6         7        38     1      108.053726      398.971686    ;  uncertainty theta = 0.003324, k = 0.097118
         7         6        36     1      108.122658      388.741073    ;  uncertainty theta = 0.001538, k = 0.079417
         7         6        37     1      108.122658      388.741073    ;  uncertainty theta = 0.001538, k = 0.079417
         7         8         9     1      111.414207      541.753368    ;  uncertainty theta = 0.003664, k = 0.272397
         7         8        14     1      108.621078      701.088650    ;  uncertainty theta = 0.004395, k = 0.115206
         7         8        39     1      107.172745      385.755562    ;  uncertainty theta = 0.002365, k = 0.108566
         7        25        24     1      111.742455      558.809603    ;  uncertainty theta = 0.004102, k = 0.200525
         7        25        26     1      110.648666      662.941572    ;  uncertainty theta = 0.005231, k = 0.063471
         7        25        56     1      108.068344      393.378325    ;  uncertainty theta = 0.004001, k = 0.123374
         8         7        25     1      109.380760      555.143879    ;  uncertainty theta = 0.004858, k = 0.190862
         8         7        38     1      105.848099      389.486821    ;  uncertainty theta = 0.001235, k = 0.079703
         8         9        10     1      126.802246      365.797034    ;  uncertainty theta = 0.004671, k = 0.078207
         8         9        13     1      117.401207      340.944575    ;  uncertainty theta = 0.007242, k = 0.267424
         8        14        15     1      114.232384      398.147891    ;  uncertainty theta = 0.004812, k = 0.167805
         8        14        43     1      109.980331      355.306900    ;  uncertainty theta = 0.004782, k = 0.101495
         9         8        14     1      110.832314      656.898023    ;  uncertainty theta = 0.002391, k = 0.193342
         9         8        39     1      106.056129      414.260498    ;  uncertainty theta = 0.004415, k = 0.056115
         9        10        11     1      113.402084      642.872213    ;  uncertainty theta = 0.004030, k = 0.099241
         9        10        40     1      120.747047      243.909943    ;  uncertainty theta = 0.003544, k = 0.059891
         9        13        12     1       92.010002     1192.047495    ;  uncertainty theta = 0.002268, k = 0.118436
        10         9        13     1      111.968224      468.255396    ;  uncertainty theta = 0.003651, k = 0.069288
        10        11        12     1      112.740356      627.154250    ;  uncertainty theta = 0.003296, k = 0.051203
        10        11        41     1      122.279274      251.898813    ;  uncertainty theta = 0.002243, k = 0.048132
        11        10        40     1      122.096756      255.904149    ;  uncertainty theta = 0.003097, k = 0.067438
        11        12        13     1      110.981583      521.670889    ;  uncertainty theta = 0.003093, k = 0.135296
        11        12        42     1      126.028236      248.952724    ;  uncertainty theta = 0.001233, k = 0.042408
        12        11        41     1      121.862381      256.651301    ;  uncertainty theta = 0.003042, k = 0.050558
        13        12        42     1      116.607605      236.076483    ;  uncertainty theta = 0.002063, k = 0.079189
        14         8        39     1      107.874290      453.313634    ;  uncertainty theta = 0.004710, k = 0.130071
        14        15        16     1      123.134399      578.725548    ;  uncertainty theta = 0.003439, k = 0.115516
        14        15        24     1      122.242699      502.945772    ;  uncertainty theta = 0.009873, k = 0.230069
        15        14        43     1      111.130920      386.809638    ;  uncertainty theta = 0.005667, k = 0.186797
        15        16        17     1      120.522171      517.708264    ;  uncertainty theta = 0.002594, k = 0.091068
        15        16        44     1      119.046043      279.637445    ;  uncertainty theta = 0.004498, k = 0.174808
        15        24        23     1      120.534889      451.607084    ;  uncertainty theta = 0.006808, k = 0.112719
        15        24        25     1      119.826698      353.683666    ;  uncertainty theta = 0.009421, k = 0.494560
        16        15        24     1      118.562271      383.828117    ;  uncertainty theta = 0.004330, k = 0.151860
        16        17        18     1      122.384155      522.517508    ;  uncertainty theta = 0.002685, k = 0.108360
        16        17        45     1      119.123611      294.047557    ;  uncertainty theta = 0.002566, k = 0.039044
        17        16        44     1      121.044777      286.771460    ;  uncertainty theta = 0.002320, k = 0.093268
        17        18        19     1      120.109047      398.552559    ;  uncertainty theta = 0.004264, k = 0.135852
        17        18        23     1      119.761192      460.192150    ;  uncertainty theta = 0.003180, k = 0.102433
        18        17        45     1      118.233643      267.978062    ;  uncertainty theta = 0.002193, k = 0.135442
        18        19        20     1      108.206238      553.041217    ;  uncertainty theta = 0.002231, k = 0.088893
        18        19        21     1      108.206238      553.041217    ;  uncertainty theta = 0.002231, k = 0.088893
        18        19        22     1      108.206238      553.041217    ;  uncertainty theta = 0.002231, k = 0.088893
        18        23        24     1      124.337097      515.557624    ;  uncertainty theta = 0.003608, k = 0.158391
        18        23        55     1      117.703430      270.876014    ;  uncertainty theta = 0.002530, k = 0.122470
        19        18        23     1      119.806641      384.076401    ;  uncertainty theta = 0.004197, k = 0.110948
        19        20        46     1      107.702896      383.895439    ;  uncertainty theta = 0.000831, k = 0.040751
        19        20        47     1      107.702896      383.895439    ;  uncertainty theta = 0.000831, k = 0.040751
        19        20        48     1      107.702896      383.895439    ;  uncertainty theta = 0.000831, k = 0.040751
        19        21        49     1      107.702896      383.895439    ;  uncertainty theta = 0.000831, k = 0.040751
        19        21        50     1      107.702896      383.895439    ;  uncertainty theta = 0.000831, k = 0.040751
        19        21        51     1      107.702896      383.895439    ;  uncertainty theta = 0.000831, k = 0.040751
        19        22        52     1      107.702896      383.895439    ;  uncertainty theta = 0.000831, k = 0.040751
        19        22        53     1      107.702896      383.895439    ;  uncertainty theta = 0.000831, k = 0.040751
        19        22        54     1      107.702896      383.895439    ;  uncertainty theta = 0.000831, k = 0.040751
        20        19        21     1      108.458336      575.992949    ;  uncertainty theta = 0.002954, k = 0.058060
        20        19        22     1      108.458336      575.992949    ;  uncertainty theta = 0.002954, k = 0.058060
        21        19        22     1      108.458336      575.992949    ;  uncertainty theta = 0.002954, k = 0.058060
        23        24        25     1      119.119980      398.099466    ;  uncertainty theta = 0.004491, k = 0.075720
        24        23        55     1      117.360085      276.676959    ;  uncertainty theta = 0.005111, k = 0.122947
        24        25        26     1      108.872398      634.880821    ;  uncertainty theta = 0.007254, k = 0.308867
        24        25        56     1      108.875305      390.701557    ;  uncertainty theta = 0.004756, k = 0.090786
        25         7        38     1      106.380936      398.479682    ;  uncertainty theta = 0.003902, k = 0.096537
        26         4        33     1      107.423233      460.498116    ;  uncertainty theta = 0.001957, k = 0.138749
        26        25        56     1      105.736961      446.178246    ;  uncertainty theta = 0.004510, k = 0.100292
        27         1        28     1      108.721092      320.814597    ;  uncertainty theta = 0.003586, k = 0.093752
        27         1        29     1      108.721092      320.814597    ;  uncertainty theta = 0.003586, k = 0.093752
        28         1        29     1      108.721092      320.814597    ;  uncertainty theta = 0.003586, k = 0.093752
        30         2        57     1      107.282349      386.616226    ;  uncertainty theta = 0.003315, k = 0.113073
        31         3        32     1      108.328140      321.052220    ;  uncertainty theta = 0.003491, k = 0.028257
        34         5        35     1      105.298874      315.622935    ;  uncertainty theta = 0.003483, k = 0.050110
        36         6        37     1      104.619553      315.227046    ;  uncertainty theta = 0.002245, k = 0.032956
        46        20        47     1      105.347046      318.192319    ;  uncertainty theta = 0.000899, k = 0.012007
        46        20        48     1      105.347046      318.192319    ;  uncertainty theta = 0.000899, k = 0.012007
        47        20        48     1      105.347046      318.192319    ;  uncertainty theta = 0.000899, k = 0.012007
        49        21        50     1      105.347046      318.192319    ;  uncertainty theta = 0.000899, k = 0.012007
        49        21        51     1      105.347046      318.192319    ;  uncertainty theta = 0.000899, k = 0.012007
        50        21        51     1      105.347046      318.192319    ;  uncertainty theta = 0.000899, k = 0.012007
        52        22        53     1      105.347046      318.192319    ;  uncertainty theta = 0.000899, k = 0.012007
        52        22        54     1      105.347046      318.192319    ;  uncertainty theta = 0.000899, k = 0.012007
        53        22        54     1      105.347046      318.192319    ;  uncertainty theta = 0.000899, k = 0.012007

[ dihedrals ] ; propers for gromacs 4.5 or higher, use funct 9
;       ai        aj        ak        al funct           phase               k        pn
         1         2         3         4     9        0.000000        0.006307         1    ;  uncertainty k = 0.613229
         1         2         3         4     9      180.000000       -0.114237         2    ;  uncertainty k = 0.415972
         1         2         3         4     9        0.000000        1.040043         3    ;  uncertainty k = 0.119339
         1         2         3         4     9      180.000000       -0.032395         4    ;  uncertainty k = 0.060764
         1         2         3        31     9        0.000000       -0.681364         1    ;  uncertainty k = 0.600000
         1         2         3        31     9      180.000000       -0.166488         2    ;  uncertainty k = 0.352829
         1         2         3        31     9        0.000000        1.116541         3    ;  uncertainty k = 0.125614
         1         2         3        31     9      180.000000       -0.031562         4    ;  uncertainty k = 0.158992
         1         2         3        32     9        0.000000       -0.681364         1    ;  uncertainty k = 0.600000
         1         2         3        32     9      180.000000       -0.166488         2    ;  uncertainty k = 0.352829
         1         2         3        32     9        0.000000        1.116541         3    ;  uncertainty k = 0.125614
         1         2         3        32     9      180.000000       -0.031562         4    ;  uncertainty k = 0.158992
         2         3         4         5     9        0.000000       -0.196471         1    ;  uncertainty k = 1.822823
         2         3         4         5     9      180.000000       -0.466964         2    ;  uncertainty k = 0.525116
         2         3         4         5     9        0.000000        1.279769         3    ;  uncertainty k = 0.178915
         2         3         4         5     9      180.000000       -0.249494         4    ;  uncertainty k = 0.245501
         2         3         4        26     9        0.000000        2.338722         1    ;  uncertainty k = 1.434036
         2         3         4        26     9      180.000000       -3.529444         2    ;  uncertainty k = 0.755020
         2         3         4        26     9        0.000000        1.531751         3    ;  uncertainty k = 0.566446
         2         3         4        26     9      180.000000       -0.375491         4    ;  uncertainty k = 0.240534
         2         3         4        33     9        0.000000       -1.869553         1    ;  uncertainty k = 1.010165
         2         3         4        33     9      180.000000       -3.171111         2    ;  uncertainty k = 0.668409
         2         3         4        33     9        0.000000        0.860126         3    ;  uncertainty k = 0.296104
         2         3         4        33     9      180.000000       -0.078855         4    ;  uncertainty k = 0.120480
         3         2         1        27     9        0.000000       -0.505376         1    ;  uncertainty k = 0.211290
         3         2         1        27     9      180.000000       -0.945609         2    ;  uncertainty k = 0.623549
         3         2         1        27     9        0.000000        1.326997         3    ;  uncertainty k = 0.071761
         3         2         1        27     9      180.000000        0.033430         4    ;  uncertainty k = 0.103499
         3         2         1        28     9        0.000000       -0.505376         1    ;  uncertainty k = 0.211290
         3         2         1        28     9      180.000000       -0.945609         2    ;  uncertainty k = 0.623549
         3         2         1        28     9        0.000000        1.326997         3    ;  uncertainty k = 0.071761
         3         2         1        28     9      180.000000        0.033430         4    ;  uncertainty k = 0.103499
         3         2         1        29     9        0.000000       -0.505376         1    ;  uncertainty k = 0.211290
         3         2         1        29     9      180.000000       -0.945609         2    ;  uncertainty k = 0.623549
         3         2         1        29     9        0.000000        1.326997         3    ;  uncertainty k = 0.071761
         3         2         1        29     9      180.000000        0.033430         4    ;  uncertainty k = 0.103499
         3         4         5         6     9        0.000000       -2.838390         1    ;  uncertainty k = 0.817931
         3         4         5         6     9      180.000000        0.095830         2    ;  uncertainty k = 0.400572
         3         4         5         6     9        0.000000        0.741049         3    ;  uncertainty k = 0.150250
         3         4         5         6     9      180.000000       -0.461376         4    ;  uncertainty k = 0.102111
         3         4         5        34     9        0.000000       -1.119194         1    ;  uncertainty k = 0.957174
         3         4         5        34     9      180.000000       -0.714036         2    ;  uncertainty k = 0.298377
         3         4         5        34     9        0.000000        0.390089         3    ;  uncertainty k = 0.153177
         3         4         5        34     9      180.000000       -0.297533         4    ;  uncertainty k = 0.140458
         3         4         5        35     9        0.000000       -1.119194         1    ;  uncertainty k = 0.957174
         3         4         5        35     9      180.000000       -0.714036         2    ;  uncertainty k = 0.298377
         3         4         5        35     9        0.000000        0.390089         3    ;  uncertainty k = 0.153177
         3         4         5        35     9      180.000000       -0.297533         4    ;  uncertainty k = 0.140458
         3         4        26        25     9        0.000000       -5.456099         1    ;  uncertainty k = 1.416639
         3         4        26        25     9      180.000000       -0.854712         2    ;  uncertainty k = 0.788727
         3         4        26        25     9        0.000000        0.654450         3    ;  uncertainty k = 0.339019
         3         4        26        25     9      180.000000       -0.108110         4    ;  uncertainty k = 0.168550
         4         3         2        30     9        0.000000        1.040456         1    ;  uncertainty k = 0.462708
         4         3         2        30     9      180.000000       -0.379617         2    ;  uncertainty k = 0.417857
         4         3         2        30     9        0.000000        0.621486         3    ;  uncertainty k = 0.115494
         4         3         2        30     9      180.000000       -0.147759         4    ;  uncertainty k = 0.112672
         4         3         2        57     9        0.000000        1.040455         1    ;  uncertainty k = 0.462707
         4         3         2        57     9      180.000000       -0.379615         2    ;  uncertainty k = 0.417857
         4         3         2        57     9        0.000000        0.621486         3    ;  uncertainty k = 0.115494
         4         3         2        57     9      180.000000       -0.147759         4    ;  uncertainty k = 0.112672
         4         5         6         7     9        0.000000       -4.239465         1    ;  uncertainty k = 0.792201
         4         5         6         7     9      180.000000       -0.623006         2    ;  uncertainty k = 0.820557
         4         5         6         7     9        0.000000        1.196198         3    ;  uncertainty k = 0.267076
         4         5         6         7     9      180.000000       -0.785380         4    ;  uncertainty k = 0.139019
         4         5         6        36     9        0.000000       -0.923408         1    ;  uncertainty k = 0.464074
         4         5         6        36     9      180.000000       -0.755591         2    ;  uncertainty k = 0.253853
         4         5         6        36     9        0.000000        0.443955         3    ;  uncertainty k = 0.160093
         4         5         6        36     9      180.000000        0.024208         4    ;  uncertainty k = 0.049854
         4         5         6        37     9        0.000000       -0.923408         1    ;  uncertainty k = 0.464074
         4         5         6        37     9      180.000000       -0.755591         2    ;  uncertainty k = 0.253853
         4         5         6        37     9        0.000000        0.443955         3    ;  uncertainty k = 0.160093
         4         5         6        37     9      180.000000        0.024208         4    ;  uncertainty k = 0.049854
         4        26        25         7     9        0.000000        3.917912         1    ;  uncertainty k = 1.833662
         4        26        25         7     9      180.000000       -1.653084         2    ;  uncertainty k = 1.229645
         4        26        25         7     9        0.000000        0.142652         3    ;  uncertainty k = 0.225348
         4        26        25         7     9      180.000000        0.103557         4    ;  uncertainty k = 0.239820
         4        26        25        24     9        0.000000       -1.663495         1    ;  uncertainty k = 1.500988
         4        26        25        24     9      180.000000       -1.070625         2    ;  uncertainty k = 0.852679
         4        26        25        24     9        0.000000        0.966692         3    ;  uncertainty k = 0.482691
         4        26        25        24     9      180.000000       -0.020903         4    ;  uncertainty k = 0.140831
         4        26        25        56     9        0.000000       -2.309916         1    ;  uncertainty k = 0.719858
         4        26        25        56     9      180.000000       -0.832023         2    ;  uncertainty k = 0.615338
         4        26        25        56     9        0.000000        0.468981         3    ;  uncertainty k = 0.135212
         4        26        25        56     9      180.000000       -0.110919         4    ;  uncertainty k = 0.128659
         5         4         3        31     9        0.000000       -1.220062         1    ;  uncertainty k = 0.717287
         5         4         3        31     9      180.000000        0.109294         2    ;  uncertainty k = 0.261715
         5         4         3        31     9        0.000000        0.508984         3    ;  uncertainty k = 0.155892
         5         4         3        31     9      180.000000       -0.152033         4    ;  uncertainty k = 0.073517
         5         4         3        32     9        0.000000       -1.220062         1    ;  uncertainty k = 0.717287
         5         4         3        32     9      180.000000        0.109294         2    ;  uncertainty k = 0.261715
         5         4         3        32     9        0.000000        0.508984         3    ;  uncertainty k = 0.155892
         5         4         3        32     9      180.000000       -0.152033         4    ;  uncertainty k = 0.073517
         5         4        26        25     9        0.000000        1.387168         1    ;  uncertainty k = 3.080349
         5         4        26        25     9      180.000000       -1.547604         2    ;  uncertainty k = 0.334414
         5         4        26        25     9        0.000000        0.096237         3    ;  uncertainty k = 0.452515
         5         4        26        25     9      180.000000        0.000803         4    ;  uncertainty k = 0.244614
         5         6         7         8     9        0.000000       -3.416958         1    ;  uncertainty k = 0.942087
         5         6         7         8     9      180.000000        0.038695         2    ;  uncertainty k = 0.341014
         5         6         7         8     9        0.000000        1.107792         3    ;  uncertainty k = 0.253223
         5         6         7         8     9      180.000000       -0.504009         4    ;  uncertainty k = 0.230250
         5         6         7        25     9        0.000000       -3.133743         1    ;  uncertainty k = 0.576124
         5         6         7        25     9      180.000000        0.166342         2    ;  uncertainty k = 0.548806
         5         6         7        25     9        0.000000        1.034236         3    ;  uncertainty k = 0.240222
         5         6         7        25     9      180.000000       -0.727989         4    ;  uncertainty k = 0.118397
         5         6         7        38     9        0.000000       -2.400985         1    ;  uncertainty k = 0.621006
         5         6         7        38     9      180.000000        0.248620         2    ;  uncertainty k = 0.355428
         5         6         7        38     9        0.000000        0.036615         3    ;  uncertainty k = 0.066074
         5         6         7        38     9      180.000000       -0.103829         4    ;  uncertainty k = 0.099526
         6         5         4        26     9        0.000000       -2.488328         1    ;  uncertainty k = 0.744509
         6         5         4        26     9      180.000000       -0.382110         2    ;  uncertainty k = 0.847583
         6         5         4        26     9        0.000000        1.401117         3    ;  uncertainty k = 0.414615
         6         5         4        26     9      180.000000       -0.414385         4    ;  uncertainty k = 0.371879
         6         5         4        33     9        0.000000       -0.240807         1    ;  uncertainty k = 0.651087
         6         5         4        33     9      180.000000       -1.246238         2    ;  uncertainty k = 0.413518
         6         5         4        33     9        0.000000       -0.137056         3    ;  uncertainty k = 0.172292
         6         5         4        33     9      180.000000        0.103461         4    ;  uncertainty k = 0.146924
         6         7         8         9     9        0.000000       -0.780731         1    ;  uncertainty k = 0.699521
         6         7         8         9     9      180.000000        0.094595         2    ;  uncertainty k = 0.139357
         6         7         8         9     9        0.000000        0.932721         3    ;  uncertainty k = 0.132655
         6         7         8         9     9      180.000000       -0.030654         4    ;  uncertainty k = 0.064511
         6         7         8        14     9        0.000000       -2.587338         1    ;  uncertainty k = 0.324729
         6         7         8        14     9      180.000000        0.569787         2    ;  uncertainty k = 0.306079
         6         7         8        14     9        0.000000        1.067457         3    ;  uncertainty k = 0.226821
         6         7         8        14     9      180.000000       -0.327905         4    ;  uncertainty k = 0.285327
         6         7         8        39     9        0.000000       -0.355940         1    ;  uncertainty k = 0.393535
         6         7         8        39     9      180.000000       -0.315767         2    ;  uncertainty k = 0.163520
         6         7         8        39     9        0.000000        0.059005         3    ;  uncertainty k = 0.176562
         6         7         8        39     9      180.000000       -0.115524         4    ;  uncertainty k = 0.104364
         6         7        25        24     9        0.000000       -1.751964         1    ;  uncertainty k = 1.151712
         6         7        25        24     9      180.000000       -0.570911         2    ;  uncertainty k = 0.266385
         6         7        25        24     9        0.000000        0.639855         3    ;  uncertainty k = 0.163148
         6         7        25        24     9      180.000000       -0.208168         4    ;  uncertainty k = 0.136711
         6         7        25        26     9        0.000000       -1.375327         1    ;  uncertainty k = 0.861696
         6         7        25        26     9      180.000000       -1.534054         2    ;  uncertainty k = 0.839667
         6         7        25        26     9        0.000000        0.974743         3    ;  uncertainty k = 0.356356
         6         7        25        26     9      180.000000       -0.097885         4    ;  uncertainty k = 0.267128
         6         7        25        56     9        0.000000        0.293037         1    ;  uncertainty k = 0.455945
         6         7        25        56     9      180.000000       -0.466026         2    ;  uncertainty k = 0.382820
         6         7        25        56     9        0.000000       -0.188795         3    ;  uncertainty k = 0.163869
         6         7        25        56     9      180.000000       -0.051628         4    ;  uncertainty k = 0.127599
         7         6         5        34     9        0.000000       -0.826227         1    ;  uncertainty k = 0.386994
         7         6         5        34     9      180.000000       -0.543027         2    ;  uncertainty k = 0.294178
         7         6         5        34     9        0.000000        0.490088         3    ;  uncertainty k = 0.092055
         7         6         5        34     9      180.000000       -0.058653         4    ;  uncertainty k = 0.087906
         7         6         5        35     9        0.000000       -0.826227         1    ;  uncertainty k = 0.386994
         7         6         5        35     9      180.000000       -0.543027         2    ;  uncertainty k = 0.294178
         7         6         5        35     9        0.000000        0.490088         3    ;  uncertainty k = 0.092055
         7         6         5        35     9      180.000000       -0.058653         4    ;  uncertainty k = 0.087906
         7         8         9        10     9        0.000000        0.675078         1    ;  uncertainty k = 0.452422
         7         8         9        10     9      180.000000        0.940860         2    ;  uncertainty k = 0.368243
         7         8         9        10     9        0.000000        0.131440         3    ;  uncertainty k = 0.122284
         7         8         9        10     9      180.000000        0.143715         4    ;  uncertainty k = 0.127621
         7         8         9        13     9        0.000000       -2.075406         1    ;  uncertainty k = 1.178242
         7         8         9        13     9      180.000000        0.216933         2    ;  uncertainty k = 0.354608
         7         8         9        13     9        0.000000        0.326084         3    ;  uncertainty k = 0.224542
         7         8         9        13     9      180.000000        0.084895         4    ;  uncertainty k = 0.059018
         7         8        14        15     9        0.000000        1.130392         1    ;  uncertainty k = 1.055161
         7         8        14        15     9      180.000000        0.146804         2    ;  uncertainty k = 0.758890
         7         8        14        15     9        0.000000        0.378518         3    ;  uncertainty k = 0.293596
         7         8        14        15     9      180.000000        0.175131         4    ;  uncertainty k = 0.120467
         7         8        14        43     9        0.000000        3.969731         1    ;  uncertainty k = 1.119287
         7         8        14        43     9      180.000000       -1.757672         2    ;  uncertainty k = 1.228712
         7         8        14        43     9        0.000000        0.528172         3    ;  uncertainty k = 0.287576
         7         8        14        43     9      180.000000        0.004832         4    ;  uncertainty k = 0.057839
         7        25        24        15     9        0.000000        0.766251         1    ;  uncertainty k = 3.199617
         7        25        24        15     9      180.000000       -0.070383         2    ;  uncertainty k = 1.446863
         7        25        24        15     9        0.000000        0.011662         3    ;  uncertainty k = 0.797154
         7        25        24        15     9      180.000000        0.684747         4    ;  uncertainty k = 0.230820
         7        25        24        23     9        0.000000       -1.709446         1    ;  uncertainty k = 0.751724
         7        25        24        23     9      180.000000        0.110116         2    ;  uncertainty k = 0.504684
         7        25        24        23     9        0.000000       -0.162439         3    ;  uncertainty k = 0.173396
         7        25        24        23     9      180.000000        0.397531         4    ;  uncertainty k = 0.176251
         8         7         6        36     9        0.000000        0.193913         1    ;  uncertainty k = 0.220218
         8         7         6        36     9      180.000000       -0.641588         2    ;  uncertainty k = 0.269227
         8         7         6        36     9        0.000000        0.491155         3    ;  uncertainty k = 0.130537
         8         7         6        36     9      180.000000       -0.056929         4    ;  uncertainty k = 0.087454
         8         7         6        37     9        0.000000        0.193913         1    ;  uncertainty k = 0.220218
         8         7         6        37     9      180.000000       -0.641588         2    ;  uncertainty k = 0.269227
         8         7         6        37     9        0.000000        0.491155         3    ;  uncertainty k = 0.130537
         8         7         6        37     9      180.000000       -0.056929         4    ;  uncertainty k = 0.087454
         8         7        25        24     9        0.000000        1.262566         1    ;  uncertainty k = 1.291496
         8         7        25        24     9      180.000000       -2.116965         2    ;  uncertainty k = 0.281509
         8         7        25        24     9        0.000000        0.288372         3    ;  uncertainty k = 0.322901
         8         7        25        24     9      180.000000       -0.114377         4    ;  uncertainty k = 0.147809
         8         7        25        26     9        0.000000       -1.063241         1    ;  uncertainty k = 1.113214
         8         7        25        26     9      180.000000       -3.594090         2    ;  uncertainty k = 1.733464
         8         7        25        26     9        0.000000        0.668506         3    ;  uncertainty k = 0.223334
         8         7        25        26     9      180.000000        0.079793         4    ;  uncertainty k = 0.387667
         8         7        25        56     9        0.000000        1.030065         1    ;  uncertainty k = 0.894234
         8         7        25        56     9      180.000000       -1.056992         2    ;  uncertainty k = 0.494313
         8         7        25        56     9        0.000000       -0.225186         3    ;  uncertainty k = 0.091066
         8         7        25        56     9      180.000000       -0.001518         4    ;  uncertainty k = 0.188676
         8         9        10        11     9        0.000000        0.395404         1    ;  uncertainty k = 0.356266
         8         9        10        11     9      180.000000       14.561981         2    ;  uncertainty k = 0.425789
         8         9        10        11     9        0.000000        2.073059         3    ;  uncertainty k = 0.551906
         8         9        10        11     9      180.000000        1.150670         4    ;  uncertainty k = 0.212572
         8         9        10        40     9        0.000000        0.164033         1    ;  uncertainty k = 0.442339
         8         9        10        40     9      180.000000        8.973011         2    ;  uncertainty k = 0.851668
         8         9        10        40     9        0.000000        1.097595         3    ;  uncertainty k = 0.123248
         8         9        10        40     9      180.000000        0.653547         4    ;  uncertainty k = 0.435476
         8         9        13        12     9        0.000000        0.384931         1    ;  uncertainty k = 1.384333
         8         9        13        12     9      180.000000        9.661695         2    ;  uncertainty k = 0.410465
         8         9        13        12     9        0.000000        1.185506         3    ;  uncertainty k = 0.441696
         8         9        13        12     9      180.000000        0.189046         4    ;  uncertainty k = 0.158264
         8        14        15        16     9        0.000000        0.414762         1    ;  uncertainty k = 0.935614
         8        14        15        16     9      180.000000        3.670719         2    ;  uncertainty k = 1.048655
         8        14        15        16     9        0.000000        0.410928         3    ;  uncertainty k = 0.497922
         8        14        15        16     9      180.000000        0.398882         4    ;  uncertainty k = 0.256179
         8        14        15        24     9        0.000000        4.218401         1    ;  uncertainty k = 2.169311
         8        14        15        24     9      180.000000        1.623107         2    ;  uncertainty k = 0.626980
         8        14        15        24     9        0.000000       -0.041062         3    ;  uncertainty k = 0.335610
         8        14        15        24     9      180.000000        0.674730         4    ;  uncertainty k = 0.287531
         9         8         7        25     9        0.000000       -1.059313         1    ;  uncertainty k = 0.920151
         9         8         7        25     9      180.000000       -0.212297         2    ;  uncertainty k = 0.402210
         9         8         7        25     9        0.000000        0.377766         3    ;  uncertainty k = 0.161868
         9         8         7        25     9      180.000000       -0.069519         4    ;  uncertainty k = 0.134044
         9         8         7        38     9        0.000000        0.561543         1    ;  uncertainty k = 0.234190
         9         8         7        38     9      180.000000        0.215442         2    ;  uncertainty k = 0.768914
         9         8         7        38     9        0.000000        0.458066         3    ;  uncertainty k = 0.149016
         9         8         7        38     9      180.000000       -0.055318         4    ;  uncertainty k = 0.093964
         9         8        14        15     9        0.000000       -0.387252         1    ;  uncertainty k = 0.655922
         9         8        14        15     9      180.000000       -0.432256         2    ;  uncertainty k = 0.609624
         9         8        14        15     9        0.000000        1.003767         3    ;  uncertainty k = 0.277730
         9         8        14        15     9      180.000000        0.297825         4    ;  uncertainty k = 0.158769
         9         8        14        43     9        0.000000        6.235876         1    ;  uncertainty k = 0.472938
         9         8        14        43     9      180.000000       -2.034607         2    ;  uncertainty k = 0.722042
         9         8        14        43     9        0.000000        0.583207         3    ;  uncertainty k = 0.371973
         9         8        14        43     9      180.000000       -0.035951         4    ;  uncertainty k = 0.222740
         9        10        11        12     9        0.000000       -0.571493         1    ;  uncertainty k = 0.641711
         9        10        11        12     9      180.000000       12.630981         2    ;  uncertainty k = 0.977645
         9        10        11        12     9        0.000000       -4.823162         3    ;  uncertainty k = 0.701789
         9        10        11        12     9      180.000000        1.538856         4    ;  uncertainty k = 0.715802
         9        10        11        41     9        0.000000       -0.312008         1    ;  uncertainty k = 0.433920
         9        10        11        41     9      180.000000        7.205654         2    ;  uncertainty k = 0.185421
         9        10        11        41     9        0.000000        1.158614         3    ;  uncertainty k = 0.231502
         9        10        11        41     9      180.000000        0.435820         4    ;  uncertainty k = 0.242656
         9        13        12        11     9        0.000000       -0.244292         1    ;  uncertainty k = 0.496649
         9        13        12        11     9      180.000000       13.882866         2    ;  uncertainty k = 0.759349
         9        13        12        11     9        0.000000       -8.594887         3    ;  uncertainty k = 0.676276
         9        13        12        11     9      180.000000        1.769894         4    ;  uncertainty k = 0.659269
         9        13        12        42     9        0.000000        0.220296         1    ;  uncertainty k = 1.264765
         9        13        12        42     9      180.000000        7.309745         2    ;  uncertainty k = 1.101863
         9        13        12        42     9        0.000000        0.495518         3    ;  uncertainty k = 0.634621
         9        13        12        42     9      180.000000        0.259131         4    ;  uncertainty k = 0.298562
        10         9         8        14     9        0.000000       -0.085358         1    ;  uncertainty k = 0.856766
        10         9         8        14     9      180.000000        2.079113         2    ;  uncertainty k = 0.614811
        10         9         8        14     9        0.000000        0.392666         3    ;  uncertainty k = 0.221327
        10         9         8        14     9      180.000000        0.188083         4    ;  uncertainty k = 0.112187
        10         9         8        39     9        0.000000       -0.865833         1    ;  uncertainty k = 0.287132
        10         9         8        39     9      180.000000        1.746756         2    ;  uncertainty k = 0.337192
        10         9         8        39     9        0.000000        0.427078         3    ;  uncertainty k = 0.158302
        10         9         8        39     9      180.000000        0.095817         4    ;  uncertainty k = 0.098756
        10         9        13        12     9        0.000000        0.143447         1    ;  uncertainty k = 0.805313
        10         9        13        12     9      180.000000       12.222298         2    ;  uncertainty k = 0.686458
        10         9        13        12     9        0.000000       -7.823000         3    ;  uncertainty k = 0.903005
        10         9        13        12     9      180.000000        1.821417         4    ;  uncertainty k = 0.673114
        10        11        12        13     9        0.000000       -0.553943         1    ;  uncertainty k = 0.409735
        10        11        12        13     9      180.000000       19.261792         2    ;  uncertainty k = 0.530871
        10        11        12        13     9        0.000000       -4.107875         3    ;  uncertainty k = 0.425223
        10        11        12        13     9      180.000000        1.167921         4    ;  uncertainty k = 0.808812
        10        11        12        42     9        0.000000       -0.119773         1    ;  uncertainty k = 0.188459
        10        11        12        42     9      180.000000       14.679534         2    ;  uncertainty k = 0.119536
        10        11        12        42     9        0.000000        1.625199         3    ;  uncertainty k = 0.281997
        10        11        12        42     9      180.000000        0.979679         4    ;  uncertainty k = 0.149609
        11        10         9        13     9        0.000000       -0.727121         1    ;  uncertainty k = 0.436624
        11        10         9        13     9      180.000000       18.771761         2    ;  uncertainty k = 0.590331
        11        10         9        13     9        0.000000       -3.488561         3    ;  uncertainty k = 0.829294
        11        10         9        13     9      180.000000        1.093859         4    ;  uncertainty k = 0.750213
        12        11        10        40     9        0.000000       -0.158775         1    ;  uncertainty k = 0.346543
        12        11        10        40     9      180.000000        7.111887         2    ;  uncertainty k = 0.210514
        12        11        10        40     9        0.000000        0.885454         3    ;  uncertainty k = 0.294609
        12        11        10        40     9      180.000000        0.563968         4    ;  uncertainty k = 0.213817
        13         9         8        14     9        0.000000       -2.331619         1    ;  uncertainty k = 0.545619
        13         9         8        14     9      180.000000        0.220575         2    ;  uncertainty k = 0.844672
        13         9         8        14     9        0.000000        0.674271         3    ;  uncertainty k = 0.203712
        13         9         8        14     9      180.000000        0.306128         4    ;  uncertainty k = 0.159628
        13         9         8        39     9        0.000000        1.258064         1    ;  uncertainty k = 0.807368
        13         9         8        39     9      180.000000        1.297423         2    ;  uncertainty k = 0.331200
        13         9         8        39     9        0.000000        0.597004         3    ;  uncertainty k = 0.195854
        13         9         8        39     9      180.000000        0.195636         4    ;  uncertainty k = 0.069068
        13         9        10        40     9        0.000000        0.083401         1    ;  uncertainty k = 0.681119
        13         9        10        40     9      180.000000       11.803549         2    ;  uncertainty k = 0.529403
        13         9        10        40     9        0.000000        1.974631         3    ;  uncertainty k = 0.405572
        13         9        10        40     9      180.000000        1.281678         4    ;  uncertainty k = 0.271011
        13        12        11        41     9        0.000000       -0.031928         1    ;  uncertainty k = 0.618913
        13        12        11        41     9      180.000000       13.458530         2    ;  uncertainty k = 0.399837
        13        12        11        41     9        0.000000        2.173956         3    ;  uncertainty k = 0.394322
        13        12        11        41     9      180.000000        1.173712         4    ;  uncertainty k = 0.379415
        14         8         7        25     9        0.000000        0.592773         1    ;  uncertainty k = 2.293105
        14         8         7        25     9      180.000000       -1.250682         2    ;  uncertainty k = 0.411831
        14         8         7        25     9        0.000000        0.417481         3    ;  uncertainty k = 0.391529
        14         8         7        25     9      180.000000       -0.190050         4    ;  uncertainty k = 0.374601
        14         8         7        38     9        0.000000       -0.845245         1    ;  uncertainty k = 0.639741
        14         8         7        38     9      180.000000        0.288157         2    ;  uncertainty k = 0.510938
        14         8         7        38     9        0.000000        0.606960         3    ;  uncertainty k = 0.261142
        14         8         7        38     9      180.000000        0.044164         4    ;  uncertainty k = 0.110711
        14        15        16        17     9        0.000000        0.228914         1    ;  uncertainty k = 0.301039
        14        15        16        17     9      180.000000       10.496952         2    ;  uncertainty k = 0.495969
        14        15        16        17     9        0.000000        1.243718         3    ;  uncertainty k = 0.241593
        14        15        16        17     9      180.000000        1.646106         4    ;  uncertainty k = 0.224841
        14        15        16        44     9        0.000000       -0.341406         1    ;  uncertainty k = 0.654432
        14        15        16        44     9      180.000000        8.086757         2    ;  uncertainty k = 0.282352
        14        15        16        44     9        0.000000        1.026020         3    ;  uncertainty k = 0.168924
        14        15        16        44     9      180.000000        1.237444         4    ;  uncertainty k = 0.289507
        14        15        24        23     9        0.000000        0.543598         1    ;  uncertainty k = 0.517943
        14        15        24        23     9      180.000000        7.872206         2    ;  uncertainty k = 0.263293
        14        15        24        23     9        0.000000        0.999284         3    ;  uncertainty k = 0.163745
        14        15        24        23     9      180.000000        1.317838         4    ;  uncertainty k = 0.355413
        14        15        24        25     9        0.000000        0.011493         1    ;  uncertainty k = 0.498538
        14        15        24        25     9      180.000000        7.589651         2    ;  uncertainty k = 0.981985
        14        15        24        25     9        0.000000        0.740546         3    ;  uncertainty k = 0.538788
        14        15        24        25     9      180.000000        1.211947         4    ;  uncertainty k = 0.447333
        15        14         8        39     9        0.000000       -0.666195         1    ;  uncertainty k = 0.427298
        15        14         8        39     9      180.000000       -0.563746         2    ;  uncertainty k = 0.292233
        15        14         8        39     9        0.000000        0.711156         3    ;  uncertainty k = 0.125489
        15        14         8        39     9      180.000000        0.211743         4    ;  uncertainty k = 0.094568
        15        16        17        18     9        0.000000       -0.152331         1    ;  uncertainty k = 0.142635
        15        16        17        18     9      180.000000       13.418672         2    ;  uncertainty k = 0.319317
        15        16        17        18     9        0.000000       -0.587772         3    ;  uncertainty k = 0.546885
        15        16        17        18     9      180.000000        0.834283         4    ;  uncertainty k = 0.308763
        15        16        17        45     9        0.000000        0.284560         1    ;  uncertainty k = 0.487326
        15        16        17        45     9      180.000000        9.203360         2    ;  uncertainty k = 0.521722
        15        16        17        45     9        0.000000        1.250757         3    ;  uncertainty k = 0.290982
        15        16        17        45     9      180.000000        1.573949         4    ;  uncertainty k = 0.315318
        15        24        23        18     9        0.000000       -0.115815         1    ;  uncertainty k = 0.284808
        15        24        23        18     9      180.000000       11.765248         2    ;  uncertainty k = 0.410765
        15        24        23        18     9        0.000000       -0.313336         3    ;  uncertainty k = 0.508268
        15        24        23        18     9      180.000000        0.878547         4    ;  uncertainty k = 0.431030
        15        24        23        55     9        0.000000        0.174231         1    ;  uncertainty k = 0.380429
        15        24        23        55     9      180.000000        8.367849         2    ;  uncertainty k = 0.482126
        15        24        23        55     9        0.000000        1.387331         3    ;  uncertainty k = 0.272457
        15        24        23        55     9      180.000000        1.538316         4    ;  uncertainty k = 0.201427
        15        24        25        26     9        0.000000       -1.618458         1    ;  uncertainty k = 1.837523
        15        24        25        26     9      180.000000       -0.144161         2    ;  uncertainty k = 1.191940
        15        24        25        26     9        0.000000        1.494594         3    ;  uncertainty k = 0.306199
        15        24        25        26     9      180.000000        0.028025         4    ;  uncertainty k = 0.162181
        15        24        25        56     9        0.000000       -0.369516         1    ;  uncertainty k = 0.791713
        15        24        25        56     9      180.000000        2.086279         2    ;  uncertainty k = 0.270290
        15        24        25        56     9        0.000000        0.499337         3    ;  uncertainty k = 0.245644
        15        24        25        56     9      180.000000       -0.193984         4    ;  uncertainty k = 0.097461
        16        15        14        43     9        0.000000        1.777029         1    ;  uncertainty k = 0.766893
        16        15        14        43     9      180.000000        4.543528         2    ;  uncertainty k = 0.391973
        16        15        14        43     9        0.000000        0.701768         3    ;  uncertainty k = 0.304139
        16        15        14        43     9      180.000000        0.014137         4    ;  uncertainty k = 0.168950
        16        15        24        23     9        0.000000        0.266564         1    ;  uncertainty k = 0.129676
        16        15        24        23     9      180.000000        6.278967         2    ;  uncertainty k = 0.553059
        16        15        24        23     9        0.000000        0.300393         3    ;  uncertainty k = 0.441014
        16        15        24        23     9      180.000000        1.316001         4    ;  uncertainty k = 0.218147
        16        15        24        25     9        0.000000        0.663782         1    ;  uncertainty k = 0.615039
        16        15        24        25     9      180.000000        5.769209         2    ;  uncertainty k = 0.474458
        16        15        24        25     9        0.000000        1.241832         3    ;  uncertainty k = 0.259617
        16        15        24        25     9      180.000000        1.585117         4    ;  uncertainty k = 0.327602
        16        17        18        19     9        0.000000        0.169611         1    ;  uncertainty k = 0.238216
        16        17        18        19     9      180.000000        8.090942         2    ;  uncertainty k = 0.337294
        16        17        18        19     9        0.000000        1.352291         3    ;  uncertainty k = 0.274746
        16        17        18        19     9      180.000000        1.836902         4    ;  uncertainty k = 0.171366
        16        17        18        23     9        0.000000       -0.190874         1    ;  uncertainty k = 0.060121
        16        17        18        23     9      180.000000       11.166510         2    ;  uncertainty k = 0.403867
        16        17        18        23     9        0.000000       -0.348354         3    ;  uncertainty k = 0.213135
        16        17        18        23     9      180.000000        0.958017         4    ;  uncertainty k = 0.254499
        17        16        15        24     9        0.000000        0.139781         1    ;  uncertainty k = 0.193560
        17        16        15        24     9      180.000000        7.889446         2    ;  uncertainty k = 0.530525
        17        16        15        24     9        0.000000        0.240702         3    ;  uncertainty k = 0.550443
        17        16        15        24     9      180.000000        1.345914         4    ;  uncertainty k = 0.190066
        17        18        19        20     9        0.000000       -0.257730         1    ;  uncertainty k = 0.371272
        17        18        19        20     9      180.000000        2.542546         2    ;  uncertainty k = 0.166545
        17        18        19        20     9        0.000000        0.361656         3    ;  uncertainty k = 0.070149
        17        18        19        20     9      180.000000        0.359540         4    ;  uncertainty k = 0.061766
        17        18        19        21     9        0.000000       -0.257730         1    ;  uncertainty k = 0.371272
        17        18        19        21     9      180.000000        2.542546         2    ;  uncertainty k = 0.166545
        17        18        19        21     9        0.000000        0.361656         3    ;  uncertainty k = 0.070149
        17        18        19        21     9      180.000000        0.359540         4    ;  uncertainty k = 0.061766
        17        18        19        22     9        0.000000       -0.257730         1    ;  uncertainty k = 0.371272
        17        18        19        22     9      180.000000        2.542546         2    ;  uncertainty k = 0.166545
        17        18        19        22     9        0.000000        0.361656         3    ;  uncertainty k = 0.070149
        17        18        19        22     9      180.000000        0.359540         4    ;  uncertainty k = 0.061766
        17        18        23        24     9        0.000000        0.059052         1    ;  uncertainty k = 0.269312
        17        18        23        24     9      180.000000       10.778125         2    ;  uncertainty k = 0.441834
        17        18        23        24     9        0.000000       -0.025107         3    ;  uncertainty k = 0.548990
        17        18        23        24     9      180.000000        1.076128         4    ;  uncertainty k = 0.495025
        17        18        23        55     9        0.000000        0.104355         1    ;  uncertainty k = 0.175314
        17        18        23        55     9      180.000000        7.746722         2    ;  uncertainty k = 0.371621
        17        18        23        55     9        0.000000        1.470944         3    ;  uncertainty k = 0.342445
        17        18        23        55     9      180.000000        1.696370         4    ;  uncertainty k = 0.172368
        18        17        16        44     9        0.000000        0.062588         1    ;  uncertainty k = 0.250393
        18        17        16        44     9      180.000000        7.894403         2    ;  uncertainty k = 0.350795
        18        17        16        44     9        0.000000        1.434092         3    ;  uncertainty k = 0.284072
        18        17        16        44     9      180.000000        1.905597         4    ;  uncertainty k = 0.256226
        18        19        20        46     9        0.000000        0.794443         1    ;  uncertainty k = 0.477538
        18        19        20        46     9      180.000000       -0.515178         2    ;  uncertainty k = 0.038670
        18        19        20        46     9        0.000000        0.711172         3    ;  uncertainty k = 0.051879
        18        19        20        46     9      180.000000        0.033782         4    ;  uncertainty k = 0.064289
        18        19        20        47     9        0.000000        0.794443         1    ;  uncertainty k = 0.477538
        18        19        20        47     9      180.000000       -0.515178         2    ;  uncertainty k = 0.038670
        18        19        20        47     9        0.000000        0.711172         3    ;  uncertainty k = 0.051879
        18        19        20        47     9      180.000000        0.033782         4    ;  uncertainty k = 0.064289
        18        19        20        48     9        0.000000        0.794443         1    ;  uncertainty k = 0.477538
        18        19        20        48     9      180.000000       -0.515178         2    ;  uncertainty k = 0.038670
        18        19        20        48     9        0.000000        0.711172         3    ;  uncertainty k = 0.051879
        18        19        20        48     9      180.000000        0.033782         4    ;  uncertainty k = 0.064289
        18        19        21        49     9        0.000000        0.794443         1    ;  uncertainty k = 0.477538
        18        19        21        49     9      180.000000       -0.515178         2    ;  uncertainty k = 0.038670
        18        19        21        49     9        0.000000        0.711172         3    ;  uncertainty k = 0.051879
        18        19        21        49     9      180.000000        0.033782         4    ;  uncertainty k = 0.064289
        18        19        21        50     9        0.000000        0.794443         1    ;  uncertainty k = 0.477538
        18        19        21        50     9      180.000000       -0.515178         2    ;  uncertainty k = 0.038670
        18        19        21        50     9        0.000000        0.711172         3    ;  uncertainty k = 0.051879
        18        19        21        50     9      180.000000        0.033782         4    ;  uncertainty k = 0.064289
        18        19        21        51     9        0.000000        0.794443         1    ;  uncertainty k = 0.477538
        18        19        21        51     9      180.000000       -0.515178         2    ;  uncertainty k = 0.038670
        18        19        21        51     9        0.000000        0.711172         3    ;  uncertainty k = 0.051879
        18        19        21        51     9      180.000000        0.033782         4    ;  uncertainty k = 0.064289
        18        19        22        52     9        0.000000        0.794443         1    ;  uncertainty k = 0.477538
        18        19        22        52     9      180.000000       -0.515178         2    ;  uncertainty k = 0.038670
        18        19        22        52     9        0.000000        0.711172         3    ;  uncertainty k = 0.051879
        18        19        22        52     9      180.000000        0.033782         4    ;  uncertainty k = 0.064289
        18        19        22        53     9        0.000000        0.794443         1    ;  uncertainty k = 0.477538
        18        19        22        53     9      180.000000       -0.515178         2    ;  uncertainty k = 0.038670
        18        19        22        53     9        0.000000        0.711172         3    ;  uncertainty k = 0.051879
        18        19        22        53     9      180.000000        0.033782         4    ;  uncertainty k = 0.064289
        18        19        22        54     9        0.000000        0.794443         1    ;  uncertainty k = 0.477538
        18        19        22        54     9      180.000000       -0.515178         2    ;  uncertainty k = 0.038670
        18        19        22        54     9        0.000000        0.711172         3    ;  uncertainty k = 0.051879
        18        19        22        54     9      180.000000        0.033782         4    ;  uncertainty k = 0.064289
        18        23        24        25     9        0.000000       -0.007270         1    ;  uncertainty k = 0.487791
        18        23        24        25     9      180.000000        9.420429         2    ;  uncertainty k = 0.269622
        18        23        24        25     9        0.000000        1.310032         3    ;  uncertainty k = 0.200044
        18        23        24        25     9      180.000000        1.887529         4    ;  uncertainty k = 0.407024
        19        18        17        45     9        0.000000       -0.322150         1    ;  uncertainty k = 0.625486
        19        18        17        45     9      180.000000        7.620869         2    ;  uncertainty k = 0.555705
        19        18        17        45     9        0.000000        0.560175         3    ;  uncertainty k = 0.260776
        19        18        17        45     9      180.000000        0.966847         4    ;  uncertainty k = 0.215082
        19        18        23        24     9        0.000000        0.046634         1    ;  uncertainty k = 0.154402
        19        18        23        24     9      180.000000        8.789547         2    ;  uncertainty k = 0.460153
        19        18        23        24     9        0.000000        1.286829         3    ;  uncertainty k = 0.242221
        19        18        23        24     9      180.000000        1.683986         4    ;  uncertainty k = 0.137872
        19        18        23        55     9        0.000000       -0.224769         1    ;  uncertainty k = 0.659054
        19        18        23        55     9      180.000000        7.875340         2    ;  uncertainty k = 0.558845
        19        18        23        55     9        0.000000        0.633676         3    ;  uncertainty k = 0.256249
        19        18        23        55     9      180.000000        1.051674         4    ;  uncertainty k = 0.159945
        20        19        18        23     9        0.000000       -0.123494         1    ;  uncertainty k = 0.475831
        20        19        18        23     9      180.000000        2.583717         2    ;  uncertainty k = 0.233642
        20        19        18        23     9        0.000000        0.303046         3    ;  uncertainty k = 0.103944
        20        19        18        23     9      180.000000        0.385902         4    ;  uncertainty k = 0.055046
        20        19        21        49     9        0.000000       -1.188574         1    ;  uncertainty k = 0.286329
        20        19        21        49     9      180.000000       -0.229296         2    ;  uncertainty k = 0.093119
        20        19        21        49     9        0.000000        0.805969         3    ;  uncertainty k = 0.037188
        20        19        21        49     9      180.000000       -0.066025         4    ;  uncertainty k = 0.043590
        20        19        21        50     9        0.000000       -1.188574         1    ;  uncertainty k = 0.286329
        20        19        21        50     9      180.000000       -0.229296         2    ;  uncertainty k = 0.093119
        20        19        21        50     9        0.000000        0.805969         3    ;  uncertainty k = 0.037188
        20        19        21        50     9      180.000000       -0.066025         4    ;  uncertainty k = 0.043590
        20        19        21        51     9        0.000000       -1.188574         1    ;  uncertainty k = 0.286329
        20        19        21        51     9      180.000000       -0.229296         2    ;  uncertainty k = 0.093119
        20        19        21        51     9        0.000000        0.805969         3    ;  uncertainty k = 0.037188
        20        19        21        51     9      180.000000       -0.066025         4    ;  uncertainty k = 0.043590
        20        19        22        52     9        0.000000       -1.188574         1    ;  uncertainty k = 0.286329
        20        19        22        52     9      180.000000       -0.229296         2    ;  uncertainty k = 0.093119
        20        19        22        52     9        0.000000        0.805969         3    ;  uncertainty k = 0.037188
        20        19        22        52     9      180.000000       -0.066025         4    ;  uncertainty k = 0.043590
        20        19        22        53     9        0.000000       -1.188574         1    ;  uncertainty k = 0.286329
        20        19        22        53     9      180.000000       -0.229296         2    ;  uncertainty k = 0.093119
        20        19        22        53     9        0.000000        0.805969         3    ;  uncertainty k = 0.037188
        20        19        22        53     9      180.000000       -0.066025         4    ;  uncertainty k = 0.043590
        20        19        22        54     9        0.000000       -1.188574         1    ;  uncertainty k = 0.286329
        20        19        22        54     9      180.000000       -0.229296         2    ;  uncertainty k = 0.093119
        20        19        22        54     9        0.000000        0.805969         3    ;  uncertainty k = 0.037188
        20        19        22        54     9      180.000000       -0.066025         4    ;  uncertainty k = 0.043590
        21        19        18        23     9        0.000000       -0.123494         1    ;  uncertainty k = 0.475831
        21        19        18        23     9      180.000000        2.583717         2    ;  uncertainty k = 0.233642
        21        19        18        23     9        0.000000        0.303046         3    ;  uncertainty k = 0.103944
        21        19        18        23     9      180.000000        0.385902         4    ;  uncertainty k = 0.055046
        21        19        20        46     9        0.000000       -1.188574         1    ;  uncertainty k = 0.286329
        21        19        20        46     9      180.000000       -0.229296         2    ;  uncertainty k = 0.093119
        21        19        20        46     9        0.000000        0.805969         3    ;  uncertainty k = 0.037188
        21        19        20        46     9      180.000000       -0.066025         4    ;  uncertainty k = 0.043590
        21        19        20        47     9        0.000000       -1.188574         1    ;  uncertainty k = 0.286329
        21        19        20        47     9      180.000000       -0.229296         2    ;  uncertainty k = 0.093119
        21        19        20        47     9        0.000000        0.805969         3    ;  uncertainty k = 0.037188
        21        19        20        47     9      180.000000       -0.066025         4    ;  uncertainty k = 0.043590
        21        19        20        48     9        0.000000       -1.188574         1    ;  uncertainty k = 0.286329
        21        19        20        48     9      180.000000       -0.229296         2    ;  uncertainty k = 0.093119
        21        19        20        48     9        0.000000        0.805969         3    ;  uncertainty k = 0.037188
        21        19        20        48     9      180.000000       -0.066025         4    ;  uncertainty k = 0.043590
        21        19        22        52     9        0.000000       -1.188574         1    ;  uncertainty k = 0.286329
        21        19        22        52     9      180.000000       -0.229296         2    ;  uncertainty k = 0.093119
        21        19        22        52     9        0.000000        0.805969         3    ;  uncertainty k = 0.037188
        21        19        22        52     9      180.000000       -0.066025         4    ;  uncertainty k = 0.043590
        21        19        22        53     9        0.000000       -1.188574         1    ;  uncertainty k = 0.286329
        21        19        22        53     9      180.000000       -0.229296         2    ;  uncertainty k = 0.093119
        21        19        22        53     9        0.000000        0.805969         3    ;  uncertainty k = 0.037188
        21        19        22        53     9      180.000000       -0.066025         4    ;  uncertainty k = 0.043590
        21        19        22        54     9        0.000000       -1.188574         1    ;  uncertainty k = 0.286329
        21        19        22        54     9      180.000000       -0.229296         2    ;  uncertainty k = 0.093119
        21        19        22        54     9        0.000000        0.805969         3    ;  uncertainty k = 0.037188
        21        19        22        54     9      180.000000       -0.066025         4    ;  uncertainty k = 0.043590
        22        19        18        23     9        0.000000       -0.123494         1    ;  uncertainty k = 0.475831
        22        19        18        23     9      180.000000        2.583717         2    ;  uncertainty k = 0.233642
        22        19        18        23     9        0.000000        0.303046         3    ;  uncertainty k = 0.103944
        22        19        18        23     9      180.000000        0.385902         4    ;  uncertainty k = 0.055046
        22        19        20        46     9        0.000000       -1.188574         1    ;  uncertainty k = 0.286329
        22        19        20        46     9      180.000000       -0.229296         2    ;  uncertainty k = 0.093119
        22        19        20        46     9        0.000000        0.805969         3    ;  uncertainty k = 0.037188
        22        19        20        46     9      180.000000       -0.066025         4    ;  uncertainty k = 0.043590
        22        19        20        47     9        0.000000       -1.188574         1    ;  uncertainty k = 0.286329
        22        19        20        47     9      180.000000       -0.229296         2    ;  uncertainty k = 0.093119
        22        19        20        47     9        0.000000        0.805969         3    ;  uncertainty k = 0.037188
        22        19        20        47     9      180.000000       -0.066025         4    ;  uncertainty k = 0.043590
        22        19        20        48     9        0.000000       -1.188574         1    ;  uncertainty k = 0.286329
        22        19        20        48     9      180.000000       -0.229296         2    ;  uncertainty k = 0.093119
        22        19        20        48     9        0.000000        0.805969         3    ;  uncertainty k = 0.037188
        22        19        20        48     9      180.000000       -0.066025         4    ;  uncertainty k = 0.043590
        22        19        21        49     9        0.000000       -1.188574         1    ;  uncertainty k = 0.286329
        22        19        21        49     9      180.000000       -0.229296         2    ;  uncertainty k = 0.093119
        22        19        21        49     9        0.000000        0.805969         3    ;  uncertainty k = 0.037188
        22        19        21        49     9      180.000000       -0.066025         4    ;  uncertainty k = 0.043590
        22        19        21        50     9        0.000000       -1.188574         1    ;  uncertainty k = 0.286329
        22        19        21        50     9      180.000000       -0.229296         2    ;  uncertainty k = 0.093119
        22        19        21        50     9        0.000000        0.805969         3    ;  uncertainty k = 0.037188
        22        19        21        50     9      180.000000       -0.066025         4    ;  uncertainty k = 0.043590
        22        19        21        51     9        0.000000       -1.188574         1    ;  uncertainty k = 0.286329
        22        19        21        51     9      180.000000       -0.229296         2    ;  uncertainty k = 0.093119
        22        19        21        51     9        0.000000        0.805969         3    ;  uncertainty k = 0.037188
        22        19        21        51     9      180.000000       -0.066025         4    ;  uncertainty k = 0.043590
        23        18        17        45     9        0.000000        0.151318         1    ;  uncertainty k = 0.166032
        23        18        17        45     9      180.000000        7.285280         2    ;  uncertainty k = 0.645948
        23        18        17        45     9        0.000000        1.357278         3    ;  uncertainty k = 0.319034
        23        18        17        45     9      180.000000        1.619462         4    ;  uncertainty k = 0.231962
        23        24        25        26     9        0.000000       -0.065140         1    ;  uncertainty k = 0.545458
        23        24        25        26     9      180.000000        0.920476         2    ;  uncertainty k = 0.511244
        23        24        25        26     9        0.000000       -0.215260         3    ;  uncertainty k = 0.514932
        23        24        25        26     9      180.000000        0.086374         4    ;  uncertainty k = 0.147805
        23        24        25        56     9        0.000000        0.482196         1    ;  uncertainty k = 0.894426
        23        24        25        56     9      180.000000        1.867624         2    ;  uncertainty k = 0.414203
        23        24        25        56     9        0.000000        0.126561         3    ;  uncertainty k = 0.169119
        23        24        25        56     9      180.000000        0.002847         4    ;  uncertainty k = 0.127771
        24        15        14        43     9        0.000000       12.242776         1    ;  uncertainty k = 0.649692
        24        15        14        43     9      180.000000        4.853710         2    ;  uncertainty k = 0.419836
        24        15        14        43     9        0.000000        0.178679         3    ;  uncertainty k = 0.215699
        24        15        14        43     9      180.000000        0.219183         4    ;  uncertainty k = 0.162296
        24        15        16        44     9        0.000000        0.099176         1    ;  uncertainty k = 0.910823
        24        15        16        44     9      180.000000        6.181702         2    ;  uncertainty k = 0.693063
        24        15        16        44     9        0.000000        1.306285         3    ;  uncertainty k = 0.307509
        24        15        16        44     9      180.000000        1.295613         4    ;  uncertainty k = 0.186436
        24        25         7        38     9        0.000000       -0.328014         1    ;  uncertainty k = 1.117166
        24        25         7        38     9      180.000000        0.812839         2    ;  uncertainty k = 0.441321
        24        25         7        38     9        0.000000        0.019137         3    ;  uncertainty k = 0.083834
        24        25         7        38     9      180.000000       -0.077455         4    ;  uncertainty k = 0.103849
        25         7         6        36     9        0.000000       -0.379143         1    ;  uncertainty k = 0.505890
        25         7         6        36     9      180.000000       -0.663497         2    ;  uncertainty k = 0.160570
        25         7         6        36     9        0.000000        0.287127         3    ;  uncertainty k = 0.119934
        25         7         6        36     9      180.000000       -0.023375         4    ;  uncertainty k = 0.048586
        25         7         6        37     9        0.000000       -0.379143         1    ;  uncertainty k = 0.505890
        25         7         6        37     9      180.000000       -0.663497         2    ;  uncertainty k = 0.160570
        25         7         6        37     9        0.000000        0.287127         3    ;  uncertainty k = 0.119934
        25         7         6        37     9      180.000000       -0.023375         4    ;  uncertainty k = 0.048586
        25         7         8        39     9        0.000000        0.676746         1    ;  uncertainty k = 0.908154
        25         7         8        39     9      180.000000       -1.405025         2    ;  uncertainty k = 0.625071
        25         7         8        39     9        0.000000       -0.428123         3    ;  uncertainty k = 0.101466
        25         7         8        39     9      180.000000        0.002997         4    ;  uncertainty k = 0.138941
        25        24        23        55     9        0.000000       -0.298991         1    ;  uncertainty k = 0.390457
        25        24        23        55     9      180.000000        8.313912         2    ;  uncertainty k = 0.768083
        25        24        23        55     9        0.000000        0.796931         3    ;  uncertainty k = 0.299112
        25        24        23        55     9      180.000000        1.130865         4    ;  uncertainty k = 0.481105
        25        26         4        33     9        0.000000       -2.021012         1    ;  uncertainty k = 1.642688
        25        26         4        33     9      180.000000       -0.851917         2    ;  uncertainty k = 0.528376
        25        26         4        33     9        0.000000        0.232778         3    ;  uncertainty k = 0.054818
        25        26         4        33     9      180.000000        0.015217         4    ;  uncertainty k = 0.164783
        26         4         3        31     9        0.000000        1.173802         1    ;  uncertainty k = 0.979746
        26         4         3        31     9      180.000000       -0.815244         2    ;  uncertainty k = 0.267913
        26         4         3        31     9        0.000000        0.408954         3    ;  uncertainty k = 0.294450
        26         4         3        31     9      180.000000       -0.106621         4    ;  uncertainty k = 0.199924
        26         4         3        32     9        0.000000        1.173802         1    ;  uncertainty k = 0.979746
        26         4         3        32     9      180.000000       -0.815244         2    ;  uncertainty k = 0.267913
        26         4         3        32     9        0.000000        0.408954         3    ;  uncertainty k = 0.294450
        26         4         3        32     9      180.000000       -0.106621         4    ;  uncertainty k = 0.199924
        26         4         5        34     9        0.000000       -1.123998         1    ;  uncertainty k = 0.407863
        26         4         5        34     9      180.000000       -1.087185         2    ;  uncertainty k = 0.427433
        26         4         5        34     9        0.000000        1.051101         3    ;  uncertainty k = 0.240851
        26         4         5        34     9      180.000000       -0.070696         4    ;  uncertainty k = 0.050418
        26         4         5        35     9        0.000000       -1.123998         1    ;  uncertainty k = 0.407863
        26         4         5        35     9      180.000000       -1.087185         2    ;  uncertainty k = 0.427433
        26         4         5        35     9        0.000000        1.051101         3    ;  uncertainty k = 0.240851
        26         4         5        35     9      180.000000       -0.070696         4    ;  uncertainty k = 0.050418
        26        25         7        38     9        0.000000       -0.668546         1    ;  uncertainty k = 0.317325
        26        25         7        38     9      180.000000        0.396356         2    ;  uncertainty k = 0.563983
        26        25         7        38     9        0.000000        0.084842         3    ;  uncertainty k = 0.298640
        26        25         7        38     9      180.000000       -0.146624         4    ;  uncertainty k = 0.130082
        27         1         2        30     9        0.000000       -0.199732         1    ;  uncertainty k = 0.663170
        27         1         2        30     9      180.000000       -0.359617         2    ;  uncertainty k = 0.485979
        27         1         2        30     9        0.000000        0.552467         3    ;  uncertainty k = 0.121279
        27         1         2        30     9      180.000000        0.083020         4    ;  uncertainty k = 0.112026
        27         1         2        57     9        0.000000       -0.199732         1    ;  uncertainty k = 0.663169
        27         1         2        57     9      180.000000       -0.359617         2    ;  uncertainty k = 0.485979
        27         1         2        57     9        0.000000        0.552467         3    ;  uncertainty k = 0.121280
        27         1         2        57     9      180.000000        0.083020         4    ;  uncertainty k = 0.112026
        28         1         2        30     9        0.000000       -0.199732         1    ;  uncertainty k = 0.663170
        28         1         2        30     9      180.000000       -0.359617         2    ;  uncertainty k = 0.485979
        28         1         2        30     9        0.000000        0.552467         3    ;  uncertainty k = 0.121279
        28         1         2        30     9      180.000000        0.083020         4    ;  uncertainty k = 0.112026
        28         1         2        57     9        0.000000       -0.199732         1    ;  uncertainty k = 0.663169
        28         1         2        57     9      180.000000       -0.359617         2    ;  uncertainty k = 0.485979
        28         1         2        57     9        0.000000        0.552467         3    ;  uncertainty k = 0.121280
        28         1         2        57     9      180.000000        0.083020         4    ;  uncertainty k = 0.112026
        29         1         2        30     9        0.000000       -0.199732         1    ;  uncertainty k = 0.663170
        29         1         2        30     9      180.000000       -0.359617         2    ;  uncertainty k = 0.485979
        29         1         2        30     9        0.000000        0.552467         3    ;  uncertainty k = 0.121279
        29         1         2        30     9      180.000000        0.083020         4    ;  uncertainty k = 0.112026
        29         1         2        57     9        0.000000       -0.199732         1    ;  uncertainty k = 0.663169
        29         1         2        57     9      180.000000       -0.359617         2    ;  uncertainty k = 0.485979
        29         1         2        57     9        0.000000        0.552467         3    ;  uncertainty k = 0.121280
        29         1         2        57     9      180.000000        0.083020         4    ;  uncertainty k = 0.112026
        30         2         3        31     9        0.000000        0.344846         1    ;  uncertainty k = 0.569641
        30         2         3        31     9      180.000000       -0.270675         2    ;  uncertainty k = 0.212261
        30         2         3        31     9        0.000000        0.296373         3    ;  uncertainty k = 0.102911
        30         2         3        31     9      180.000000        0.019633         4    ;  uncertainty k = 0.099171
        30         2         3        32     9        0.000000        0.344846         1    ;  uncertainty k = 0.569641
        30         2         3        32     9      180.000000       -0.270675         2    ;  uncertainty k = 0.212261
        30         2         3        32     9        0.000000        0.296373         3    ;  uncertainty k = 0.102911
        30         2         3        32     9      180.000000        0.019633         4    ;  uncertainty k = 0.099171
        31         3         2        57     9        0.000000        0.344845         1    ;  uncertainty k = 0.569640
        31         3         2        57     9      180.000000       -0.270674         2    ;  uncertainty k = 0.212262
        31         3         2        57     9        0.000000        0.296373         3    ;  uncertainty k = 0.102911
        31         3         2        57     9      180.000000        0.019633         4    ;  uncertainty k = 0.099171
        31         3         4        33     9        0.000000       -0.216190         1    ;  uncertainty k = 0.375570
        31         3         4        33     9      180.000000        0.070681         2    ;  uncertainty k = 0.423812
        31         3         4        33     9        0.000000        0.186558         3    ;  uncertainty k = 0.185130
        31         3         4        33     9      180.000000       -0.045535         4    ;  uncertainty k = 0.059390
        32         3         2        57     9        0.000000        0.344845         1    ;  uncertainty k = 0.569640
        32         3         2        57     9      180.000000       -0.270674         2    ;  uncertainty k = 0.212262
        32         3         2        57     9        0.000000        0.296373         3    ;  uncertainty k = 0.102911
        32         3         2        57     9      180.000000        0.019633         4    ;  uncertainty k = 0.099171
        32         3         4        33     9        0.000000       -0.216190         1    ;  uncertainty k = 0.375570
        32         3         4        33     9      180.000000        0.070681         2    ;  uncertainty k = 0.423812
        32         3         4        33     9        0.000000        0.186558         3    ;  uncertainty k = 0.185130
        32         3         4        33     9      180.000000       -0.045535         4    ;  uncertainty k = 0.059390
        33         4         5        34     9        0.000000        0.454611         1    ;  uncertainty k = 0.163517
        33         4         5        34     9      180.000000        0.069234         2    ;  uncertainty k = 0.348771
        33         4         5        34     9        0.000000       -0.023343         3    ;  uncertainty k = 0.136715
        33         4         5        34     9      180.000000       -0.119445         4    ;  uncertainty k = 0.074674
        33         4         5        35     9        0.000000        0.454611         1    ;  uncertainty k = 0.163517
        33         4         5        35     9      180.000000        0.069234         2    ;  uncertainty k = 0.348771
        33         4         5        35     9        0.000000       -0.023343         3    ;  uncertainty k = 0.136715
        33         4         5        35     9      180.000000       -0.119445         4    ;  uncertainty k = 0.074674
        34         5         6        36     9        0.000000        1.559671         1    ;  uncertainty k = 0.447684
        34         5         6        36     9      180.000000        0.168729         2    ;  uncertainty k = 0.248112
        34         5         6        36     9        0.000000        0.370320         3    ;  uncertainty k = 0.121311
        34         5         6        36     9      180.000000        0.076932         4    ;  uncertainty k = 0.016360
        34         5         6        37     9        0.000000        1.559671         1    ;  uncertainty k = 0.447684
        34         5         6        37     9      180.000000        0.168729         2    ;  uncertainty k = 0.248112
        34         5         6        37     9        0.000000        0.370320         3    ;  uncertainty k = 0.121311
        34         5         6        37     9      180.000000        0.076932         4    ;  uncertainty k = 0.016360
        35         5         6        36     9        0.000000        1.559671         1    ;  uncertainty k = 0.447684
        35         5         6        36     9      180.000000        0.168729         2    ;  uncertainty k = 0.248112
        35         5         6        36     9        0.000000        0.370320         3    ;  uncertainty k = 0.121311
        35         5         6        36     9      180.000000        0.076932         4    ;  uncertainty k = 0.016360
        35         5         6        37     9        0.000000        1.559671         1    ;  uncertainty k = 0.447684
        35         5         6        37     9      180.000000        0.168729         2    ;  uncertainty k = 0.248112
        35         5         6        37     9        0.000000        0.370320         3    ;  uncertainty k = 0.121311
        35         5         6        37     9      180.000000        0.076932         4    ;  uncertainty k = 0.016360
        36         6         7        38     9        0.000000        1.548321         1    ;  uncertainty k = 0.422491
        36         6         7        38     9      180.000000        0.002652         2    ;  uncertainty k = 0.332306
        36         6         7        38     9        0.000000       -0.073006         3    ;  uncertainty k = 0.118146
        36         6         7        38     9      180.000000        0.016097         4    ;  uncertainty k = 0.068452
        37         6         7        38     9        0.000000        1.548321         1    ;  uncertainty k = 0.422491
        37         6         7        38     9      180.000000        0.002652         2    ;  uncertainty k = 0.332306
        37         6         7        38     9        0.000000       -0.073006         3    ;  uncertainty k = 0.118146
        37         6         7        38     9      180.000000        0.016097         4    ;  uncertainty k = 0.068452
        38         7         8        39     9        0.000000        1.142848         1    ;  uncertainty k = 0.371472
        38         7         8        39     9      180.000000       -0.038386         2    ;  uncertainty k = 0.260970
        38         7         8        39     9        0.000000       -0.279487         3    ;  uncertainty k = 0.160179
        38         7         8        39     9      180.000000       -0.271897         4    ;  uncertainty k = 0.129902
        38         7        25        56     9        0.000000        2.092141         1    ;  uncertainty k = 0.441286
        38         7        25        56     9      180.000000        0.880915         2    ;  uncertainty k = 0.463490
        38         7        25        56     9        0.000000       -0.469334         3    ;  uncertainty k = 0.229531
        38         7        25        56     9      180.000000       -0.167105         4    ;  uncertainty k = 0.067545
        39         8        14        43     9        0.000000        0.530063         1    ;  uncertainty k = 0.493951
        39         8        14        43     9      180.000000       -0.970735         2    ;  uncertainty k = 0.100411
        39         8        14        43     9        0.000000        0.477184         3    ;  uncertainty k = 0.281332
        39         8        14        43     9      180.000000        0.042099         4    ;  uncertainty k = 0.101264
        40        10        11        41     9        0.000000       -0.135770         1    ;  uncertainty k = 0.953065
        40        10        11        41     9      180.000000        5.301774         2    ;  uncertainty k = 0.669894
        40        10        11        41     9        0.000000        1.152731         3    ;  uncertainty k = 0.531385
        40        10        11        41     9      180.000000        0.139335         4    ;  uncertainty k = 0.116745
        41        11        12        42     9        0.000000       -0.306549         1    ;  uncertainty k = 0.241295
        41        11        12        42     9      180.000000        7.471710         2    ;  uncertainty k = 0.464314
        41        11        12        42     9        0.000000        1.029935         3    ;  uncertainty k = 0.412687
        41        11        12        42     9      180.000000        0.517477         4    ;  uncertainty k = 0.291064
        44        16        17        45     9        0.000000        0.028357         1    ;  uncertainty k = 0.533499
        44        16        17        45     9      180.000000        7.769214         2    ;  uncertainty k = 0.404666
        44        16        17        45     9        0.000000       -0.363551         3    ;  uncertainty k = 0.311034
        44        16        17        45     9      180.000000        0.241057         4    ;  uncertainty k = 0.183618

[ dihedrals ] ; impropers
;       ai        aj        ak        al funct           phase               k        pn
         9         8        10        13     4      180.000000        2.506120         2    ;  uncertainty k = 0.561231
         9        10        13         8     4      180.000000        2.506120         2    ;  uncertainty k = 0.561231
         9        13         8        10     4      180.000000        2.506120         2    ;  uncertainty k = 0.561231
        10         9        11        40     4      180.000000        1.178811         2    ;  uncertainty k = 0.484517
        10        11        40         9     4      180.000000        1.178811         2    ;  uncertainty k = 0.484517
        10        40         9        11     4      180.000000        1.178811         2    ;  uncertainty k = 0.484517
        11        10        12        41     4      180.000000        1.171306         2    ;  uncertainty k = 0.365552
        11        12        41        10     4      180.000000        1.171306         2    ;  uncertainty k = 0.365552
        11        41        10        12     4      180.000000        1.171306         2    ;  uncertainty k = 0.365552
        15        14        16        24     4      180.000000       20.812859         2    ;  uncertainty k = 0.135897
        15        16        24        14     4      180.000000       20.812859         2    ;  uncertainty k = 0.135897
        15        24        14        16     4      180.000000       20.812859         2    ;  uncertainty k = 0.135897
        16        15        17        44     4      180.000000        1.859840         2    ;  uncertainty k = 0.414887
        16        17        44        15     4      180.000000        1.859840         2    ;  uncertainty k = 0.414887
        16        44        15        17     4      180.000000        1.859840         2    ;  uncertainty k = 0.414887
        17        16        18        45     4      180.000000        4.379457         2    ;  uncertainty k = 0.146726
        17        18        45        16     4      180.000000        4.379457         2    ;  uncertainty k = 0.146726
        17        45        16        18     4      180.000000        4.379457         2    ;  uncertainty k = 0.146726
        18        17        19        23     4      180.000000       12.714653         2    ;  uncertainty k = 0.097697
        18        19        23        17     4      180.000000       12.714653         2    ;  uncertainty k = 0.097697
        18        23        17        19     4      180.000000       12.714653         2    ;  uncertainty k = 0.097697
        23        18        24        55     4      180.000000        3.940058         2    ;  uncertainty k = 0.333935
        23        24        55        18     4      180.000000        3.940058         2    ;  uncertainty k = 0.333935
        23        55        18        24     4      180.000000        3.940058         2    ;  uncertainty k = 0.333935
        24        15        23        25     4      180.000000       10.636915         2    ;  uncertainty k = 0.251580
        24        23        25        15     4      180.000000       10.636915         2    ;  uncertainty k = 0.251580
        24        25        15        23     4      180.000000       10.636915         2    ;  uncertainty k = 0.251580

[ pairs ]
;       ai        aj funct
         1         4     1
         1        31     1
         1        32     1
         2         5     1
         2        26     1
         2        33     1
         3         6     1
         3        25     1
         3        27     1
         3        28     1
         3        29     1
         3        34     1
         3        35     1
         4         7     1
         4        24     1
         4        30     1
         4        36     1
         4        37     1
         4        56     1
         4        57     1
         5         8     1
         5        25     1
         5        31     1
         5        32     1
         5        38     1
         6         9     1
         6        14     1
         6        24     1
         6        26     1
         6        33     1
         6        39     1
         6        56     1
         7        10     1
         7        13     1
         7        15     1
         7        23     1
         7        34     1
         7        35     1
         7        43     1
         8        11     1
         8        12     1
         8        16     1
         8        24     1
         8        26     1
         8        36     1
         8        37     1
         8        40     1
         8        56     1
         9        15     1
         9        25     1
         9        38     1
         9        41     1
         9        42     1
         9        43     1
        10        14     1
        10        39     1
        10        42     1
        12        40     1
        13        14     1
        13        39     1
        13        40     1
        13        41     1
        14        17     1
        14        23     1
        14        25     1
        14        38     1
        14        44     1
        15        18     1
        15        26     1
        15        39     1
        15        45     1
        15        55     1
        15        56     1
        16        19     1
        16        23     1
        16        25     1
        16        43     1
        17        20     1
        17        21     1
        17        22     1
        17        24     1
        17        55     1
        18        25     1
        18        44     1
        18        46     1
        18        47     1
        18        48     1
        18        49     1
        18        50     1
        18        51     1
        18        52     1
        18        53     1
        18        54     1
        19        24     1
        19        45     1
        19        55     1
        20        23     1
        20        49     1
        20        50     1
        20        51     1
        20        52     1
        20        53     1
        20        54     1
        21        23     1
        21        46     1
        21        47     1
        21        48     1
        21        52     1
        21        53     1
        21        54     1
        22        23     1
        22        46     1
        22        47     1
        22        48     1
        22        49     1
        22        50     1
        22        51     1
        23        26     1
        23        45     1
        23        56     1
        24        38     1
        24        43     1
        24        44     1
        25        33     1
        25        36     1
        25        37     1
        25        39     1
        25        55     1
        26        31     1
        26        32     1
        26        34     1
        26        35     1
        26        38     1
        27        30     1
        27        57     1
        28        30     1
        28        57     1
        29        30     1
        29        57     1
        30        31     1
        30        32     1
        31        33     1
        31        57     1
        32        33     1
        32        57     1
        33        34     1
        33        35     1
        34        36     1
        34        37     1
        35        36     1
        35        37     1
        36        38     1
        37        38     1
        38        39     1
        38        56     1
        39        43     1
        40        41     1
        41        42     1
        44        45     1
