; ITP file created by ByteFF-joint-25, 2025-07-14 11:36:08.001783

[ atomtypes ]
;name           bonded.type        at.num        mass        charge   ptype           sigma         epsilon
 c0bf                                   6      0.0000       0.00000       A     3.31492e-01     4.12564e-01    ;  uncertainty sigma = 0.000006, epsilon = 0.000702
 c1bf                                   6      0.0000       0.00000       A     3.31559e-01     4.12794e-01    ;  uncertainty sigma = 0.000005, epsilon = 0.001251
 c2bf                                   6      0.0000       0.00000       A     3.31539e-01     4.13533e-01    ;  uncertainty sigma = 0.000013, epsilon = 0.000944
 c3bf                                   6      0.0000       0.00000       A     3.31553e-01     4.13730e-01    ;  uncertainty sigma = 0.000005, epsilon = 0.000291
 c4bf                                   6      0.0000       0.00000       A     3.31519e-01     4.13403e-01    ;  uncertainty sigma = 0.000024, epsilon = 0.000623
 c5bf                                   6      0.0000       0.00000       A     3.31498e-01     4.12877e-01    ;  uncertainty sigma = 0.000005, epsilon = 0.000808
 c6bf                                   6      0.0000       0.00000       A     3.31544e-01     4.13387e-01    ;  uncertainty sigma = 0.000012, epsilon = 0.000797
 o7bf                                   8      0.0000       0.00000       A     3.15623e-01     3.03572e-01    ;  uncertainty sigma = 0.000010, epsilon = 0.001243
 c8bf                                   6      0.0000       0.00000       A     3.31525e-01     4.12443e-01    ;  uncertainty sigma = 0.000020, epsilon = 0.000604
 o9bf                                   8      0.0000       0.00000       A     3.04832e-01     6.12758e-01    ;  uncertainty sigma = 0.000013, epsilon = 0.001386
 n10bf                                  7      0.0000       0.00000       A     3.38404e-01     3.93885e-01    ;  uncertainty sigma = 0.000020, epsilon = 0.001459
 s11bf                                 16      0.0000       0.00000       A     3.53294e-01     1.18033e+00    ;  uncertainty sigma = 0.000033, epsilon = 0.001178
 o12bf                                  8      0.0000       0.00000       A     3.15417e-01     3.02311e-01    ;  uncertainty sigma = 0.000023, epsilon = 0.001113
 c13bf                                  6      0.0000       0.00000       A     3.31510e-01     4.13658e-01    ;  uncertainty sigma = 0.000011, epsilon = 0.000806
 c14bf                                  6      0.0000       0.00000       A     3.31518e-01     4.13462e-01    ;  uncertainty sigma = 0.000002, epsilon = 0.000591
 c15bf                                  6      0.0000       0.00000       A     3.31523e-01     4.13492e-01    ;  uncertainty sigma = 0.000004, epsilon = 0.000562
 c16bf                                  6      0.0000       0.00000       A     3.31532e-01     4.13144e-01    ;  uncertainty sigma = 0.000004, epsilon = 0.000546
 c17bf                                  6      0.0000       0.00000       A     3.31523e-01     4.13492e-01    ;  uncertainty sigma = 0.000004, epsilon = 0.000562
 c18bf                                  6      0.0000       0.00000       A     3.31518e-01     4.13462e-01    ;  uncertainty sigma = 0.000002, epsilon = 0.000591
 cl19bf                                17      0.0000       0.00000       A     3.46630e-01     1.10437e+00    ;  uncertainty sigma = 0.000011, epsilon = 0.001278
 h20bf                                  1      0.0000       0.00000       A     2.62605e-01     6.70434e-02    ;  uncertainty sigma = 0.000027, epsilon = 0.000759
 h21bf                                  1      0.0000       0.00000       A     2.53593e-01     6.72766e-02    ;  uncertainty sigma = 0.000100, epsilon = 0.001112
 h22bf                                  1      0.0000       0.00000       A     2.53659e-01     6.69732e-02    ;  uncertainty sigma = 0.000032, epsilon = 0.000842
 h23bf                                  1      0.0000       0.00000       A     2.62555e-01     6.71248e-02    ;  uncertainty sigma = 0.000005, epsilon = 0.000438
 h24bf                                  1      0.0000       0.00000       A     2.62563e-01     6.70436e-02    ;  uncertainty sigma = 0.000011, epsilon = 0.000615
 h25bf                                  1      0.0000       0.00000       A     2.62563e-01     6.70436e-02    ;  uncertainty sigma = 0.000011, epsilon = 0.000615
 h26bf                                  1      0.0000       0.00000       A     2.62555e-01     6.71248e-02    ;  uncertainty sigma = 0.000005, epsilon = 0.000438
 c27bf                                  6      0.0000       0.00000       A     3.39772e-01     4.50982e-01    ;  uncertainty sigma = 0.000006, epsilon = 0.000555
 h28bf                                  1      0.0000       0.00000       A     2.42207e-01     8.67307e-02    ;  uncertainty sigma = 0.000016, epsilon = 0.000496
 h29bf                                  1      0.0000       0.00000       A     2.42207e-01     8.67308e-02    ;  uncertainty sigma = 0.000016, epsilon = 0.000496
 h30bf                                  1      0.0000       0.00000       A     2.42207e-01     8.67307e-02    ;  uncertainty sigma = 0.000016, epsilon = 0.000496

[ moleculetype ]
;name             nrexcl
 MOL                   3

[ atoms ]
;       nr            type      resi   res      atom      cgnr      charge          mass ; qtot
         1            c0bf         1   UNL        c0         1    -0.11376       12.0110 ; qtot   -0.114
         2            c1bf         1   UNL        c1         2    -0.03717       12.0110 ; qtot   -0.151
         3            c2bf         1   UNL        c2         3     0.42651       12.0110 ; qtot    0.276
         4            c3bf         1   UNL        c3         4    -0.07001       12.0110 ; qtot    0.206
         5            c4bf         1   UNL        c4         5     0.04335       12.0110 ; qtot    0.249
         6            c5bf         1   UNL        c5         6     0.35575       12.0110 ; qtot    0.605
         7            c6bf         1   UNL        c6         7    -0.13803       12.0110 ; qtot    0.467
         8            o7bf         1   UNL        o7         8    -0.42174       15.9990 ; qtot    0.045
         9            c8bf         1   UNL        c8         9     0.67312       12.0110 ; qtot    0.718
        10            o9bf         1   UNL        o9        10    -0.52270       15.9990 ; qtot    0.195
        11           n10bf         1   UNL       n10        11    -0.64087       14.0070 ; qtot   -0.446
        12           s11bf         1   UNL       s11        12     0.01670       32.0670 ; qtot   -0.429
        13           o12bf         1   UNL       o12        13    -0.24264       15.9990 ; qtot   -0.671
        14           c13bf         1   UNL       c13        14     0.11070       12.0110 ; qtot   -0.561
        15           c14bf         1   UNL       c14        15    -0.14772       12.0110 ; qtot   -0.709
        16           c15bf         1   UNL       c15        16    -0.09747       12.0110 ; qtot   -0.806
        17           c16bf         1   UNL       c16        17     0.01479       12.0110 ; qtot   -0.791
        18           c17bf         1   UNL       c17        18    -0.09747       12.0110 ; qtot   -0.889
        19           c18bf         1   UNL       c18        19    -0.14772       12.0110 ; qtot   -1.036
        20          cl19bf         1   UNL      cl19        20    -0.11722       35.4530 ; qtot   -1.154
        21           h20bf         1   UNL       h20        21     0.18058        1.0080 ; qtot   -0.973
        22           h21bf         1   UNL       h21        22     0.03043        1.0080 ; qtot   -0.943
        23           h22bf         1   UNL       h22        23     0.03867        1.0080 ; qtot   -0.904
        24           h23bf         1   UNL       h23        24     0.15269        1.0080 ; qtot   -0.751
        25           h24bf         1   UNL       h24        25     0.15337        1.0080 ; qtot   -0.598
        26           h25bf         1   UNL       h25        26     0.15337        1.0080 ; qtot   -0.444
        27           h26bf         1   UNL       h26        27     0.15269        1.0080 ; qtot   -0.292
        28           c27bf         1   UNL       c27        28     0.12959       12.0110 ; qtot   -0.162
        29           h28bf         1   UNL       h28        29     0.05408        1.0080 ; qtot   -0.108
        30           h29bf         1   UNL       h29        30     0.05408        1.0080 ; qtot   -0.054
        31           h30bf         1   UNL       h30        31     0.05405        1.0080 ; qtot   -0.000

[ bonds ]
;       ai        aj funct               r               k
         1         2     1        0.136845   408052.822949    ;  uncertainty r = 0.000056, k = 4.164647
         1         9     1        0.147483   270026.457764    ;  uncertainty r = 0.000108, k = 9.588190
         1        12     1        0.175773   170213.235693    ;  uncertainty r = 0.000131, k = 17.858741
         2         4     1        0.143312   247551.733008    ;  uncertainty r = 0.000127, k = 6.180436
         2        21     1        0.108346   334059.406055    ;  uncertainty r = 0.000046, k = 0.904939
         3         7     1        0.139910   357612.154346    ;  uncertainty r = 0.000104, k = 9.184217
         3        11     1        0.132914   403937.670996    ;  uncertainty r = 0.000085, k = 3.484706
         3        22     1        0.108996   332692.021533    ;  uncertainty r = 0.000016, k = 2.312073
         4         5     1        0.140222   351117.403467    ;  uncertainty r = 0.000056, k = 7.362044
         4         7     1        0.141294   373779.315234    ;  uncertainty r = 0.000074, k = 14.937750
         5         6     1        0.138631   347797.783545    ;  uncertainty r = 0.000072, k = 10.298013
         5        13     1        0.137597   318910.792773    ;  uncertainty r = 0.000055, k = 12.405238
         6        11     1        0.134435   379665.874316    ;  uncertainty r = 0.000185, k = 8.749163
         6        23     1        0.108927   339756.581934    ;  uncertainty r = 0.000043, k = 5.117425
         7        12     1        0.174952   181716.222314    ;  uncertainty r = 0.000088, k = 9.944306
         8         9     1        0.135057   319099.384326    ;  uncertainty r = 0.000061, k = 13.208914
         8        28     1        0.144163   236603.718848    ;  uncertainty r = 0.000095, k = 6.367706
         9        10     1        0.122077   651360.850195    ;  uncertainty r = 0.000057, k = 2.893259
        13        14     1        0.138284   318274.791064    ;  uncertainty r = 0.000075, k = 8.099025
        14        15     1        0.139423   356196.504687    ;  uncertainty r = 0.000043, k = 1.660662
        14        19     1        0.139423   356196.504687    ;  uncertainty r = 0.000043, k = 1.660662
        15        16     1        0.139179   373143.287988    ;  uncertainty r = 0.000009, k = 2.388054
        15        24     1        0.108786   336460.507227    ;  uncertainty r = 0.000014, k = 1.146262
        16        17     1        0.139495   363006.460107    ;  uncertainty r = 0.000019, k = 1.852841
        16        25     1        0.108702   334843.344238    ;  uncertainty r = 0.000027, k = 0.886329
        17        18     1        0.139495   363006.460107    ;  uncertainty r = 0.000019, k = 1.852841
        17        20     1        0.175852   197478.236963    ;  uncertainty r = 0.000021, k = 4.301143
        18        19     1        0.139179   373143.287988    ;  uncertainty r = 0.000009, k = 2.388054
        18        26     1        0.108702   334843.344238    ;  uncertainty r = 0.000027, k = 0.886329
        19        27     1        0.108786   336460.507227    ;  uncertainty r = 0.000014, k = 1.146262
        28        29     1        0.109239   309100.686670    ;  uncertainty r = 0.000007, k = 1.358415
        28        30     1        0.109239   309100.686670    ;  uncertainty r = 0.000007, k = 1.358415
        28        31     1        0.109239   309100.661133    ;  uncertainty r = 0.000007, k = 1.358412

[ angles ]
;       ai        aj        ak funct           theta             cth
         1         2         4     1      113.002792      683.989513    ;  uncertainty theta = 0.004632, k = 0.173050
         1         2        21     1      120.767906      250.428562    ;  uncertainty theta = 0.005078, k = 0.129139
         1         9         8     1      110.465553      393.158291    ;  uncertainty theta = 0.002609, k = 0.162729
         1         9        10     1      125.862083      473.650717    ;  uncertainty theta = 0.001395, k = 0.116825
         1        12         7     1       89.901772     1190.924373    ;  uncertainty theta = 0.002558, k = 0.231323
         2         1         9     1      122.878883      348.504006    ;  uncertainty theta = 0.008318, k = 0.247202
         2         1        12     1      115.158310      475.626460    ;  uncertainty theta = 0.006103, k = 0.091813
         2         4         5     1      127.912125      376.521279    ;  uncertainty theta = 0.003381, k = 0.193439
         2         4         7     1      112.820023      583.754379    ;  uncertainty theta = 0.000950, k = 0.273706
         3         7         4     1      118.387733      374.351072    ;  uncertainty theta = 0.003974, k = 0.231277
         3         7        12     1      126.495995      363.514783    ;  uncertainty theta = 0.002386, k = 0.198376
         3        11         6     1      120.842484      402.797848    ;  uncertainty theta = 0.002548, k = 0.205041
         4         2        21     1      122.452209      247.513118    ;  uncertainty theta = 0.005203, k = 0.117530
         4         5         6     1      119.467087      390.991595    ;  uncertainty theta = 0.005506, k = 0.218242
         4         5        13     1      119.374634      396.934336    ;  uncertainty theta = 0.006936, k = 0.149660
         4         7        12     1      111.151329      501.142118    ;  uncertainty theta = 0.005615, k = 0.152665
         5         4         7     1      115.433388      426.241010    ;  uncertainty theta = 0.007002, k = 0.242606
         5         6        11     1      124.514183      661.788444    ;  uncertainty theta = 0.003510, k = 0.148398
         5         6        23     1      119.349350      264.281662    ;  uncertainty theta = 0.001084, k = 0.195892
         5        13        14     1      112.893166      470.825387    ;  uncertainty theta = 0.002135, k = 0.157860
         6         5        13     1      119.648598      413.022300    ;  uncertainty theta = 0.006887, k = 0.248373
         7         3        11     1      121.577393      691.670692    ;  uncertainty theta = 0.002176, k = 0.120581
         7         3        22     1      122.269653      288.569815    ;  uncertainty theta = 0.002423, k = 0.090492
         8         9        10     1      124.072495      674.663552    ;  uncertainty theta = 0.002138, k = 0.076710
         8        28        29     1      108.397072      434.351851    ;  uncertainty theta = 0.000698, k = 0.024333
         8        28        30     1      108.397072      434.351851    ;  uncertainty theta = 0.000698, k = 0.024333
         8        28        31     1      108.397072      434.351851    ;  uncertainty theta = 0.000698, k = 0.024333
         9         1        12     1      117.490456      320.136523    ;  uncertainty theta = 0.011534, k = 0.140130
         9         8        28     1      112.526413      518.226859    ;  uncertainty theta = 0.001050, k = 0.093042
        11         3        22     1      116.879013      331.081122    ;  uncertainty theta = 0.001934, k = 0.154842
        11         6        23     1      116.582138      339.078387    ;  uncertainty theta = 0.002044, k = 0.073114
        13        14        15     1      119.605370      414.485353    ;  uncertainty theta = 0.003848, k = 0.027613
        13        14        19     1      119.605370      414.485353    ;  uncertainty theta = 0.003848, k = 0.027613
        14        15        16     1      119.070030      516.640143    ;  uncertainty theta = 0.002096, k = 0.087661
        14        15        24     1      120.543640      275.370864    ;  uncertainty theta = 0.001603, k = 0.031522
        14        19        18     1      119.070030      516.640143    ;  uncertainty theta = 0.002096, k = 0.087661
        14        19        27     1      120.543640      275.370864    ;  uncertainty theta = 0.001603, k = 0.031522
        15        14        19     1      121.385071      388.674390    ;  uncertainty theta = 0.003318, k = 0.099530
        15        16        17     1      119.072433      503.912990    ;  uncertainty theta = 0.001237, k = 0.034021
        15        16        25     1      120.368881      279.362761    ;  uncertainty theta = 0.002070, k = 0.019960
        16        15        24     1      120.542198      288.492916    ;  uncertainty theta = 0.001251, k = 0.027493
        16        17        18     1      120.545288      372.862993    ;  uncertainty theta = 0.001637, k = 0.046553
        16        17        20     1      120.352928      443.931332    ;  uncertainty theta = 0.001270, k = 0.021859
        17        16        25     1      120.931236      284.614308    ;  uncertainty theta = 0.001296, k = 0.014096
        17        18        19     1      119.072433      503.912990    ;  uncertainty theta = 0.001237, k = 0.034021
        17        18        26     1      120.931236      284.614308    ;  uncertainty theta = 0.001296, k = 0.014096
        18        17        20     1      120.352928      443.931332    ;  uncertainty theta = 0.001270, k = 0.021859
        18        19        27     1      120.542198      288.492916    ;  uncertainty theta = 0.001251, k = 0.027493
        19        18        26     1      120.368881      279.362761    ;  uncertainty theta = 0.002070, k = 0.019960
        29        28        30     1      109.129700      326.664510    ;  uncertainty theta = 0.001445, k = 0.015843
        29        28        31     1      109.129700      326.664510    ;  uncertainty theta = 0.001445, k = 0.015843
        30        28        31     1      109.129700      326.664510    ;  uncertainty theta = 0.001445, k = 0.015843

[ dihedrals ] ; propers for gromacs 4.5 or higher, use funct 9
;       ai        aj        ak        al funct           phase               k        pn
         1         2         4         5     9        0.000000       -0.304075         1    ;  uncertainty k = 0.500429
         1         2         4         5     9      180.000000        7.633954         2    ;  uncertainty k = 0.729903
         1         2         4         5     9        0.000000        0.690028         3    ;  uncertainty k = 0.364741
         1         2         4         5     9      180.000000        0.580594         4    ;  uncertainty k = 0.333788
         1         2         4         7     9        0.000000       -0.094316         1    ;  uncertainty k = 0.714776
         1         2         4         7     9      180.000000       13.009205         2    ;  uncertainty k = 0.562322
         1         2         4         7     9        0.000000       -5.151816         3    ;  uncertainty k = 1.736195
         1         2         4         7     9      180.000000        1.249796         4    ;  uncertainty k = 0.415554
         1         9         8        28     9        0.000000        1.312124         1    ;  uncertainty k = 0.440442
         1         9         8        28     9      180.000000        9.843338         2    ;  uncertainty k = 0.120345
         1         9         8        28     9        0.000000        1.063594         3    ;  uncertainty k = 0.274829
         1         9         8        28     9      180.000000        0.274149         4    ;  uncertainty k = 0.163011
         1        12         7         3     9        0.000000       -1.033310         1    ;  uncertainty k = 2.251624
         1        12         7         3     9      180.000000        7.666033         2    ;  uncertainty k = 0.651262
         1        12         7         3     9        0.000000        0.851013         3    ;  uncertainty k = 0.452606
         1        12         7         3     9      180.000000        0.565082         4    ;  uncertainty k = 0.400238
         1        12         7         4     9        0.000000       -0.338116         1    ;  uncertainty k = 1.110668
         1        12         7         4     9      180.000000       14.625696         2    ;  uncertainty k = 0.643270
         1        12         7         4     9        0.000000       -6.917427         3    ;  uncertainty k = 0.998841
         1        12         7         4     9      180.000000        0.530785         4    ;  uncertainty k = 0.849967
         2         1         9         8     9        0.000000        1.141111         1    ;  uncertainty k = 0.950850
         2         1         9         8     9      180.000000        3.092606         2    ;  uncertainty k = 0.126319
         2         1         9         8     9        0.000000        0.534914         3    ;  uncertainty k = 0.168514
         2         1         9         8     9      180.000000        0.175607         4    ;  uncertainty k = 0.071833
         2         1         9        10     9        0.000000       -0.289382         1    ;  uncertainty k = 0.968333
         2         1         9        10     9      180.000000        3.545630         2    ;  uncertainty k = 0.242104
         2         1         9        10     9        0.000000        0.611160         3    ;  uncertainty k = 0.169131
         2         1         9        10     9      180.000000       -0.238360         4    ;  uncertainty k = 0.115654
         2         1        12         7     9        0.000000       -0.758403         1    ;  uncertainty k = 0.787651
         2         1        12         7     9      180.000000       13.198626         2    ;  uncertainty k = 0.555174
         2         1        12         7     9        0.000000       -6.159811         3    ;  uncertainty k = 1.498864
         2         1        12         7     9      180.000000        1.516332         4    ;  uncertainty k = 0.380813
         2         4         5         6     9        0.000000       -0.157543         1    ;  uncertainty k = 0.820835
         2         4         5         6     9      180.000000        5.674377         2    ;  uncertainty k = 0.645429
         2         4         5         6     9        0.000000        0.590448         3    ;  uncertainty k = 0.251758
         2         4         5         6     9      180.000000        1.242792         4    ;  uncertainty k = 0.269211
         2         4         5        13     9        0.000000        0.021311         1    ;  uncertainty k = 0.545733
         2         4         5        13     9      180.000000        7.749635         2    ;  uncertainty k = 0.577483
         2         4         5        13     9        0.000000        1.285376         3    ;  uncertainty k = 0.324240
         2         4         5        13     9      180.000000        1.309156         4    ;  uncertainty k = 0.319581
         2         4         7         3     9        0.000000       -0.178738         1    ;  uncertainty k = 0.794783
         2         4         7         3     9      180.000000        7.904881         2    ;  uncertainty k = 0.468145
         2         4         7         3     9        0.000000        0.435431         3    ;  uncertainty k = 0.439263
         2         4         7         3     9      180.000000        1.409279         4    ;  uncertainty k = 0.239824
         2         4         7        12     9        0.000000       -0.357093         1    ;  uncertainty k = 0.557442
         2         4         7        12     9      180.000000       10.120348         2    ;  uncertainty k = 0.546985
         2         4         7        12     9        0.000000       -0.600406         3    ;  uncertainty k = 0.822594
         2         4         7        12     9      180.000000        1.365987         4    ;  uncertainty k = 0.224940
         3         7         4         5     9        0.000000       -0.394348         1    ;  uncertainty k = 0.476964
         3         7         4         5     9      180.000000        8.389742         2    ;  uncertainty k = 0.751716
         3         7         4         5     9        0.000000        0.085579         3    ;  uncertainty k = 0.090078
         3         7         4         5     9      180.000000        1.202040         4    ;  uncertainty k = 0.247198
         3        11         6         5     9        0.000000        0.208590         1    ;  uncertainty k = 0.394723
         3        11         6         5     9      180.000000       13.469351         2    ;  uncertainty k = 0.107582
         3        11         6         5     9        0.000000        1.053566         3    ;  uncertainty k = 0.582690
         3        11         6         5     9      180.000000        1.316363         4    ;  uncertainty k = 0.280578
         3        11         6        23     9        0.000000        0.392802         1    ;  uncertainty k = 0.307760
         3        11         6        23     9      180.000000       13.819319         2    ;  uncertainty k = 0.400371
         3        11         6        23     9        0.000000        2.178342         3    ;  uncertainty k = 0.456587
         3        11         6        23     9      180.000000        1.475511         4    ;  uncertainty k = 0.350536
         4         2         1         9     9        0.000000        0.629641         1    ;  uncertainty k = 0.353818
         4         2         1         9     9      180.000000       15.602149         2    ;  uncertainty k = 0.172777
         4         2         1         9     9        0.000000        1.856581         3    ;  uncertainty k = 0.501883
         4         2         1         9     9      180.000000        1.062489         4    ;  uncertainty k = 0.159846
         4         2         1        12     9        0.000000       -0.251571         1    ;  uncertainty k = 0.456730
         4         2         1        12     9      180.000000       18.524731         2    ;  uncertainty k = 0.390058
         4         2         1        12     9        0.000000       -1.224887         3    ;  uncertainty k = 0.851992
         4         2         1        12     9      180.000000        1.056104         4    ;  uncertainty k = 0.563317
         4         5         6        11     9        0.000000       -0.186013         1    ;  uncertainty k = 0.806087
         4         5         6        11     9      180.000000       11.871925         2    ;  uncertainty k = 0.391210
         4         5         6        11     9        0.000000        0.168810         3    ;  uncertainty k = 0.423168
         4         5         6        11     9      180.000000        1.223565         4    ;  uncertainty k = 0.180399
         4         5         6        23     9        0.000000        0.149079         1    ;  uncertainty k = 0.359431
         4         5         6        23     9      180.000000        6.233937         2    ;  uncertainty k = 0.486027
         4         5         6        23     9        0.000000        1.368626         3    ;  uncertainty k = 0.442315
         4         5         6        23     9      180.000000        1.555803         4    ;  uncertainty k = 0.142393
         4         5        13        14     9        0.000000        4.367081         1    ;  uncertainty k = 0.814577
         4         5        13        14     9      180.000000        4.970789         2    ;  uncertainty k = 0.465309
         4         5        13        14     9        0.000000        0.412393         3    ;  uncertainty k = 0.168846
         4         5        13        14     9      180.000000        0.153174         4    ;  uncertainty k = 0.084949
         4         7         3        11     9        0.000000       -0.323112         1    ;  uncertainty k = 0.972225
         4         7         3        11     9      180.000000       12.829216         2    ;  uncertainty k = 0.301945
         4         7         3        11     9        0.000000       -1.124616         3    ;  uncertainty k = 0.623873
         4         7         3        11     9      180.000000        0.672848         4    ;  uncertainty k = 0.375734
         4         7         3        22     9        0.000000       -0.378300         1    ;  uncertainty k = 0.684185
         4         7         3        22     9      180.000000        5.340422         2    ;  uncertainty k = 0.572691
         4         7         3        22     9        0.000000        1.193202         3    ;  uncertainty k = 0.205240
         4         7         3        22     9      180.000000        1.068929         4    ;  uncertainty k = 0.240875
         5         4         2        21     9        0.000000        0.278272         1    ;  uncertainty k = 1.523720
         5         4         2        21     9      180.000000        4.577664         2    ;  uncertainty k = 0.891683
         5         4         2        21     9        0.000000        0.983705         3    ;  uncertainty k = 0.354351
         5         4         2        21     9      180.000000        0.081631         4    ;  uncertainty k = 0.072206
         5         4         7        12     9        0.000000        0.541265         1    ;  uncertainty k = 0.320412
         5         4         7        12     9      180.000000        8.988208         2    ;  uncertainty k = 0.493474
         5         4         7        12     9        0.000000        0.227424         3    ;  uncertainty k = 0.518977
         5         4         7        12     9      180.000000        1.147108         4    ;  uncertainty k = 0.246369
         5        13        14        15     9        0.000000        3.998254         1    ;  uncertainty k = 0.449882
         5        13        14        15     9      180.000000        4.753534         2    ;  uncertainty k = 0.233881
         5        13        14        15     9        0.000000        0.581546         3    ;  uncertainty k = 0.096882
         5        13        14        15     9      180.000000        0.162418         4    ;  uncertainty k = 0.088808
         5        13        14        19     9        0.000000        3.998254         1    ;  uncertainty k = 0.449882
         5        13        14        19     9      180.000000        4.753534         2    ;  uncertainty k = 0.233881
         5        13        14        19     9        0.000000        0.581546         3    ;  uncertainty k = 0.096882
         5        13        14        19     9      180.000000        0.162418         4    ;  uncertainty k = 0.088808
         6         5         4         7     9        0.000000       -0.073047         1    ;  uncertainty k = 0.269992
         6         5         4         7     9      180.000000        9.299140         2    ;  uncertainty k = 0.678998
         6         5         4         7     9        0.000000       -0.745903         3    ;  uncertainty k = 0.330575
         6         5         4         7     9      180.000000        0.954949         4    ;  uncertainty k = 0.183903
         6         5        13        14     9        0.000000        6.138326         1    ;  uncertainty k = 0.435754
         6         5        13        14     9      180.000000        4.387479         2    ;  uncertainty k = 0.390465
         6         5        13        14     9        0.000000        0.256709         3    ;  uncertainty k = 0.089021
         6         5        13        14     9      180.000000        0.147301         4    ;  uncertainty k = 0.081252
         6        11         3         7     9        0.000000       -0.522937         1    ;  uncertainty k = 0.846023
         6        11         3         7     9      180.000000       18.829674         2    ;  uncertainty k = 0.451967
         6        11         3         7     9        0.000000        1.070324         3    ;  uncertainty k = 0.484124
         6        11         3         7     9      180.000000        1.364626         4    ;  uncertainty k = 0.278322
         6        11         3        22     9        0.000000        0.132352         1    ;  uncertainty k = 0.093410
         6        11         3        22     9      180.000000       16.283310         2    ;  uncertainty k = 0.432587
         6        11         3        22     9        0.000000        2.340011         3    ;  uncertainty k = 0.313580
         6        11         3        22     9      180.000000        1.567589         4    ;  uncertainty k = 0.357860
         7         4         2        21     9        0.000000       -0.038175         1    ;  uncertainty k = 0.898690
         7         4         2        21     9      180.000000        7.941621         2    ;  uncertainty k = 0.550691
         7         4         2        21     9        0.000000        0.986255         3    ;  uncertainty k = 0.606366
         7         4         2        21     9      180.000000        0.343242         4    ;  uncertainty k = 0.234300
         7         4         5        13     9        0.000000       -0.076066         1    ;  uncertainty k = 0.450900
         7         4         5        13     9      180.000000        9.836669         2    ;  uncertainty k = 0.435404
         7         4         5        13     9        0.000000        1.230041         3    ;  uncertainty k = 0.229373
         7         4         5        13     9      180.000000        1.273997         4    ;  uncertainty k = 0.369745
         7        12         1         9     9        0.000000        0.099059         1    ;  uncertainty k = 1.149029
         7        12         1         9     9      180.000000        8.448351         2    ;  uncertainty k = 0.627708
         7        12         1         9     9        0.000000        0.928568         3    ;  uncertainty k = 1.207294
         7        12         1         9     9      180.000000        0.267713         4    ;  uncertainty k = 0.578092
         8         9         1        12     9        0.000000        0.497733         1    ;  uncertainty k = 0.752404
         8         9         1        12     9      180.000000        5.002462         2    ;  uncertainty k = 0.101364
         8         9         1        12     9        0.000000        0.353276         3    ;  uncertainty k = 0.233128
         8         9         1        12     9      180.000000        0.268686         4    ;  uncertainty k = 0.128026
         9         1         2        21     9        0.000000        0.214077         1    ;  uncertainty k = 0.867608
         9         1         2        21     9      180.000000       10.623200         2    ;  uncertainty k = 0.415010
         9         1         2        21     9        0.000000        1.499381         3    ;  uncertainty k = 0.265485
         9         1         2        21     9      180.000000        0.834276         4    ;  uncertainty k = 0.269162
         9         8        28        29     9        0.000000        4.781464         1    ;  uncertainty k = 0.455534
         9         8        28        29     9      180.000000        0.051444         2    ;  uncertainty k = 0.254926
         9         8        28        29     9        0.000000        0.534991         3    ;  uncertainty k = 0.103119
         9         8        28        29     9      180.000000        0.744394         4    ;  uncertainty k = 0.099401
         9         8        28        30     9        0.000000        4.781464         1    ;  uncertainty k = 0.455534
         9         8        28        30     9      180.000000        0.051444         2    ;  uncertainty k = 0.254926
         9         8        28        30     9        0.000000        0.534991         3    ;  uncertainty k = 0.103119
         9         8        28        30     9      180.000000        0.744394         4    ;  uncertainty k = 0.099401
         9         8        28        31     9        0.000000        4.781464         1    ;  uncertainty k = 0.455534
         9         8        28        31     9      180.000000        0.051444         2    ;  uncertainty k = 0.254926
         9         8        28        31     9        0.000000        0.534991         3    ;  uncertainty k = 0.103119
         9         8        28        31     9      180.000000        0.744394         4    ;  uncertainty k = 0.099401
        10         9         1        12     9        0.000000       -1.547174         1    ;  uncertainty k = 0.789709
        10         9         1        12     9      180.000000        6.073972         2    ;  uncertainty k = 0.109410
        10         9         1        12     9        0.000000        0.065733         3    ;  uncertainty k = 0.210096
        10         9         1        12     9      180.000000       -0.169850         4    ;  uncertainty k = 0.037538
        10         9         8        28     9        0.000000        4.611014         1    ;  uncertainty k = 0.696440
        10         9         8        28     9      180.000000       14.053244         2    ;  uncertainty k = 0.145011
        10         9         8        28     9        0.000000        0.093370         3    ;  uncertainty k = 0.380254
        10         9         8        28     9      180.000000        0.131312         4    ;  uncertainty k = 0.194065
        11         3         7        12     9        0.000000       -0.000716         1    ;  uncertainty k = 0.588328
        11         3         7        12     9      180.000000        7.844766         2    ;  uncertainty k = 0.521229
        11         3         7        12     9        0.000000        0.771227         3    ;  uncertainty k = 0.158502
        11         3         7        12     9      180.000000        1.283701         4    ;  uncertainty k = 0.450939
        11         6         5        13     9        0.000000        0.068728         1    ;  uncertainty k = 0.446029
        11         6         5        13     9      180.000000       12.021990         2    ;  uncertainty k = 0.403082
        11         6         5        13     9        0.000000        1.220735         3    ;  uncertainty k = 0.295039
        11         6         5        13     9      180.000000        1.602285         4    ;  uncertainty k = 0.190173
        12         1         2        21     9        0.000000        0.372670         1    ;  uncertainty k = 0.570503
        12         1         2        21     9      180.000000       12.251444         2    ;  uncertainty k = 0.705094
        12         1         2        21     9        0.000000        1.832333         3    ;  uncertainty k = 0.181813
        12         1         2        21     9      180.000000        1.304217         4    ;  uncertainty k = 0.214653
        12         7         3        22     9        0.000000       -0.095680         1    ;  uncertainty k = 0.552549
        12         7         3        22     9      180.000000        4.362545         2    ;  uncertainty k = 0.359845
        12         7         3        22     9        0.000000        0.712600         3    ;  uncertainty k = 0.421914
        12         7         3        22     9      180.000000        0.613623         4    ;  uncertainty k = 0.224987
        13         5         6        23     9        0.000000        0.012840         1    ;  uncertainty k = 0.273784
        13         5         6        23     9      180.000000        8.121104         2    ;  uncertainty k = 0.435011
        13         5         6        23     9        0.000000        0.875853         3    ;  uncertainty k = 0.228471
        13         5         6        23     9      180.000000        1.171043         4    ;  uncertainty k = 0.270200
        13        14        15        16     9        0.000000        0.012940         1    ;  uncertainty k = 0.228359
        13        14        15        16     9      180.000000       10.340595         2    ;  uncertainty k = 0.588374
        13        14        15        16     9        0.000000        1.386508         3    ;  uncertainty k = 0.278635
        13        14        15        16     9      180.000000        1.718833         4    ;  uncertainty k = 0.162981
        13        14        15        24     9        0.000000       -0.088836         1    ;  uncertainty k = 0.068913
        13        14        15        24     9      180.000000        8.191003         2    ;  uncertainty k = 0.225194
        13        14        15        24     9        0.000000        0.860883         3    ;  uncertainty k = 0.288123
        13        14        15        24     9      180.000000        1.121587         4    ;  uncertainty k = 0.126904
        13        14        19        18     9        0.000000        0.012940         1    ;  uncertainty k = 0.228359
        13        14        19        18     9      180.000000       10.340595         2    ;  uncertainty k = 0.588374
        13        14        19        18     9        0.000000        1.386508         3    ;  uncertainty k = 0.278635
        13        14        19        18     9      180.000000        1.718833         4    ;  uncertainty k = 0.162981
        13        14        19        27     9        0.000000       -0.088836         1    ;  uncertainty k = 0.068913
        13        14        19        27     9      180.000000        8.191003         2    ;  uncertainty k = 0.225194
        13        14        19        27     9        0.000000        0.860883         3    ;  uncertainty k = 0.288123
        13        14        19        27     9      180.000000        1.121587         4    ;  uncertainty k = 0.126904
        14        15        16        17     9        0.000000       -0.084812         1    ;  uncertainty k = 0.199187
        14        15        16        17     9      180.000000       14.596956         2    ;  uncertainty k = 0.244288
        14        15        16        17     9        0.000000       -0.776642         3    ;  uncertainty k = 0.624211
        14        15        16        17     9      180.000000        0.848971         4    ;  uncertainty k = 0.330797
        14        15        16        25     9        0.000000       -0.006201         1    ;  uncertainty k = 0.224829
        14        15        16        25     9      180.000000        7.941388         2    ;  uncertainty k = 0.233372
        14        15        16        25     9        0.000000        1.341388         3    ;  uncertainty k = 0.226117
        14        15        16        25     9      180.000000        1.800227         4    ;  uncertainty k = 0.150458
        14        19        18        17     9        0.000000       -0.084812         1    ;  uncertainty k = 0.199187
        14        19        18        17     9      180.000000       14.596956         2    ;  uncertainty k = 0.244288
        14        19        18        17     9        0.000000       -0.776642         3    ;  uncertainty k = 0.624211
        14        19        18        17     9      180.000000        0.848971         4    ;  uncertainty k = 0.330797
        14        19        18        26     9        0.000000       -0.006201         1    ;  uncertainty k = 0.224829
        14        19        18        26     9      180.000000        7.941388         2    ;  uncertainty k = 0.233372
        14        19        18        26     9        0.000000        1.341388         3    ;  uncertainty k = 0.226117
        14        19        18        26     9      180.000000        1.800227         4    ;  uncertainty k = 0.150458
        15        14        19        18     9        0.000000        0.021859         1    ;  uncertainty k = 0.058100
        15        14        19        18     9      180.000000        9.563230         2    ;  uncertainty k = 0.533115
        15        14        19        18     9        0.000000       -0.148114         3    ;  uncertainty k = 0.376128
        15        14        19        18     9      180.000000        1.132526         4    ;  uncertainty k = 0.362724
        15        14        19        27     9        0.000000        0.225608         1    ;  uncertainty k = 0.250641
        15        14        19        27     9      180.000000        6.088909         2    ;  uncertainty k = 0.717074
        15        14        19        27     9        0.000000        1.425839         3    ;  uncertainty k = 0.391710
        15        14        19        27     9      180.000000        1.548148         4    ;  uncertainty k = 0.166724
        15        16        17        18     9        0.000000       -0.072057         1    ;  uncertainty k = 0.151933
        15        16        17        18     9      180.000000       10.503747         2    ;  uncertainty k = 0.409738
        15        16        17        18     9        0.000000       -0.388981         3    ;  uncertainty k = 0.497522
        15        16        17        18     9      180.000000        0.994175         4    ;  uncertainty k = 0.364995
        15        16        17        20     9        0.000000       -0.046877         1    ;  uncertainty k = 0.158967
        15        16        17        20     9      180.000000        9.185201         2    ;  uncertainty k = 0.550764
        15        16        17        20     9        0.000000        1.540013         3    ;  uncertainty k = 0.421444
        15        16        17        20     9      180.000000        1.637278         4    ;  uncertainty k = 0.144228
        16        15        14        19     9        0.000000        0.021859         1    ;  uncertainty k = 0.058100
        16        15        14        19     9      180.000000        9.563230         2    ;  uncertainty k = 0.533115
        16        15        14        19     9        0.000000       -0.148114         3    ;  uncertainty k = 0.376128
        16        15        14        19     9      180.000000        1.132526         4    ;  uncertainty k = 0.362724
        16        17        18        19     9        0.000000       -0.072057         1    ;  uncertainty k = 0.151933
        16        17        18        19     9      180.000000       10.503747         2    ;  uncertainty k = 0.409738
        16        17        18        19     9        0.000000       -0.388981         3    ;  uncertainty k = 0.497522
        16        17        18        19     9      180.000000        0.994175         4    ;  uncertainty k = 0.364995
        16        17        18        26     9        0.000000       -0.010357         1    ;  uncertainty k = 0.158180
        16        17        18        26     9      180.000000        6.039204         2    ;  uncertainty k = 0.577702
        16        17        18        26     9        0.000000        1.377794         3    ;  uncertainty k = 0.357667
        16        17        18        26     9      180.000000        1.517206         4    ;  uncertainty k = 0.203459
        17        16        15        24     9        0.000000        0.090333         1    ;  uncertainty k = 0.111265
        17        16        15        24     9      180.000000        7.948741         2    ;  uncertainty k = 0.316292
        17        16        15        24     9        0.000000        1.466779         3    ;  uncertainty k = 0.281186
        17        16        15        24     9      180.000000        1.885531         4    ;  uncertainty k = 0.162729
        17        18        19        27     9        0.000000        0.090333         1    ;  uncertainty k = 0.111265
        17        18        19        27     9      180.000000        7.948741         2    ;  uncertainty k = 0.316292
        17        18        19        27     9        0.000000        1.466779         3    ;  uncertainty k = 0.281186
        17        18        19        27     9      180.000000        1.885531         4    ;  uncertainty k = 0.162729
        18        17        16        25     9        0.000000       -0.010357         1    ;  uncertainty k = 0.158180
        18        17        16        25     9      180.000000        6.039204         2    ;  uncertainty k = 0.577702
        18        17        16        25     9        0.000000        1.377794         3    ;  uncertainty k = 0.357667
        18        17        16        25     9      180.000000        1.517206         4    ;  uncertainty k = 0.203459
        19        14        15        24     9        0.000000        0.225608         1    ;  uncertainty k = 0.250641
        19        14        15        24     9      180.000000        6.088909         2    ;  uncertainty k = 0.717074
        19        14        15        24     9        0.000000        1.425839         3    ;  uncertainty k = 0.391710
        19        14        15        24     9      180.000000        1.548148         4    ;  uncertainty k = 0.166724
        19        18        17        20     9        0.000000       -0.046877         1    ;  uncertainty k = 0.158967
        19        18        17        20     9      180.000000        9.185201         2    ;  uncertainty k = 0.550764
        19        18        17        20     9        0.000000        1.540013         3    ;  uncertainty k = 0.421444
        19        18        17        20     9      180.000000        1.637279         4    ;  uncertainty k = 0.144228
        20        17        16        25     9        0.000000       -0.189172         1    ;  uncertainty k = 0.151100
        20        17        16        25     9      180.000000        7.284958         2    ;  uncertainty k = 0.254965
        20        17        16        25     9        0.000000        0.631882         3    ;  uncertainty k = 0.368223
        20        17        16        25     9      180.000000        0.954031         4    ;  uncertainty k = 0.182884
        20        17        18        26     9        0.000000       -0.189172         1    ;  uncertainty k = 0.151100
        20        17        18        26     9      180.000000        7.284958         2    ;  uncertainty k = 0.254965
        20        17        18        26     9        0.000000        0.631882         3    ;  uncertainty k = 0.368223
        20        17        18        26     9      180.000000        0.954031         4    ;  uncertainty k = 0.182884
        24        15        16        25     9        0.000000       -0.093943         1    ;  uncertainty k = 0.178369
        24        15        16        25     9      180.000000        7.626056         2    ;  uncertainty k = 0.397032
        24        15        16        25     9        0.000000       -0.417074         3    ;  uncertainty k = 0.239577
        24        15        16        25     9      180.000000        0.127936         4    ;  uncertainty k = 0.124753
        26        18        19        27     9        0.000000       -0.093943         1    ;  uncertainty k = 0.178369
        26        18        19        27     9      180.000000        7.626056         2    ;  uncertainty k = 0.397032
        26        18        19        27     9        0.000000       -0.417074         3    ;  uncertainty k = 0.239577
        26        18        19        27     9      180.000000        0.127936         4    ;  uncertainty k = 0.124753

[ dihedrals ] ; impropers
;       ai        aj        ak        al funct           phase               k        pn
         1         2         9        12     4      180.000000        2.208118         2    ;  uncertainty k = 0.365361
         1         9        12         2     4      180.000000        2.208118         2    ;  uncertainty k = 0.365361
         1        12         2         9     4      180.000000        2.208118         2    ;  uncertainty k = 0.365361
         2         1         4        21     4      180.000000        2.171306         2    ;  uncertainty k = 0.546133
         2         4        21         1     4      180.000000        2.171306         2    ;  uncertainty k = 0.546133
         2        21         1         4     4      180.000000        2.171306         2    ;  uncertainty k = 0.546133
         3         7        11        22     4      180.000000       13.010149         2    ;  uncertainty k = 0.090114
         3        11        22         7     4      180.000000       13.010149         2    ;  uncertainty k = 0.090114
         3        22         7        11     4      180.000000       13.010149         2    ;  uncertainty k = 0.090114
         4         2         5         7     4      180.000000        1.898028         2    ;  uncertainty k = 0.692203
         4         5         7         2     4      180.000000        1.898028         2    ;  uncertainty k = 0.692203
         4         7         2         5     4      180.000000        1.898028         2    ;  uncertainty k = 0.692203
         5         4         6        13     4      180.000000       15.472490         2    ;  uncertainty k = 0.117358
         5         6        13         4     4      180.000000       15.472490         2    ;  uncertainty k = 0.117358
         5        13         4         6     4      180.000000       15.472490         2    ;  uncertainty k = 0.117358
         6         5        11        23     4      180.000000        9.523657         2    ;  uncertainty k = 0.155815
         6        11        23         5     4      180.000000        9.523657         2    ;  uncertainty k = 0.155815
         6        23         5        11     4      180.000000        9.523657         2    ;  uncertainty k = 0.155815
         7         3         4        12     4      180.000000        1.063580         2    ;  uncertainty k = 0.824220
         7         4        12         3     4      180.000000        1.063580         2    ;  uncertainty k = 0.824220
         7        12         3         4     4      180.000000        1.063580         2    ;  uncertainty k = 0.824220
         9         1         8        10     4      180.000000       53.656558         2    ;  uncertainty k = 0.021152
         9         8        10         1     4      180.000000       53.656558         2    ;  uncertainty k = 0.021152
         9        10         1         8     4      180.000000       53.656558         2    ;  uncertainty k = 0.021152
        14        13        15        19     4      180.000000       17.409305         2    ;  uncertainty k = 0.054636
        14        15        19        13     4      180.000000       17.409305         2    ;  uncertainty k = 0.054636
        14        19        13        15     4      180.000000       17.409305         2    ;  uncertainty k = 0.054636
        15        14        16        24     4      180.000000        3.008016         2    ;  uncertainty k = 0.105490
        15        16        24        14     4      180.000000        3.008016         2    ;  uncertainty k = 0.105490
        15        24        14        16     4      180.000000        3.008016         2    ;  uncertainty k = 0.105490
        16        15        17        25     4      180.000000        3.865517         2    ;  uncertainty k = 0.182529
        16        17        25        15     4      180.000000        3.865517         2    ;  uncertainty k = 0.182529
        16        25        15        17     4      180.000000        3.865517         2    ;  uncertainty k = 0.182529
        17        16        18        20     4      180.000000       12.038020         2    ;  uncertainty k = 0.044617
        17        18        20        16     4      180.000000       12.038020         2    ;  uncertainty k = 0.044617
        17        20        16        18     4      180.000000       12.038020         2    ;  uncertainty k = 0.044617
        18        17        19        26     4      180.000000        3.865515         2    ;  uncertainty k = 0.182529
        18        19        26        17     4      180.000000        3.865515         2    ;  uncertainty k = 0.182529
        18        26        17        19     4      180.000000        3.865515         2    ;  uncertainty k = 0.182529
        19        14        18        27     4      180.000000        3.008017         2    ;  uncertainty k = 0.105491
        19        18        27        14     4      180.000000        3.008017         2    ;  uncertainty k = 0.105491
        19        27        14        18     4      180.000000        3.008017         2    ;  uncertainty k = 0.105491

[ pairs ]
;       ai        aj funct
         1         3     1
         1         5     1
         1        28     1
         2         3     1
         2         6     1
         2         8     1
         2        10     1
         2        13     1
         3         5     1
         3        23     1
         4         9     1
         4        11     1
         4        14     1
         4        22     1
         4        23     1
         5        12     1
         5        15     1
         5        19     1
         5        21     1
         6         7     1
         6        14     1
         6        22     1
         7         9     1
         7        13     1
         7        21     1
         8        12     1
         9        21     1
         9        29     1
         9        30     1
         9        31     1
        10        12     1
        10        28     1
        11        12     1
        11        13     1
        12        21     1
        12        22     1
        13        16     1
        13        18     1
        13        23     1
        13        24     1
        13        27     1
        14        17     1
        14        25     1
        14        26     1
        15        18     1
        15        20     1
        15        27     1
        16        19     1
        16        26     1
        17        24     1
        17        27     1
        18        25     1
        19        20     1
        19        24     1
        20        25     1
        20        26     1
        24        25     1
        26        27     1
