; ITP file created by ByteFF-joint-25, 2025-07-14 11:36:08.799966

[ atomtypes ]
;name           bonded.type        at.num        mass        charge   ptype           sigma         epsilon
 c0bf                                   6      0.0000       0.00000       A     3.31534e-01     4.12199e-01    ;  uncertainty sigma = 0.000014, epsilon = 0.000899
 c1bf                                   6      0.0000       0.00000       A     3.31552e-01     4.12572e-01    ;  uncertainty sigma = 0.000009, epsilon = 0.001233
 c2bf                                   6      0.0000       0.00000       A     3.31539e-01     4.13533e-01    ;  uncertainty sigma = 0.000013, epsilon = 0.000944
 c3bf                                   6      0.0000       0.00000       A     3.31550e-01     4.13792e-01    ;  uncertainty sigma = 0.000006, epsilon = 0.000295
 c4bf                                   6      0.0000       0.00000       A     3.31519e-01     4.13403e-01    ;  uncertainty sigma = 0.000024, epsilon = 0.000623
 c5bf                                   6      0.0000       0.00000       A     3.31498e-01     4.12877e-01    ;  uncertainty sigma = 0.000005, epsilon = 0.000808
 c6bf                                   6      0.0000       0.00000       A     3.31542e-01     4.13439e-01    ;  uncertainty sigma = 0.000012, epsilon = 0.000778
 n7bf                                   7      0.0000       0.00000       A     3.26962e-01     4.90269e-01    ;  uncertainty sigma = 0.000036, epsilon = 0.002090
 c8bf                                   6      0.0000       0.00000       A     3.31515e-01     4.12851e-01    ;  uncertainty sigma = 0.000012, epsilon = 0.001170
 c9bf                                   6      0.0000       0.00000       A     3.39771e-01     4.51090e-01    ;  uncertainty sigma = 0.000011, epsilon = 0.000717
 o10bf                                  8      0.0000       0.00000       A     3.04830e-01     6.12071e-01    ;  uncertainty sigma = 0.000026, epsilon = 0.001133
 n11bf                                  7      0.0000       0.00000       A     3.38404e-01     3.93885e-01    ;  uncertainty sigma = 0.000020, epsilon = 0.001459
 s12bf                                 16      0.0000       0.00000       A     3.53274e-01     1.18127e+00    ;  uncertainty sigma = 0.000027, epsilon = 0.001624
 o13bf                                  8      0.0000       0.00000       A     3.15417e-01     3.02311e-01    ;  uncertainty sigma = 0.000023, epsilon = 0.001113
 c14bf                                  6      0.0000       0.00000       A     3.31510e-01     4.13658e-01    ;  uncertainty sigma = 0.000011, epsilon = 0.000806
 c15bf                                  6      0.0000       0.00000       A     3.31518e-01     4.13462e-01    ;  uncertainty sigma = 0.000002, epsilon = 0.000591
 c16bf                                  6      0.0000       0.00000       A     3.31523e-01     4.13492e-01    ;  uncertainty sigma = 0.000004, epsilon = 0.000562
 c17bf                                  6      0.0000       0.00000       A     3.31532e-01     4.13144e-01    ;  uncertainty sigma = 0.000004, epsilon = 0.000546
 c18bf                                  6      0.0000       0.00000       A     3.31523e-01     4.13492e-01    ;  uncertainty sigma = 0.000004, epsilon = 0.000562
 c19bf                                  6      0.0000       0.00000       A     3.31518e-01     4.13462e-01    ;  uncertainty sigma = 0.000002, epsilon = 0.000591
 cl20bf                                17      0.0000       0.00000       A     3.46630e-01     1.10437e+00    ;  uncertainty sigma = 0.000011, epsilon = 0.001278
 h21bf                                  1      0.0000       0.00000       A     2.62610e-01     6.70415e-02    ;  uncertainty sigma = 0.000018, epsilon = 0.000758
 h22bf                                  1      0.0000       0.00000       A     2.53593e-01     6.72766e-02    ;  uncertainty sigma = 0.000100, epsilon = 0.001112
 h23bf                                  1      0.0000       0.00000       A     2.53659e-01     6.69732e-02    ;  uncertainty sigma = 0.000032, epsilon = 0.000842
 h24bf                                  1      0.0000       0.00000       A     1.10703e-01     4.13688e-02    ;  uncertainty sigma = 0.000057, epsilon = 0.000703
 h25bf                                  1      0.0000       0.00000       A     2.42205e-01     8.66874e-02    ;  uncertainty sigma = 0.000013, epsilon = 0.000592
 h26bf                                  1      0.0000       0.00000       A     2.42205e-01     8.66874e-02    ;  uncertainty sigma = 0.000013, epsilon = 0.000592
 h27bf                                  1      0.0000       0.00000       A     2.42205e-01     8.66874e-02    ;  uncertainty sigma = 0.000013, epsilon = 0.000592
 h28bf                                  1      0.0000       0.00000       A     2.62555e-01     6.71248e-02    ;  uncertainty sigma = 0.000005, epsilon = 0.000438
 h29bf                                  1      0.0000       0.00000       A     2.62563e-01     6.70437e-02    ;  uncertainty sigma = 0.000011, epsilon = 0.000615
 h30bf                                  1      0.0000       0.00000       A     2.62563e-01     6.70437e-02    ;  uncertainty sigma = 0.000011, epsilon = 0.000615
 h31bf                                  1      0.0000       0.00000       A     2.62555e-01     6.71248e-02    ;  uncertainty sigma = 0.000005, epsilon = 0.000438

[ moleculetype ]
;name             nrexcl
 MOL                   3

[ atoms ]
;       nr            type      resi   res      atom      cgnr      charge          mass ; qtot
         1            c0bf         1   UNL        c0         1    -0.10877       12.0110 ; qtot   -0.109
         2            c1bf         1   UNL        c1         2    -0.05973       12.0110 ; qtot   -0.169
         3            c2bf         1   UNL        c2         3     0.42609       12.0110 ; qtot    0.258
         4            c3bf         1   UNL        c3         4    -0.06459       12.0110 ; qtot    0.193
         5            c4bf         1   UNL        c4         5     0.04064       12.0110 ; qtot    0.234
         6            c5bf         1   UNL        c5         6     0.35575       12.0110 ; qtot    0.589
         7            c6bf         1   UNL        c6         7    -0.13202       12.0110 ; qtot    0.457
         8            n7bf         1   UNL        n7         8    -0.56924       14.0070 ; qtot   -0.112
         9            c8bf         1   UNL        c8         9     0.69265       12.0110 ; qtot    0.581
        10            c9bf         1   UNL        c9        10     0.08670       12.0110 ; qtot    0.667
        11           o10bf         1   UNL       o10        11    -0.58852       15.9990 ; qtot    0.079
        12           n11bf         1   UNL       n11        12    -0.64087       14.0070 ; qtot   -0.562
        13           s12bf         1   UNL       s12        13    -0.02165       32.0670 ; qtot   -0.584
        14           o13bf         1   UNL       o13        14    -0.24264       15.9990 ; qtot   -0.826
        15           c14bf         1   UNL       c14        15     0.11070       12.0110 ; qtot   -0.715
        16           c15bf         1   UNL       c15        16    -0.14772       12.0110 ; qtot   -0.863
        17           c16bf         1   UNL       c16        17    -0.09747       12.0110 ; qtot   -0.961
        18           c17bf         1   UNL       c17        18     0.01479       12.0110 ; qtot   -0.946
        19           c18bf         1   UNL       c18        19    -0.09747       12.0110 ; qtot   -1.043
        20           c19bf         1   UNL       c19        20    -0.14772       12.0110 ; qtot   -1.191
        21          cl20bf         1   UNL      cl20        21    -0.11722       35.4530 ; qtot   -1.308
        22           h21bf         1   UNL       h21        22     0.17697        1.0080 ; qtot   -1.131
        23           h22bf         1   UNL       h22        23     0.03043        1.0080 ; qtot   -1.101
        24           h23bf         1   UNL       h23        24     0.03867        1.0080 ; qtot   -1.062
        25           h24bf         1   UNL       h24        25     0.31521        1.0080 ; qtot   -0.747
        26           h25bf         1   UNL       h25        26     0.04497        1.0080 ; qtot   -0.702
        27           h26bf         1   UNL       h26        27     0.04497        1.0080 ; qtot   -0.657
        28           h27bf         1   UNL       h27        28     0.04497        1.0080 ; qtot   -0.612
        29           h28bf         1   UNL       h28        29     0.15269        1.0080 ; qtot   -0.459
        30           h29bf         1   UNL       h29        30     0.15337        1.0080 ; qtot   -0.306
        31           h30bf         1   UNL       h30        31     0.15337        1.0080 ; qtot   -0.153
        32           h31bf         1   UNL       h31        32     0.15269        1.0080 ; qtot   -0.000

[ bonds ]
;       ai        aj funct               r               k
         1         2     1        0.136681   404875.393652    ;  uncertainty r = 0.000087, k = 2.966850
         1         9     1        0.148706   265979.847412    ;  uncertainty r = 0.000053, k = 16.749184
         1        13     1        0.175936   164998.813330    ;  uncertainty r = 0.000153, k = 15.168276
         2         4     1        0.143519   245838.116357    ;  uncertainty r = 0.000086, k = 13.337005
         2        22     1        0.108413   334749.086768    ;  uncertainty r = 0.000035, k = 1.448429
         3         7     1        0.139862   357185.020654    ;  uncertainty r = 0.000101, k = 8.409085
         3        12     1        0.132914   403937.670996    ;  uncertainty r = 0.000085, k = 3.484706
         3        23     1        0.108996   332692.021533    ;  uncertainty r = 0.000016, k = 2.312073
         4         5     1        0.140198   351630.878125    ;  uncertainty r = 0.000059, k = 7.105596
         4         7     1        0.141255   373665.113281    ;  uncertainty r = 0.000078, k = 14.753730
         5         6     1        0.138631   347797.783545    ;  uncertainty r = 0.000072, k = 10.298013
         5        14     1        0.137597   318910.792773    ;  uncertainty r = 0.000055, k = 12.405238
         6        12     1        0.134435   379665.874316    ;  uncertainty r = 0.000185, k = 8.749163
         6        24     1        0.108927   339756.581934    ;  uncertainty r = 0.000043, k = 5.117425
         7        13     1        0.175152   182493.763452    ;  uncertainty r = 0.000136, k = 10.777383
         8         9     1        0.137148   308776.799512    ;  uncertainty r = 0.000082, k = 17.117725
         8        10     1        0.145781   273648.820117    ;  uncertainty r = 0.000068, k = 8.492180
         8        25     1        0.101236   414002.050098    ;  uncertainty r = 0.000039, k = 5.933984
         9        11     1        0.123534   757086.730273    ;  uncertainty r = 0.000055, k = 12.311567
        10        26     1        0.109412   314263.192090    ;  uncertainty r = 0.000008, k = 2.276711
        10        27     1        0.109412   314263.192090    ;  uncertainty r = 0.000008, k = 2.276711
        10        28     1        0.109412   314263.192090    ;  uncertainty r = 0.000008, k = 2.276711
        14        15     1        0.138284   318274.791064    ;  uncertainty r = 0.000075, k = 8.099025
        15        16     1        0.139423   356196.504687    ;  uncertainty r = 0.000043, k = 1.660662
        15        20     1        0.139423   356196.504687    ;  uncertainty r = 0.000043, k = 1.660662
        16        17     1        0.139179   373143.287988    ;  uncertainty r = 0.000009, k = 2.388054
        16        29     1        0.108786   336460.507227    ;  uncertainty r = 0.000014, k = 1.146262
        17        18     1        0.139495   363006.460107    ;  uncertainty r = 0.000019, k = 1.852841
        17        30     1        0.108702   334843.344238    ;  uncertainty r = 0.000027, k = 0.886329
        18        19     1        0.139495   363006.460107    ;  uncertainty r = 0.000019, k = 1.852841
        18        21     1        0.175852   197478.236963    ;  uncertainty r = 0.000021, k = 4.301143
        19        20     1        0.139179   373143.287988    ;  uncertainty r = 0.000009, k = 2.388054
        19        31     1        0.108702   334843.318701    ;  uncertainty r = 0.000027, k = 0.886325
        20        32     1        0.108786   336460.481689    ;  uncertainty r = 0.000014, k = 1.146262

[ angles ]
;       ai        aj        ak funct           theta             cth
         1         2         4     1      113.007706      694.840550    ;  uncertainty theta = 0.002615, k = 0.209768
         1         2        22     1      121.401405      247.022119    ;  uncertainty theta = 0.004650, k = 0.217582
         1         9         8     1      115.091408      456.984082    ;  uncertainty theta = 0.002643, k = 0.185104
         1         9        11     1      122.711624      473.014492    ;  uncertainty theta = 0.005815, k = 0.168149
         1        13         7     1       90.152794     1161.222799    ;  uncertainty theta = 0.004191, k = 0.220002
         2         1         9     1      125.041733      293.645028    ;  uncertainty theta = 0.004317, k = 0.328622
         2         1        13     1      114.826401      467.245787    ;  uncertainty theta = 0.007887, k = 0.257337
         2         4         5     1      127.904686      375.875382    ;  uncertainty theta = 0.002685, k = 0.190331
         2         4         7     1      112.804001      582.659029    ;  uncertainty theta = 0.001441, k = 0.248664
         3         7         4     1      118.412918      375.063110    ;  uncertainty theta = 0.003960, k = 0.215840
         3         7        13     1      126.397415      363.426456    ;  uncertainty theta = 0.001984, k = 0.153960
         3        12         6     1      120.842484      402.797848    ;  uncertainty theta = 0.002548, k = 0.205041
         4         2        22     1      122.098244      248.614150    ;  uncertainty theta = 0.005938, k = 0.108728
         4         5         6     1      119.524513      391.141115    ;  uncertainty theta = 0.005581, k = 0.213545
         4         5        14     1      119.386940      395.416697    ;  uncertainty theta = 0.007236, k = 0.138991
         4         7        13     1      111.017113      499.495198    ;  uncertainty theta = 0.005808, k = 0.181308
         5         4         7     1      115.320740      426.213781    ;  uncertainty theta = 0.006948, k = 0.239149
         5         6        12     1      124.514183      661.788444    ;  uncertainty theta = 0.003510, k = 0.148398
         5         6        24     1      119.349350      264.281662    ;  uncertainty theta = 0.001084, k = 0.195892
         5        14        15     1      112.893166      470.825387    ;  uncertainty theta = 0.002135, k = 0.157860
         6         5        14     1      119.648598      413.022300    ;  uncertainty theta = 0.006887, k = 0.248373
         7         3        12     1      121.565308      690.810347    ;  uncertainty theta = 0.002110, k = 0.113863
         7         3        23     1      122.306641      288.040877    ;  uncertainty theta = 0.002283, k = 0.091097
         8         9        11     1      123.933128      777.980057    ;  uncertainty theta = 0.003756, k = 0.164138
         8        10        26     1      109.137833      462.190971    ;  uncertainty theta = 0.002325, k = 0.040935
         8        10        27     1      109.137833      462.190971    ;  uncertainty theta = 0.002325, k = 0.040935
         8        10        28     1      109.137833      462.190971    ;  uncertainty theta = 0.002325, k = 0.040935
         9         1        13     1      118.544632      289.482288    ;  uncertainty theta = 0.004260, k = 0.370681
         9         8        10     1      117.138512      433.140690    ;  uncertainty theta = 0.005555, k = 0.158725
         9         8        25     1      115.552147      339.762685    ;  uncertainty theta = 0.001791, k = 0.222062
        10         8        25     1      113.253616      321.470773    ;  uncertainty theta = 0.002256, k = 0.176038
        12         3        23     1      116.879013      331.081122    ;  uncertainty theta = 0.001934, k = 0.154842
        12         6        24     1      116.582138      339.078418    ;  uncertainty theta = 0.002044, k = 0.073114
        14        15        16     1      119.605370      414.485353    ;  uncertainty theta = 0.003848, k = 0.027613
        14        15        20     1      119.605370      414.485353    ;  uncertainty theta = 0.003848, k = 0.027613
        15        16        17     1      119.070030      516.640143    ;  uncertainty theta = 0.002096, k = 0.087661
        15        16        29     1      120.543640      275.370864    ;  uncertainty theta = 0.001603, k = 0.031522
        15        20        19     1      119.070030      516.640143    ;  uncertainty theta = 0.002096, k = 0.087661
        15        20        32     1      120.543640      275.370864    ;  uncertainty theta = 0.001603, k = 0.031522
        16        15        20     1      121.385071      388.674390    ;  uncertainty theta = 0.003318, k = 0.099530
        16        17        18     1      119.072433      503.912990    ;  uncertainty theta = 0.001237, k = 0.034021
        16        17        30     1      120.368881      279.362761    ;  uncertainty theta = 0.002070, k = 0.019960
        17        16        29     1      120.542198      288.492916    ;  uncertainty theta = 0.001251, k = 0.027493
        17        18        19     1      120.545288      372.862993    ;  uncertainty theta = 0.001637, k = 0.046553
        17        18        21     1      120.352928      443.931332    ;  uncertainty theta = 0.001270, k = 0.021859
        18        17        30     1      120.931236      284.614308    ;  uncertainty theta = 0.001296, k = 0.014096
        18        19        20     1      119.072433      503.912990    ;  uncertainty theta = 0.001237, k = 0.034021
        18        19        31     1      120.931236      284.614308    ;  uncertainty theta = 0.001296, k = 0.014096
        19        18        21     1      120.352928      443.931332    ;  uncertainty theta = 0.001270, k = 0.021859
        19        20        32     1      120.542198      288.492916    ;  uncertainty theta = 0.001251, k = 0.027493
        20        19        31     1      120.368881      279.362761    ;  uncertainty theta = 0.002070, k = 0.019960
        26        10        27     1      107.024132      321.322019    ;  uncertainty theta = 0.002845, k = 0.017384
        26        10        28     1      107.024132      321.322019    ;  uncertainty theta = 0.002845, k = 0.017384
        27        10        28     1      107.024132      321.322019    ;  uncertainty theta = 0.002845, k = 0.017384

[ dihedrals ] ; propers for gromacs 4.5 or higher, use funct 9
;       ai        aj        ak        al funct           phase               k        pn
         1         2         4         5     9        0.000000       -0.280541         1    ;  uncertainty k = 0.344188
         1         2         4         5     9      180.000000        7.271601         2    ;  uncertainty k = 0.718163
         1         2         4         5     9        0.000000        0.661514         3    ;  uncertainty k = 0.202689
         1         2         4         5     9      180.000000        0.596920         4    ;  uncertainty k = 0.312633
         1         2         4         7     9        0.000000        0.091416         1    ;  uncertainty k = 0.579257
         1         2         4         7     9      180.000000       12.375114         2    ;  uncertainty k = 0.535649
         1         2         4         7     9        0.000000       -5.075899         3    ;  uncertainty k = 1.611004
         1         2         4         7     9      180.000000        1.302104         4    ;  uncertainty k = 0.411748
         1         9         8        10     9        0.000000        4.780404         1    ;  uncertainty k = 0.994871
         1         9         8        10     9      180.000000       12.688262         2    ;  uncertainty k = 0.280550
         1         9         8        10     9        0.000000        1.444284         3    ;  uncertainty k = 0.333499
         1         9         8        10     9      180.000000       -1.075696         4    ;  uncertainty k = 0.475134
         1         9         8        25     9        0.000000        0.997850         1    ;  uncertainty k = 0.367307
         1         9         8        25     9      180.000000        7.460687         2    ;  uncertainty k = 0.776019
         1         9         8        25     9        0.000000        2.989635         3    ;  uncertainty k = 0.238442
         1         9         8        25     9      180.000000       -0.033295         4    ;  uncertainty k = 0.279295
         1        13         7         3     9        0.000000       -0.849488         1    ;  uncertainty k = 2.334658
         1        13         7         3     9      180.000000        6.557709         2    ;  uncertainty k = 1.064088
         1        13         7         3     9        0.000000        0.776818         3    ;  uncertainty k = 0.601272
         1        13         7         3     9      180.000000        0.541143         4    ;  uncertainty k = 0.293697
         1        13         7         4     9        0.000000       -0.496035         1    ;  uncertainty k = 0.864534
         1        13         7         4     9      180.000000       14.834100         2    ;  uncertainty k = 0.537981
         1        13         7         4     9        0.000000       -6.525625         3    ;  uncertainty k = 0.736098
         1        13         7         4     9      180.000000        0.322301         4    ;  uncertainty k = 0.914187
         2         1         9         8     9        0.000000       -0.527513         1    ;  uncertainty k = 0.843506
         2         1         9         8     9      180.000000        1.896205         2    ;  uncertainty k = 0.212180
         2         1         9         8     9        0.000000        0.225430         3    ;  uncertainty k = 0.245429
         2         1         9         8     9      180.000000       -0.340405         4    ;  uncertainty k = 0.190917
         2         1         9        11     9        0.000000        0.214424         1    ;  uncertainty k = 0.691492
         2         1         9        11     9      180.000000        2.490011         2    ;  uncertainty k = 0.114400
         2         1         9        11     9        0.000000        0.803303         3    ;  uncertainty k = 0.272633
         2         1         9        11     9      180.000000        0.159632         4    ;  uncertainty k = 0.154746
         2         1        13         7     9        0.000000       -0.779526         1    ;  uncertainty k = 0.917128
         2         1        13         7     9      180.000000       13.176953         2    ;  uncertainty k = 0.355417
         2         1        13         7     9        0.000000       -5.832082         3    ;  uncertainty k = 1.051891
         2         1        13         7     9      180.000000        1.482261         4    ;  uncertainty k = 0.431418
         2         4         5         6     9        0.000000       -0.096057         1    ;  uncertainty k = 0.697912
         2         4         5         6     9      180.000000        5.764914         2    ;  uncertainty k = 0.675630
         2         4         5         6     9        0.000000        0.596126         3    ;  uncertainty k = 0.274277
         2         4         5         6     9      180.000000        1.221499         4    ;  uncertainty k = 0.280822
         2         4         5        14     9        0.000000        0.094755         1    ;  uncertainty k = 0.519385
         2         4         5        14     9      180.000000        7.776361         2    ;  uncertainty k = 0.611362
         2         4         5        14     9        0.000000        1.308092         3    ;  uncertainty k = 0.313410
         2         4         5        14     9      180.000000        1.320311         4    ;  uncertainty k = 0.355169
         2         4         7         3     9        0.000000       -0.205334         1    ;  uncertainty k = 0.739565
         2         4         7         3     9      180.000000        7.969107         2    ;  uncertainty k = 0.421143
         2         4         7         3     9        0.000000        0.452403         3    ;  uncertainty k = 0.478538
         2         4         7         3     9      180.000000        1.384813         4    ;  uncertainty k = 0.227724
         2         4         7        13     9        0.000000       -0.382012         1    ;  uncertainty k = 0.560675
         2         4         7        13     9      180.000000       10.236206         2    ;  uncertainty k = 0.640205
         2         4         7        13     9        0.000000       -0.647759         3    ;  uncertainty k = 0.891101
         2         4         7        13     9      180.000000        1.356902         4    ;  uncertainty k = 0.228641
         3         7         4         5     9        0.000000       -0.412602         1    ;  uncertainty k = 0.494196
         3         7         4         5     9      180.000000        8.411299         2    ;  uncertainty k = 0.732584
         3         7         4         5     9        0.000000        0.085424         3    ;  uncertainty k = 0.093989
         3         7         4         5     9      180.000000        1.199771         4    ;  uncertainty k = 0.246521
         3        12         6         5     9        0.000000        0.208590         1    ;  uncertainty k = 0.394723
         3        12         6         5     9      180.000000       13.469351         2    ;  uncertainty k = 0.107582
         3        12         6         5     9        0.000000        1.053566         3    ;  uncertainty k = 0.582690
         3        12         6         5     9      180.000000        1.316363         4    ;  uncertainty k = 0.280578
         3        12         6        24     9        0.000000        0.392802         1    ;  uncertainty k = 0.307760
         3        12         6        24     9      180.000000       13.819319         2    ;  uncertainty k = 0.400371
         3        12         6        24     9        0.000000        2.178342         3    ;  uncertainty k = 0.456587
         3        12         6        24     9      180.000000        1.475511         4    ;  uncertainty k = 0.350536
         4         2         1         9     9        0.000000        0.543261         1    ;  uncertainty k = 0.480523
         4         2         1         9     9      180.000000       15.294430         2    ;  uncertainty k = 0.215416
         4         2         1         9     9        0.000000        1.909237         3    ;  uncertainty k = 0.690075
         4         2         1         9     9      180.000000        0.997791         4    ;  uncertainty k = 0.185523
         4         2         1        13     9        0.000000       -0.267156         1    ;  uncertainty k = 0.450552
         4         2         1        13     9      180.000000       19.045935         2    ;  uncertainty k = 0.376193
         4         2         1        13     9        0.000000       -1.062063         3    ;  uncertainty k = 0.865975
         4         2         1        13     9      180.000000        0.998158         4    ;  uncertainty k = 0.672940
         4         5         6        12     9        0.000000       -0.182146         1    ;  uncertainty k = 0.819279
         4         5         6        12     9      180.000000       11.927540         2    ;  uncertainty k = 0.381804
         4         5         6        12     9        0.000000        0.149474         3    ;  uncertainty k = 0.439507
         4         5         6        12     9      180.000000        1.210181         4    ;  uncertainty k = 0.178362
         4         5         6        24     9        0.000000        0.137459         1    ;  uncertainty k = 0.354296
         4         5         6        24     9      180.000000        6.225584         2    ;  uncertainty k = 0.508388
         4         5         6        24     9        0.000000        1.358676         3    ;  uncertainty k = 0.434709
         4         5         6        24     9      180.000000        1.551355         4    ;  uncertainty k = 0.137926
         4         5        14        15     9        0.000000        4.361298         1    ;  uncertainty k = 0.813457
         4         5        14        15     9      180.000000        4.928944         2    ;  uncertainty k = 0.486891
         4         5        14        15     9        0.000000        0.414816         3    ;  uncertainty k = 0.158447
         4         5        14        15     9      180.000000        0.153111         4    ;  uncertainty k = 0.088159
         4         7         3        12     9        0.000000       -0.312575         1    ;  uncertainty k = 0.991126
         4         7         3        12     9      180.000000       12.944817         2    ;  uncertainty k = 0.292578
         4         7         3        12     9        0.000000       -1.150292         3    ;  uncertainty k = 0.626765
         4         7         3        12     9      180.000000        0.658536         4    ;  uncertainty k = 0.383610
         4         7         3        23     9        0.000000       -0.349596         1    ;  uncertainty k = 0.644503
         4         7         3        23     9      180.000000        5.397009         2    ;  uncertainty k = 0.589686
         4         7         3        23     9        0.000000        1.189208         3    ;  uncertainty k = 0.202508
         4         7         3        23     9      180.000000        1.062206         4    ;  uncertainty k = 0.234425
         5         4         2        22     9        0.000000        0.355812         1    ;  uncertainty k = 1.573444
         5         4         2        22     9      180.000000        4.545184         2    ;  uncertainty k = 0.963229
         5         4         2        22     9        0.000000        0.996433         3    ;  uncertainty k = 0.363582
         5         4         2        22     9      180.000000        0.073296         4    ;  uncertainty k = 0.079735
         5         4         7        13     9        0.000000        0.505369         1    ;  uncertainty k = 0.295880
         5         4         7        13     9      180.000000        8.886354         2    ;  uncertainty k = 0.439450
         5         4         7        13     9        0.000000        0.225717         3    ;  uncertainty k = 0.517230
         5         4         7        13     9      180.000000        1.151393         4    ;  uncertainty k = 0.242236
         5        14        15        16     9        0.000000        3.998254         1    ;  uncertainty k = 0.449882
         5        14        15        16     9      180.000000        4.753534         2    ;  uncertainty k = 0.233881
         5        14        15        16     9        0.000000        0.581546         3    ;  uncertainty k = 0.096882
         5        14        15        16     9      180.000000        0.162418         4    ;  uncertainty k = 0.088808
         5        14        15        20     9        0.000000        3.998254         1    ;  uncertainty k = 0.449882
         5        14        15        20     9      180.000000        4.753534         2    ;  uncertainty k = 0.233881
         5        14        15        20     9        0.000000        0.581546         3    ;  uncertainty k = 0.096882
         5        14        15        20     9      180.000000        0.162418         4    ;  uncertainty k = 0.088808
         6         5         4         7     9        0.000000       -0.057958         1    ;  uncertainty k = 0.264012
         6         5         4         7     9      180.000000        9.383846         2    ;  uncertainty k = 0.638191
         6         5         4         7     9        0.000000       -0.754310         3    ;  uncertainty k = 0.306045
         6         5         4         7     9      180.000000        0.951876         4    ;  uncertainty k = 0.170410
         6         5        14        15     9        0.000000        6.138326         1    ;  uncertainty k = 0.435754
         6         5        14        15     9      180.000000        4.387479         2    ;  uncertainty k = 0.390465
         6         5        14        15     9        0.000000        0.256709         3    ;  uncertainty k = 0.089021
         6         5        14        15     9      180.000000        0.147301         4    ;  uncertainty k = 0.081252
         6        12         3         7     9        0.000000       -0.516943         1    ;  uncertainty k = 0.848630
         6        12         3         7     9      180.000000       18.819457         2    ;  uncertainty k = 0.455500
         6        12         3         7     9        0.000000        1.070725         3    ;  uncertainty k = 0.490615
         6        12         3         7     9      180.000000        1.375730         4    ;  uncertainty k = 0.275368
         6        12         3        23     9        0.000000        0.132352         1    ;  uncertainty k = 0.093410
         6        12         3        23     9      180.000000       16.283310         2    ;  uncertainty k = 0.432587
         6        12         3        23     9        0.000000        2.340011         3    ;  uncertainty k = 0.313580
         6        12         3        23     9      180.000000        1.567589         4    ;  uncertainty k = 0.357860
         7         4         2        22     9        0.000000       -0.023548         1    ;  uncertainty k = 0.788178
         7         4         2        22     9      180.000000        7.883544         2    ;  uncertainty k = 0.531364
         7         4         2        22     9        0.000000        0.982415         3    ;  uncertainty k = 0.597893
         7         4         2        22     9      180.000000        0.329746         4    ;  uncertainty k = 0.250442
         7         4         5        14     9        0.000000       -0.078761         1    ;  uncertainty k = 0.459761
         7         4         5        14     9      180.000000        9.907642         2    ;  uncertainty k = 0.453400
         7         4         5        14     9        0.000000        1.231156         3    ;  uncertainty k = 0.227069
         7         4         5        14     9      180.000000        1.261363         4    ;  uncertainty k = 0.386961
         7        13         1         9     9        0.000000       -0.086098         1    ;  uncertainty k = 0.437686
         7        13         1         9     9      180.000000        7.845460         2    ;  uncertainty k = 0.766364
         7        13         1         9     9        0.000000        0.948268         3    ;  uncertainty k = 1.038580
         7        13         1         9     9      180.000000        0.404035         4    ;  uncertainty k = 0.362674
         8         9         1        13     9        0.000000        3.471181         1    ;  uncertainty k = 0.614131
         8         9         1        13     9      180.000000        3.469184         2    ;  uncertainty k = 0.495441
         8         9         1        13     9        0.000000        0.855298         3    ;  uncertainty k = 0.243620
         8         9         1        13     9      180.000000       -0.471918         4    ;  uncertainty k = 0.250365
         9         1         2        22     9        0.000000        0.103843         1    ;  uncertainty k = 0.936769
         9         1         2        22     9      180.000000       10.434434         2    ;  uncertainty k = 0.586508
         9         1         2        22     9        0.000000        1.403309         3    ;  uncertainty k = 0.240654
         9         1         2        22     9      180.000000        0.771697         4    ;  uncertainty k = 0.225858
         9         8        10        26     9        0.000000        0.347778         1    ;  uncertainty k = 0.238050
         9         8        10        26     9      180.000000       -0.615379         2    ;  uncertainty k = 0.282819
         9         8        10        26     9        0.000000        0.317480         3    ;  uncertainty k = 0.103886
         9         8        10        26     9      180.000000        0.360712         4    ;  uncertainty k = 0.055523
         9         8        10        27     9        0.000000        0.347778         1    ;  uncertainty k = 0.238050
         9         8        10        27     9      180.000000       -0.615379         2    ;  uncertainty k = 0.282819
         9         8        10        27     9        0.000000        0.317480         3    ;  uncertainty k = 0.103886
         9         8        10        27     9      180.000000        0.360712         4    ;  uncertainty k = 0.055523
         9         8        10        28     9        0.000000        0.347778         1    ;  uncertainty k = 0.238050
         9         8        10        28     9      180.000000       -0.615379         2    ;  uncertainty k = 0.282819
         9         8        10        28     9        0.000000        0.317480         3    ;  uncertainty k = 0.103886
         9         8        10        28     9      180.000000        0.360712         4    ;  uncertainty k = 0.055523
        10         8         9        11     9        0.000000        2.196661         1    ;  uncertainty k = 0.466899
        10         8         9        11     9      180.000000       10.361330         2    ;  uncertainty k = 0.340173
        10         8         9        11     9        0.000000        0.627458         3    ;  uncertainty k = 0.344275
        10         8         9        11     9      180.000000        0.612412         4    ;  uncertainty k = 0.289452
        11         9         1        13     9        0.000000       -2.709010         1    ;  uncertainty k = 0.947227
        11         9         1        13     9      180.000000        4.585885         2    ;  uncertainty k = 0.346469
        11         9         1        13     9        0.000000        0.395159         3    ;  uncertainty k = 0.262793
        11         9         1        13     9      180.000000        0.134898         4    ;  uncertainty k = 0.100567
        11         9         8        25     9        0.000000        2.558351         1    ;  uncertainty k = 1.165064
        11         9         8        25     9      180.000000       12.657504         2    ;  uncertainty k = 0.355270
        11         9         8        25     9        0.000000        1.644240         3    ;  uncertainty k = 0.250074
        11         9         8        25     9      180.000000       -0.616930         4    ;  uncertainty k = 0.164274
        12         3         7        13     9        0.000000        0.013134         1    ;  uncertainty k = 0.566456
        12         3         7        13     9      180.000000        7.994725         2    ;  uncertainty k = 0.494098
        12         3         7        13     9        0.000000        0.779930         3    ;  uncertainty k = 0.181951
        12         3         7        13     9      180.000000        1.270131         4    ;  uncertainty k = 0.466677
        12         6         5        14     9        0.000000        0.068728         1    ;  uncertainty k = 0.446029
        12         6         5        14     9      180.000000       12.021990         2    ;  uncertainty k = 0.403082
        12         6         5        14     9        0.000000        1.220735         3    ;  uncertainty k = 0.295039
        12         6         5        14     9      180.000000        1.602285         4    ;  uncertainty k = 0.190173
        13         1         2        22     9        0.000000        0.331342         1    ;  uncertainty k = 0.395906
        13         1         2        22     9      180.000000       12.588665         2    ;  uncertainty k = 0.414993
        13         1         2        22     9        0.000000        1.805942         3    ;  uncertainty k = 0.310209
        13         1         2        22     9      180.000000        1.277827         4    ;  uncertainty k = 0.233838
        13         7         3        23     9        0.000000       -0.110761         1    ;  uncertainty k = 0.557348
        13         7         3        23     9      180.000000        4.374855         2    ;  uncertainty k = 0.347346
        13         7         3        23     9        0.000000        0.712899         3    ;  uncertainty k = 0.450658
        13         7         3        23     9      180.000000        0.588126         4    ;  uncertainty k = 0.252953
        14         5         6        24     9        0.000000        0.012840         1    ;  uncertainty k = 0.273784
        14         5         6        24     9      180.000000        8.121104         2    ;  uncertainty k = 0.435011
        14         5         6        24     9        0.000000        0.875853         3    ;  uncertainty k = 0.228471
        14         5         6        24     9      180.000000        1.171043         4    ;  uncertainty k = 0.270200
        14        15        16        17     9        0.000000        0.012940         1    ;  uncertainty k = 0.228359
        14        15        16        17     9      180.000000       10.340595         2    ;  uncertainty k = 0.588374
        14        15        16        17     9        0.000000        1.386508         3    ;  uncertainty k = 0.278635
        14        15        16        17     9      180.000000        1.718833         4    ;  uncertainty k = 0.162981
        14        15        16        29     9        0.000000       -0.088836         1    ;  uncertainty k = 0.068913
        14        15        16        29     9      180.000000        8.191003         2    ;  uncertainty k = 0.225194
        14        15        16        29     9        0.000000        0.860883         3    ;  uncertainty k = 0.288123
        14        15        16        29     9      180.000000        1.121587         4    ;  uncertainty k = 0.126904
        14        15        20        19     9        0.000000        0.012940         1    ;  uncertainty k = 0.228359
        14        15        20        19     9      180.000000       10.340595         2    ;  uncertainty k = 0.588374
        14        15        20        19     9        0.000000        1.386508         3    ;  uncertainty k = 0.278635
        14        15        20        19     9      180.000000        1.718833         4    ;  uncertainty k = 0.162981
        14        15        20        32     9        0.000000       -0.088836         1    ;  uncertainty k = 0.068913
        14        15        20        32     9      180.000000        8.191003         2    ;  uncertainty k = 0.225194
        14        15        20        32     9        0.000000        0.860883         3    ;  uncertainty k = 0.288123
        14        15        20        32     9      180.000000        1.121587         4    ;  uncertainty k = 0.126904
        15        16        17        18     9        0.000000       -0.084812         1    ;  uncertainty k = 0.199187
        15        16        17        18     9      180.000000       14.596956         2    ;  uncertainty k = 0.244288
        15        16        17        18     9        0.000000       -0.776642         3    ;  uncertainty k = 0.624211
        15        16        17        18     9      180.000000        0.848971         4    ;  uncertainty k = 0.330797
        15        16        17        30     9        0.000000       -0.006201         1    ;  uncertainty k = 0.224829
        15        16        17        30     9      180.000000        7.941388         2    ;  uncertainty k = 0.233372
        15        16        17        30     9        0.000000        1.341388         3    ;  uncertainty k = 0.226117
        15        16        17        30     9      180.000000        1.800227         4    ;  uncertainty k = 0.150458
        15        20        19        18     9        0.000000       -0.084812         1    ;  uncertainty k = 0.199187
        15        20        19        18     9      180.000000       14.596956         2    ;  uncertainty k = 0.244288
        15        20        19        18     9        0.000000       -0.776642         3    ;  uncertainty k = 0.624211
        15        20        19        18     9      180.000000        0.848971         4    ;  uncertainty k = 0.330797
        15        20        19        31     9        0.000000       -0.006201         1    ;  uncertainty k = 0.224829
        15        20        19        31     9      180.000000        7.941388         2    ;  uncertainty k = 0.233372
        15        20        19        31     9        0.000000        1.341388         3    ;  uncertainty k = 0.226117
        15        20        19        31     9      180.000000        1.800227         4    ;  uncertainty k = 0.150458
        16        15        20        19     9        0.000000        0.021859         1    ;  uncertainty k = 0.058100
        16        15        20        19     9      180.000000        9.563230         2    ;  uncertainty k = 0.533115
        16        15        20        19     9        0.000000       -0.148114         3    ;  uncertainty k = 0.376128
        16        15        20        19     9      180.000000        1.132526         4    ;  uncertainty k = 0.362724
        16        15        20        32     9        0.000000        0.225608         1    ;  uncertainty k = 0.250641
        16        15        20        32     9      180.000000        6.088909         2    ;  uncertainty k = 0.717074
        16        15        20        32     9        0.000000        1.425839         3    ;  uncertainty k = 0.391710
        16        15        20        32     9      180.000000        1.548148         4    ;  uncertainty k = 0.166724
        16        17        18        19     9        0.000000       -0.072057         1    ;  uncertainty k = 0.151933
        16        17        18        19     9      180.000000       10.503747         2    ;  uncertainty k = 0.409738
        16        17        18        19     9        0.000000       -0.388981         3    ;  uncertainty k = 0.497522
        16        17        18        19     9      180.000000        0.994175         4    ;  uncertainty k = 0.364995
        16        17        18        21     9        0.000000       -0.046877         1    ;  uncertainty k = 0.158967
        16        17        18        21     9      180.000000        9.185201         2    ;  uncertainty k = 0.550764
        16        17        18        21     9        0.000000        1.540013         3    ;  uncertainty k = 0.421444
        16        17        18        21     9      180.000000        1.637278         4    ;  uncertainty k = 0.144228
        17        16        15        20     9        0.000000        0.021859         1    ;  uncertainty k = 0.058100
        17        16        15        20     9      180.000000        9.563230         2    ;  uncertainty k = 0.533115
        17        16        15        20     9        0.000000       -0.148114         3    ;  uncertainty k = 0.376128
        17        16        15        20     9      180.000000        1.132526         4    ;  uncertainty k = 0.362724
        17        18        19        20     9        0.000000       -0.072057         1    ;  uncertainty k = 0.151933
        17        18        19        20     9      180.000000       10.503747         2    ;  uncertainty k = 0.409738
        17        18        19        20     9        0.000000       -0.388981         3    ;  uncertainty k = 0.497522
        17        18        19        20     9      180.000000        0.994175         4    ;  uncertainty k = 0.364995
        17        18        19        31     9        0.000000       -0.010357         1    ;  uncertainty k = 0.158180
        17        18        19        31     9      180.000000        6.039204         2    ;  uncertainty k = 0.577702
        17        18        19        31     9        0.000000        1.377794         3    ;  uncertainty k = 0.357667
        17        18        19        31     9      180.000000        1.517206         4    ;  uncertainty k = 0.203459
        18        17        16        29     9        0.000000        0.090333         1    ;  uncertainty k = 0.111265
        18        17        16        29     9      180.000000        7.948741         2    ;  uncertainty k = 0.316292
        18        17        16        29     9        0.000000        1.466779         3    ;  uncertainty k = 0.281186
        18        17        16        29     9      180.000000        1.885531         4    ;  uncertainty k = 0.162729
        18        19        20        32     9        0.000000        0.090333         1    ;  uncertainty k = 0.111265
        18        19        20        32     9      180.000000        7.948741         2    ;  uncertainty k = 0.316292
        18        19        20        32     9        0.000000        1.466779         3    ;  uncertainty k = 0.281186
        18        19        20        32     9      180.000000        1.885531         4    ;  uncertainty k = 0.162729
        19        18        17        30     9        0.000000       -0.010357         1    ;  uncertainty k = 0.158180
        19        18        17        30     9      180.000000        6.039204         2    ;  uncertainty k = 0.577702
        19        18        17        30     9        0.000000        1.377794         3    ;  uncertainty k = 0.357667
        19        18        17        30     9      180.000000        1.517206         4    ;  uncertainty k = 0.203459
        20        15        16        29     9        0.000000        0.225608         1    ;  uncertainty k = 0.250641
        20        15        16        29     9      180.000000        6.088909         2    ;  uncertainty k = 0.717074
        20        15        16        29     9        0.000000        1.425839         3    ;  uncertainty k = 0.391710
        20        15        16        29     9      180.000000        1.548148         4    ;  uncertainty k = 0.166724
        20        19        18        21     9        0.000000       -0.046877         1    ;  uncertainty k = 0.158967
        20        19        18        21     9      180.000000        9.185201         2    ;  uncertainty k = 0.550764
        20        19        18        21     9        0.000000        1.540013         3    ;  uncertainty k = 0.421444
        20        19        18        21     9      180.000000        1.637278         4    ;  uncertainty k = 0.144228
        21        18        17        30     9        0.000000       -0.189172         1    ;  uncertainty k = 0.151100
        21        18        17        30     9      180.000000        7.284958         2    ;  uncertainty k = 0.254965
        21        18        17        30     9        0.000000        0.631882         3    ;  uncertainty k = 0.368223
        21        18        17        30     9      180.000000        0.954031         4    ;  uncertainty k = 0.182884
        21        18        19        31     9        0.000000       -0.189172         1    ;  uncertainty k = 0.151100
        21        18        19        31     9      180.000000        7.284958         2    ;  uncertainty k = 0.254965
        21        18        19        31     9        0.000000        0.631882         3    ;  uncertainty k = 0.368223
        21        18        19        31     9      180.000000        0.954031         4    ;  uncertainty k = 0.182884
        25         8        10        26     9        0.000000       -0.211712         1    ;  uncertainty k = 0.210822
        25         8        10        26     9      180.000000       -1.007929         2    ;  uncertainty k = 0.142089
        25         8        10        26     9        0.000000        0.506513         3    ;  uncertainty k = 0.064164
        25         8        10        26     9      180.000000        0.162125         4    ;  uncertainty k = 0.065192
        25         8        10        27     9        0.000000       -0.211712         1    ;  uncertainty k = 0.210822
        25         8        10        27     9      180.000000       -1.007929         2    ;  uncertainty k = 0.142089
        25         8        10        27     9        0.000000        0.506513         3    ;  uncertainty k = 0.064164
        25         8        10        27     9      180.000000        0.162125         4    ;  uncertainty k = 0.065192
        25         8        10        28     9        0.000000       -0.211712         1    ;  uncertainty k = 0.210822
        25         8        10        28     9      180.000000       -1.007929         2    ;  uncertainty k = 0.142089
        25         8        10        28     9        0.000000        0.506513         3    ;  uncertainty k = 0.064164
        25         8        10        28     9      180.000000        0.162125         4    ;  uncertainty k = 0.065192
        29        16        17        30     9        0.000000       -0.093943         1    ;  uncertainty k = 0.178369
        29        16        17        30     9      180.000000        7.626056         2    ;  uncertainty k = 0.397032
        29        16        17        30     9        0.000000       -0.417074         3    ;  uncertainty k = 0.239577
        29        16        17        30     9      180.000000        0.127936         4    ;  uncertainty k = 0.124753
        31        19        20        32     9        0.000000       -0.093943         1    ;  uncertainty k = 0.178369
        31        19        20        32     9      180.000000        7.626056         2    ;  uncertainty k = 0.397032
        31        19        20        32     9        0.000000       -0.417074         3    ;  uncertainty k = 0.239577
        31        19        20        32     9      180.000000        0.127936         4    ;  uncertainty k = 0.124753

[ dihedrals ] ; impropers
;       ai        aj        ak        al funct           phase               k        pn
         1         2         9        13     4      180.000000        2.012750         2    ;  uncertainty k = 0.493061
         1         9        13         2     4      180.000000        2.012750         2    ;  uncertainty k = 0.493061
         1        13         2         9     4      180.000000        2.012750         2    ;  uncertainty k = 0.493061
         2         1         4        22     4      180.000000        1.641787         2    ;  uncertainty k = 0.552248
         2         4        22         1     4      180.000000        1.641787         2    ;  uncertainty k = 0.552248
         2        22         1         4     4      180.000000        1.641787         2    ;  uncertainty k = 0.552248
         3         7        12        23     4      180.000000       12.940082         2    ;  uncertainty k = 0.089545
         3        12        23         7     4      180.000000       12.940082         2    ;  uncertainty k = 0.089545
         3        23         7        12     4      180.000000       12.940082         2    ;  uncertainty k = 0.089545
         4         2         5         7     4      180.000000        2.064996         2    ;  uncertainty k = 0.561126
         4         5         7         2     4      180.000000        2.064996         2    ;  uncertainty k = 0.561126
         4         7         2         5     4      180.000000        2.064996         2    ;  uncertainty k = 0.561126
         5         4         6        14     4      180.000000       15.280144         2    ;  uncertainty k = 0.112219
         5         6        14         4     4      180.000000       15.280144         2    ;  uncertainty k = 0.112219
         5        14         4         6     4      180.000000       15.280144         2    ;  uncertainty k = 0.112219
         6         5        12        24     4      180.000000        9.523653         2    ;  uncertainty k = 0.155816
         6        12        24         5     4      180.000000        9.523653         2    ;  uncertainty k = 0.155816
         6        24         5        12     4      180.000000        9.523653         2    ;  uncertainty k = 0.155816
         7         3         4        13     4      180.000000        0.425150         2    ;  uncertainty k = 0.787293
         7         4        13         3     4      180.000000        0.425150         2    ;  uncertainty k = 0.787293
         7        13         3         4     4      180.000000        0.425150         2    ;  uncertainty k = 0.787293
         9         1         8        11     4      180.000000       52.363784         2    ;  uncertainty k = 0.021283
         9         8        11         1     4      180.000000       52.363784         2    ;  uncertainty k = 0.021283
         9        11         1         8     4      180.000000       52.363784         2    ;  uncertainty k = 0.021283
        15        14        16        20     4      180.000000       17.409305         2    ;  uncertainty k = 0.054636
        15        16        20        14     4      180.000000       17.409305         2    ;  uncertainty k = 0.054636
        15        20        14        16     4      180.000000       17.409305         2    ;  uncertainty k = 0.054636
        16        15        17        29     4      180.000000        3.008016         2    ;  uncertainty k = 0.105490
        16        17        29        15     4      180.000000        3.008016         2    ;  uncertainty k = 0.105490
        16        29        15        17     4      180.000000        3.008016         2    ;  uncertainty k = 0.105490
        17        16        18        30     4      180.000000        3.865517         2    ;  uncertainty k = 0.182529
        17        18        30        16     4      180.000000        3.865517         2    ;  uncertainty k = 0.182529
        17        30        16        18     4      180.000000        3.865517         2    ;  uncertainty k = 0.182529
        18        17        19        21     4      180.000000       12.038020         2    ;  uncertainty k = 0.044617
        18        19        21        17     4      180.000000       12.038020         2    ;  uncertainty k = 0.044617
        18        21        17        19     4      180.000000       12.038020         2    ;  uncertainty k = 0.044617
        19        18        20        31     4      180.000000        3.865515         2    ;  uncertainty k = 0.182529
        19        20        31        18     4      180.000000        3.865515         2    ;  uncertainty k = 0.182529
        19        31        18        20     4      180.000000        3.865515         2    ;  uncertainty k = 0.182529
        20        15        19        32     4      180.000000        3.008017         2    ;  uncertainty k = 0.105491
        20        19        32        15     4      180.000000        3.008017         2    ;  uncertainty k = 0.105491
        20        32        15        19     4      180.000000        3.008017         2    ;  uncertainty k = 0.105491

[ pairs ]
;       ai        aj funct
         1         3     1
         1         5     1
         1        10     1
         1        25     1
         2         3     1
         2         6     1
         2         8     1
         2        11     1
         2        14     1
         3         5     1
         3        24     1
         4         9     1
         4        12     1
         4        15     1
         4        23     1
         4        24     1
         5        13     1
         5        16     1
         5        20     1
         5        22     1
         6         7     1
         6        15     1
         6        23     1
         7         9     1
         7        14     1
         7        22     1
         8        13     1
         9        22     1
         9        26     1
         9        27     1
         9        28     1
        10        11     1
        11        13     1
        11        25     1
        12        13     1
        12        14     1
        13        22     1
        13        23     1
        14        17     1
        14        19     1
        14        24     1
        14        29     1
        14        32     1
        15        18     1
        15        30     1
        15        31     1
        16        19     1
        16        21     1
        16        32     1
        17        20     1
        17        31     1
        18        29     1
        18        32     1
        19        30     1
        20        21     1
        20        29     1
        21        30     1
        21        31     1
        25        26     1
        25        27     1
        25        28     1
        29        30     1
        31        32     1
