; ITP file created by ByteFF-joint-25, 2025-07-14 11:36:08.280683

[ atomtypes ]
;name           bonded.type        at.num        mass        charge   ptype           sigma         epsilon
 c0bf                                   6      0.0000       0.00000       A     3.31533e-01     4.12623e-01    ;  uncertainty sigma = 0.000011, epsilon = 0.001133
 c1bf                                   6      0.0000       0.00000       A     3.31547e-01     4.12632e-01    ;  uncertainty sigma = 0.000007, epsilon = 0.000926
 c2bf                                   6      0.0000       0.00000       A     3.31539e-01     4.13533e-01    ;  uncertainty sigma = 0.000013, epsilon = 0.000944
 c3bf                                   6      0.0000       0.00000       A     3.31550e-01     4.13792e-01    ;  uncertainty sigma = 0.000006, epsilon = 0.000295
 c4bf                                   6      0.0000       0.00000       A     3.31519e-01     4.13403e-01    ;  uncertainty sigma = 0.000024, epsilon = 0.000623
 c5bf                                   6      0.0000       0.00000       A     3.31498e-01     4.12877e-01    ;  uncertainty sigma = 0.000005, epsilon = 0.000808
 c6bf                                   6      0.0000       0.00000       A     3.31542e-01     4.13439e-01    ;  uncertainty sigma = 0.000012, epsilon = 0.000778
 n7bf                                   7      0.0000       0.00000       A     3.18094e-01     6.84187e-01    ;  uncertainty sigma = 0.000019, epsilon = 0.000521
 c8bf                                   6      0.0000       0.00000       A     3.31492e-01     4.13933e-01    ;  uncertainty sigma = 0.000022, epsilon = 0.000586
 o9bf                                   8      0.0000       0.00000       A     3.04789e-01     6.12380e-01    ;  uncertainty sigma = 0.000015, epsilon = 0.001683
 n10bf                                  7      0.0000       0.00000       A     3.38404e-01     3.93885e-01    ;  uncertainty sigma = 0.000020, epsilon = 0.001459
 s11bf                                 16      0.0000       0.00000       A     3.53316e-01     1.18196e+00    ;  uncertainty sigma = 0.000027, epsilon = 0.002072
 o12bf                                  8      0.0000       0.00000       A     3.15417e-01     3.02311e-01    ;  uncertainty sigma = 0.000023, epsilon = 0.001113
 c13bf                                  6      0.0000       0.00000       A     3.31510e-01     4.13658e-01    ;  uncertainty sigma = 0.000011, epsilon = 0.000806
 c14bf                                  6      0.0000       0.00000       A     3.31518e-01     4.13462e-01    ;  uncertainty sigma = 0.000002, epsilon = 0.000591
 c15bf                                  6      0.0000       0.00000       A     3.31523e-01     4.13492e-01    ;  uncertainty sigma = 0.000004, epsilon = 0.000562
 c16bf                                  6      0.0000       0.00000       A     3.31532e-01     4.13144e-01    ;  uncertainty sigma = 0.000004, epsilon = 0.000546
 c17bf                                  6      0.0000       0.00000       A     3.31523e-01     4.13492e-01    ;  uncertainty sigma = 0.000004, epsilon = 0.000562
 c18bf                                  6      0.0000       0.00000       A     3.31518e-01     4.13462e-01    ;  uncertainty sigma = 0.000002, epsilon = 0.000591
 cl19bf                                17      0.0000       0.00000       A     3.46630e-01     1.10437e+00    ;  uncertainty sigma = 0.000011, epsilon = 0.001278
 h20bf                                  1      0.0000       0.00000       A     2.62610e-01     6.70415e-02    ;  uncertainty sigma = 0.000018, epsilon = 0.000758
 h21bf                                  1      0.0000       0.00000       A     2.53593e-01     6.72766e-02    ;  uncertainty sigma = 0.000100, epsilon = 0.001112
 h22bf                                  1      0.0000       0.00000       A     2.53659e-01     6.69732e-02    ;  uncertainty sigma = 0.000032, epsilon = 0.000842
 c23bf                                  6      0.0000       0.00000       A     3.39777e-01     4.50857e-01    ;  uncertainty sigma = 0.000004, epsilon = 0.000580
 h24bf                                  1      0.0000       0.00000       A     2.62555e-01     6.71248e-02    ;  uncertainty sigma = 0.000005, epsilon = 0.000438
 h25bf                                  1      0.0000       0.00000       A     2.62563e-01     6.70437e-02    ;  uncertainty sigma = 0.000011, epsilon = 0.000615
 h26bf                                  1      0.0000       0.00000       A     2.62563e-01     6.70437e-02    ;  uncertainty sigma = 0.000011, epsilon = 0.000615
 h27bf                                  1      0.0000       0.00000       A     2.62555e-01     6.71248e-02    ;  uncertainty sigma = 0.000005, epsilon = 0.000438
 c28bf                                  6      0.0000       0.00000       A     3.39777e-01     4.50857e-01    ;  uncertainty sigma = 0.000004, epsilon = 0.000580
 h29bf                                  1      0.0000       0.00000       A     2.42197e-01     8.67796e-02    ;  uncertainty sigma = 0.000012, epsilon = 0.000526
 h30bf                                  1      0.0000       0.00000       A     2.42197e-01     8.67796e-02    ;  uncertainty sigma = 0.000012, epsilon = 0.000526
 h31bf                                  1      0.0000       0.00000       A     2.42197e-01     8.67796e-02    ;  uncertainty sigma = 0.000012, epsilon = 0.000526
 h32bf                                  1      0.0000       0.00000       A     2.42197e-01     8.67796e-02    ;  uncertainty sigma = 0.000012, epsilon = 0.000526
 h33bf                                  1      0.0000       0.00000       A     2.42197e-01     8.67796e-02    ;  uncertainty sigma = 0.000012, epsilon = 0.000526
 h34bf                                  1      0.0000       0.00000       A     2.42197e-01     8.67796e-02    ;  uncertainty sigma = 0.000012, epsilon = 0.000526

[ moleculetype ]
;name             nrexcl
 MOL                   3

[ atoms ]
;       nr            type      resi   res      atom      cgnr      charge          mass ; qtot
         1            c0bf         1   UNL        c0         1    -0.10386       12.0110 ; qtot   -0.104
         2            c1bf         1   UNL        c1         2    -0.06348       12.0110 ; qtot   -0.167
         3            c2bf         1   UNL        c2         3     0.42609       12.0110 ; qtot    0.259
         4            c3bf         1   UNL        c3         4    -0.06418       12.0110 ; qtot    0.195
         5            c4bf         1   UNL        c4         5     0.04064       12.0110 ; qtot    0.235
         6            c5bf         1   UNL        c5         6     0.35575       12.0110 ; qtot    0.591
         7            c6bf         1   UNL        c6         7    -0.13708       12.0110 ; qtot    0.454
         8            n7bf         1   UNL        n7         8    -0.47879       14.0070 ; qtot   -0.025
         9            c8bf         1   UNL        c8         9     0.69867       12.0110 ; qtot    0.674
        10            o9bf         1   UNL        o9        10    -0.59295       15.9990 ; qtot    0.081
        11           n10bf         1   UNL       n10        11    -0.64087       14.0070 ; qtot   -0.560
        12           s11bf         1   UNL       s11        12    -0.01482       32.0670 ; qtot   -0.575
        13           o12bf         1   UNL       o12        13    -0.24264       15.9990 ; qtot   -0.818
        14           c13bf         1   UNL       c13        14     0.11070       12.0110 ; qtot   -0.707
        15           c14bf         1   UNL       c14        15    -0.14772       12.0110 ; qtot   -0.855
        16           c15bf         1   UNL       c15        16    -0.09747       12.0110 ; qtot   -0.952
        17           c16bf         1   UNL       c16        17     0.01479       12.0110 ; qtot   -0.937
        18           c17bf         1   UNL       c17        18    -0.09747       12.0110 ; qtot   -1.035
        19           c18bf         1   UNL       c18        19    -0.14772       12.0110 ; qtot   -1.182
        20          cl19bf         1   UNL      cl19        20    -0.11722       35.4530 ; qtot   -1.300
        21           h20bf         1   UNL       h20        21     0.17777        1.0080 ; qtot   -1.122
        22           h21bf         1   UNL       h21        22     0.03043        1.0080 ; qtot   -1.091
        23           h22bf         1   UNL       h22        23     0.03867        1.0080 ; qtot   -1.053
        24           c23bf         1   UNL       c23        24     0.08429       12.0110 ; qtot   -0.968
        25           h24bf         1   UNL       h24        25     0.15269        1.0080 ; qtot   -0.816
        26           h25bf         1   UNL       h25        26     0.15337        1.0080 ; qtot   -0.662
        27           h26bf         1   UNL       h26        27     0.15337        1.0080 ; qtot   -0.509
        28           h27bf         1   UNL       h27        28     0.15269        1.0080 ; qtot   -0.356
        29           c28bf         1   UNL       c28        29     0.08429       12.0110 ; qtot   -0.272
        30           h29bf         1   UNL       h29        30     0.04534        1.0080 ; qtot   -0.227
        31           h30bf         1   UNL       h30        31     0.04534        1.0080 ; qtot   -0.181
        32           h31bf         1   UNL       h31        32     0.04534        1.0080 ; qtot   -0.136
        33           h32bf         1   UNL       h32        33     0.04534        1.0080 ; qtot   -0.091
        34           h33bf         1   UNL       h33        34     0.04534        1.0080 ; qtot   -0.045
        35           h34bf         1   UNL       h34        35     0.04536        1.0080 ; qtot   -0.000

[ bonds ]
;       ai        aj funct               r               k
         1         2     1        0.136722   401431.663379    ;  uncertainty r = 0.000057, k = 7.658697
         1         9     1        0.149313   268750.036426    ;  uncertainty r = 0.000094, k = 26.399115
         1        12     1        0.176052   161378.442871    ;  uncertainty r = 0.000150, k = 14.905174
         2         4     1        0.143499   246159.194434    ;  uncertainty r = 0.000141, k = 10.982638
         2        21     1        0.108381   334858.232373    ;  uncertainty r = 0.000043, k = 1.552809
         3         7     1        0.139862   357185.020654    ;  uncertainty r = 0.000101, k = 8.409085
         3        11     1        0.132914   403937.670996    ;  uncertainty r = 0.000085, k = 3.484706
         3        22     1        0.108996   332692.021533    ;  uncertainty r = 0.000016, k = 2.312073
         4         5     1        0.140198   351630.878125    ;  uncertainty r = 0.000059, k = 7.105596
         4         7     1        0.141255   373665.113281    ;  uncertainty r = 0.000078, k = 14.753730
         5         6     1        0.138631   347797.783545    ;  uncertainty r = 0.000072, k = 10.298013
         5        13     1        0.137597   318910.792773    ;  uncertainty r = 0.000055, k = 12.405238
         6        11     1        0.134435   379665.874316    ;  uncertainty r = 0.000185, k = 8.749163
         6        23     1        0.108927   339756.581934    ;  uncertainty r = 0.000043, k = 5.117425
         7        12     1        0.175085   181843.588647    ;  uncertainty r = 0.000145, k = 9.067289
         8         9     1        0.137217   377694.996826    ;  uncertainty r = 0.000113, k = 18.362206
         8        24     1        0.146025   248762.498437    ;  uncertainty r = 0.000064, k = 4.168188
         8        29     1        0.146025   248762.498437    ;  uncertainty r = 0.000064, k = 4.168188
         9        10     1        0.123670   755388.359277    ;  uncertainty r = 0.000102, k = 8.256775
        13        14     1        0.138284   318274.791064    ;  uncertainty r = 0.000075, k = 8.099025
        14        15     1        0.139423   356196.504687    ;  uncertainty r = 0.000043, k = 1.660662
        14        19     1        0.139423   356196.504687    ;  uncertainty r = 0.000043, k = 1.660662
        15        16     1        0.139179   373143.287988    ;  uncertainty r = 0.000009, k = 2.388054
        15        25     1        0.108786   336460.507227    ;  uncertainty r = 0.000014, k = 1.146262
        16        17     1        0.139495   363006.460107    ;  uncertainty r = 0.000019, k = 1.852841
        16        26     1        0.108702   334843.344238    ;  uncertainty r = 0.000027, k = 0.886329
        17        18     1        0.139495   363006.460107    ;  uncertainty r = 0.000019, k = 1.852841
        17        20     1        0.175852   197478.236963    ;  uncertainty r = 0.000021, k = 4.301143
        18        19     1        0.139179   373143.287988    ;  uncertainty r = 0.000009, k = 2.388054
        18        27     1        0.108702   334843.344238    ;  uncertainty r = 0.000027, k = 0.886329
        19        28     1        0.108786   336460.507227    ;  uncertainty r = 0.000014, k = 1.146262
        24        30     1        0.109436   310926.079248    ;  uncertainty r = 0.000013, k = 1.739727
        24        31     1        0.109436   310926.079248    ;  uncertainty r = 0.000013, k = 1.739727
        24        32     1        0.109436   310926.079248    ;  uncertainty r = 0.000013, k = 1.739727
        29        33     1        0.109436   310926.079248    ;  uncertainty r = 0.000013, k = 1.739727
        29        34     1        0.109436   310926.079248    ;  uncertainty r = 0.000013, k = 1.739727
        29        35     1        0.109436   310926.079248    ;  uncertainty r = 0.000013, k = 1.739730

[ angles ]
;       ai        aj        ak funct           theta             cth
         1         2         4     1      113.097824      689.077973    ;  uncertainty theta = 0.003256, k = 0.198056
         1         2        21     1      121.568985      242.417267    ;  uncertainty theta = 0.004658, k = 0.160979
         1         9         8     1      113.571365      392.796303    ;  uncertainty theta = 0.006856, k = 0.318840
         1         9        10     1      123.896019      493.166208    ;  uncertainty theta = 0.005181, k = 0.420988
         1        12         7     1       90.245583     1169.730232    ;  uncertainty theta = 0.004113, k = 0.183016
         2         1         9     1      125.226456      309.766477    ;  uncertainty theta = 0.010167, k = 0.124051
         2         1        12     1      114.777725      481.937350    ;  uncertainty theta = 0.005215, k = 0.186083
         2         4         5     1      127.968300      374.031507    ;  uncertainty theta = 0.003203, k = 0.163128
         2         4         7     1      112.807358      581.236037    ;  uncertainty theta = 0.001651, k = 0.283796
         3         7         4     1      118.412918      375.063110    ;  uncertainty theta = 0.003960, k = 0.215840
         3         7        12     1      126.436867      362.291268    ;  uncertainty theta = 0.001879, k = 0.176029
         3        11         6     1      120.842484      402.797848    ;  uncertainty theta = 0.002548, k = 0.205041
         4         2        21     1      122.132736      248.092347    ;  uncertainty theta = 0.005921, k = 0.120030
         4         5         6     1      119.524513      391.141115    ;  uncertainty theta = 0.005581, k = 0.213545
         4         5        13     1      119.386940      395.416697    ;  uncertainty theta = 0.007236, k = 0.138991
         4         7        12     1      110.999466      494.378359    ;  uncertainty theta = 0.005568, k = 0.169617
         5         4         7     1      115.320740      426.213781    ;  uncertainty theta = 0.006948, k = 0.239149
         5         6        11     1      124.514183      661.788444    ;  uncertainty theta = 0.003510, k = 0.148398
         5         6        23     1      119.349350      264.281662    ;  uncertainty theta = 0.001084, k = 0.195892
         5        13        14     1      112.893166      470.825387    ;  uncertainty theta = 0.002135, k = 0.157860
         6         5        13     1      119.648598      413.022300    ;  uncertainty theta = 0.006887, k = 0.248373
         7         3        11     1      121.565308      690.810347    ;  uncertainty theta = 0.002110, k = 0.113863
         7         3        22     1      122.306641      288.040877    ;  uncertainty theta = 0.002283, k = 0.091097
         8         9        10     1      124.932922      712.173416    ;  uncertainty theta = 0.004379, k = 0.046335
         8        24        30     1      109.267822      482.975848    ;  uncertainty theta = 0.000873, k = 0.036545
         8        24        31     1      109.267822      482.975848    ;  uncertainty theta = 0.000873, k = 0.036545
         8        24        32     1      109.267822      482.975848    ;  uncertainty theta = 0.000873, k = 0.036545
         8        29        33     1      109.267822      482.975848    ;  uncertainty theta = 0.000873, k = 0.036545
         8        29        34     1      109.267822      482.975848    ;  uncertainty theta = 0.000873, k = 0.036545
         8        29        35     1      109.267822      482.975848    ;  uncertainty theta = 0.000873, k = 0.036545
         9         1        12     1      119.115219      301.671661    ;  uncertainty theta = 0.007846, k = 0.365128
         9         8        24     1      116.239601      377.026659    ;  uncertainty theta = 0.001769, k = 0.114653
         9         8        29     1      116.239586      377.026659    ;  uncertainty theta = 0.001769, k = 0.114653
        11         3        22     1      116.879013      331.081122    ;  uncertainty theta = 0.001934, k = 0.154842
        11         6        23     1      116.582138      339.078418    ;  uncertainty theta = 0.002044, k = 0.073114
        13        14        15     1      119.605370      414.485353    ;  uncertainty theta = 0.003848, k = 0.027613
        13        14        19     1      119.605370      414.485353    ;  uncertainty theta = 0.003848, k = 0.027613
        14        15        16     1      119.070030      516.640143    ;  uncertainty theta = 0.002096, k = 0.087661
        14        15        25     1      120.543640      275.370864    ;  uncertainty theta = 0.001603, k = 0.031522
        14        19        18     1      119.070030      516.640143    ;  uncertainty theta = 0.002096, k = 0.087661
        14        19        28     1      120.543640      275.370864    ;  uncertainty theta = 0.001603, k = 0.031522
        15        14        19     1      121.385071      388.674390    ;  uncertainty theta = 0.003318, k = 0.099530
        15        16        17     1      119.072433      503.912990    ;  uncertainty theta = 0.001237, k = 0.034021
        15        16        26     1      120.368881      279.362761    ;  uncertainty theta = 0.002070, k = 0.019960
        16        15        25     1      120.542198      288.492916    ;  uncertainty theta = 0.001251, k = 0.027493
        16        17        18     1      120.545288      372.862993    ;  uncertainty theta = 0.001637, k = 0.046553
        16        17        20     1      120.352928      443.931332    ;  uncertainty theta = 0.001270, k = 0.021859
        17        16        26     1      120.931236      284.614308    ;  uncertainty theta = 0.001296, k = 0.014096
        17        18        19     1      119.072433      503.912990    ;  uncertainty theta = 0.001237, k = 0.034021
        17        18        27     1      120.931236      284.614308    ;  uncertainty theta = 0.001296, k = 0.014096
        18        17        20     1      120.352928      443.931332    ;  uncertainty theta = 0.001270, k = 0.021859
        18        19        28     1      120.542198      288.492916    ;  uncertainty theta = 0.001251, k = 0.027493
        19        18        27     1      120.368881      279.362761    ;  uncertainty theta = 0.002070, k = 0.019960
        24         8        29     1      118.671303      438.880155    ;  uncertainty theta = 0.004115, k = 0.200550
        30        24        31     1      106.887131      327.063368    ;  uncertainty theta = 0.000882, k = 0.026092
        30        24        32     1      106.887131      327.063368    ;  uncertainty theta = 0.000882, k = 0.026092
        31        24        32     1      106.887131      327.063368    ;  uncertainty theta = 0.000882, k = 0.026092
        33        29        34     1      106.887131      327.063368    ;  uncertainty theta = 0.000882, k = 0.026092
        33        29        35     1      106.887131      327.063368    ;  uncertainty theta = 0.000882, k = 0.026092
        34        29        35     1      106.887131      327.063368    ;  uncertainty theta = 0.000882, k = 0.026092

[ dihedrals ] ; propers for gromacs 4.5 or higher, use funct 9
;       ai        aj        ak        al funct           phase               k        pn
         1         2         4         5     9        0.000000       -0.319254         1    ;  uncertainty k = 0.433709
         1         2         4         5     9      180.000000        7.219157         2    ;  uncertainty k = 0.538685
         1         2         4         5     9        0.000000        0.634468         3    ;  uncertainty k = 0.353999
         1         2         4         5     9      180.000000        0.545054         4    ;  uncertainty k = 0.365043
         1         2         4         7     9        0.000000       -0.000795         1    ;  uncertainty k = 0.526699
         1         2         4         7     9      180.000000       12.488747         2    ;  uncertainty k = 0.540418
         1         2         4         7     9        0.000000       -4.911029         3    ;  uncertainty k = 1.321560
         1         2         4         7     9      180.000000        1.326749         4    ;  uncertainty k = 0.423920
         1         9         8        24     9        0.000000        7.950882         1    ;  uncertainty k = 0.985728
         1         9         8        24     9      180.000000        7.584986         2    ;  uncertainty k = 0.349470
         1         9         8        24     9        0.000000       -0.002847         3    ;  uncertainty k = 0.512978
         1         9         8        24     9      180.000000        0.200216         4    ;  uncertainty k = 0.227377
         1         9         8        29     9        0.000000        7.950882         1    ;  uncertainty k = 0.985728
         1         9         8        29     9      180.000000        7.584986         2    ;  uncertainty k = 0.349470
         1         9         8        29     9        0.000000       -0.002847         3    ;  uncertainty k = 0.512978
         1         9         8        29     9      180.000000        0.200216         4    ;  uncertainty k = 0.227377
         1        12         7         3     9        0.000000       -0.773749         1    ;  uncertainty k = 1.832926
         1        12         7         3     9      180.000000        7.019319         2    ;  uncertainty k = 1.345095
         1        12         7         3     9        0.000000        0.709201         3    ;  uncertainty k = 0.337113
         1        12         7         3     9      180.000000        0.536955         4    ;  uncertainty k = 0.305761
         1        12         7         4     9        0.000000       -0.377281         1    ;  uncertainty k = 1.069696
         1        12         7         4     9      180.000000       14.825323         2    ;  uncertainty k = 0.764128
         1        12         7         4     9        0.000000       -6.452954         3    ;  uncertainty k = 0.853227
         1        12         7         4     9      180.000000        0.433622         4    ;  uncertainty k = 0.946659
         2         1         9         8     9        0.000000        0.360413         1    ;  uncertainty k = 0.760937
         2         1         9         8     9      180.000000        3.227906         2    ;  uncertainty k = 0.475860
         2         1         9         8     9        0.000000        0.119753         3    ;  uncertainty k = 0.262732
         2         1         9         8     9      180.000000        0.187727         4    ;  uncertainty k = 0.097191
         2         1         9        10     9        0.000000       -0.859254         1    ;  uncertainty k = 1.212108
         2         1         9        10     9      180.000000        2.325539         2    ;  uncertainty k = 0.142157
         2         1         9        10     9        0.000000        0.581497         3    ;  uncertainty k = 0.314406
         2         1         9        10     9      180.000000        0.185773         4    ;  uncertainty k = 0.137189
         2         1        12         7     9        0.000000       -0.820238         1    ;  uncertainty k = 0.898509
         2         1        12         7     9      180.000000       13.764459         2    ;  uncertainty k = 0.426174
         2         1        12         7     9        0.000000       -5.949695         3    ;  uncertainty k = 1.077046
         2         1        12         7     9      180.000000        1.450246         4    ;  uncertainty k = 0.432332
         2         4         5         6     9        0.000000       -0.076522         1    ;  uncertainty k = 0.742948
         2         4         5         6     9      180.000000        5.806765         2    ;  uncertainty k = 0.647805
         2         4         5         6     9        0.000000        0.578757         3    ;  uncertainty k = 0.284845
         2         4         5         6     9      180.000000        1.205242         4    ;  uncertainty k = 0.280754
         2         4         5        13     9        0.000000        0.121880         1    ;  uncertainty k = 0.501642
         2         4         5        13     9      180.000000        7.750327         2    ;  uncertainty k = 0.608793
         2         4         5        13     9        0.000000        1.311142         3    ;  uncertainty k = 0.301409
         2         4         5        13     9      180.000000        1.328235         4    ;  uncertainty k = 0.345979
         2         4         7         3     9        0.000000       -0.220596         1    ;  uncertainty k = 0.833260
         2         4         7         3     9      180.000000        8.040101         2    ;  uncertainty k = 0.458322
         2         4         7         3     9        0.000000        0.457093         3    ;  uncertainty k = 0.443509
         2         4         7         3     9      180.000000        1.372549         4    ;  uncertainty k = 0.224591
         2         4         7        12     9        0.000000       -0.401580         1    ;  uncertainty k = 0.554700
         2         4         7        12     9      180.000000       10.437043         2    ;  uncertainty k = 0.486033
         2         4         7        12     9        0.000000       -0.625253         3    ;  uncertainty k = 0.817414
         2         4         7        12     9      180.000000        1.320681         4    ;  uncertainty k = 0.266964
         3         7         4         5     9        0.000000       -0.412602         1    ;  uncertainty k = 0.494196
         3         7         4         5     9      180.000000        8.411299         2    ;  uncertainty k = 0.732584
         3         7         4         5     9        0.000000        0.085424         3    ;  uncertainty k = 0.093989
         3         7         4         5     9      180.000000        1.199771         4    ;  uncertainty k = 0.246521
         3        11         6         5     9        0.000000        0.208590         1    ;  uncertainty k = 0.394723
         3        11         6         5     9      180.000000       13.469351         2    ;  uncertainty k = 0.107582
         3        11         6         5     9        0.000000        1.053566         3    ;  uncertainty k = 0.582690
         3        11         6         5     9      180.000000        1.316363         4    ;  uncertainty k = 0.280578
         3        11         6        23     9        0.000000        0.392802         1    ;  uncertainty k = 0.307760
         3        11         6        23     9      180.000000       13.819319         2    ;  uncertainty k = 0.400371
         3        11         6        23     9        0.000000        2.178342         3    ;  uncertainty k = 0.456587
         3        11         6        23     9      180.000000        1.475511         4    ;  uncertainty k = 0.350536
         4         2         1         9     9        0.000000        0.420458         1    ;  uncertainty k = 0.522463
         4         2         1         9     9      180.000000       14.953529         2    ;  uncertainty k = 0.145341
         4         2         1         9     9        0.000000        1.893070         3    ;  uncertainty k = 0.769272
         4         2         1         9     9      180.000000        1.131970         4    ;  uncertainty k = 0.243811
         4         2         1        12     9        0.000000       -0.323650         1    ;  uncertainty k = 0.463004
         4         2         1        12     9      180.000000       18.953469         2    ;  uncertainty k = 0.274706
         4         2         1        12     9        0.000000       -1.188303         3    ;  uncertainty k = 1.071562
         4         2         1        12     9      180.000000        1.002444         4    ;  uncertainty k = 0.585737
         4         5         6        11     9        0.000000       -0.182146         1    ;  uncertainty k = 0.819279
         4         5         6        11     9      180.000000       11.927540         2    ;  uncertainty k = 0.381804
         4         5         6        11     9        0.000000        0.149474         3    ;  uncertainty k = 0.439507
         4         5         6        11     9      180.000000        1.210181         4    ;  uncertainty k = 0.178362
         4         5         6        23     9        0.000000        0.137459         1    ;  uncertainty k = 0.354296
         4         5         6        23     9      180.000000        6.225584         2    ;  uncertainty k = 0.508388
         4         5         6        23     9        0.000000        1.358676         3    ;  uncertainty k = 0.434709
         4         5         6        23     9      180.000000        1.551355         4    ;  uncertainty k = 0.137926
         4         5        13        14     9        0.000000        4.361298         1    ;  uncertainty k = 0.813457
         4         5        13        14     9      180.000000        4.928944         2    ;  uncertainty k = 0.486891
         4         5        13        14     9        0.000000        0.414816         3    ;  uncertainty k = 0.158447
         4         5        13        14     9      180.000000        0.153111         4    ;  uncertainty k = 0.088159
         4         7         3        11     9        0.000000       -0.312575         1    ;  uncertainty k = 0.991126
         4         7         3        11     9      180.000000       12.944817         2    ;  uncertainty k = 0.292578
         4         7         3        11     9        0.000000       -1.150292         3    ;  uncertainty k = 0.626765
         4         7         3        11     9      180.000000        0.658536         4    ;  uncertainty k = 0.383610
         4         7         3        22     9        0.000000       -0.349596         1    ;  uncertainty k = 0.644503
         4         7         3        22     9      180.000000        5.397009         2    ;  uncertainty k = 0.589686
         4         7         3        22     9        0.000000        1.189208         3    ;  uncertainty k = 0.202508
         4         7         3        22     9      180.000000        1.062206         4    ;  uncertainty k = 0.234425
         5         4         2        21     9        0.000000        0.287126         1    ;  uncertainty k = 1.594544
         5         4         2        21     9      180.000000        4.510097         2    ;  uncertainty k = 1.010632
         5         4         2        21     9        0.000000        0.999979         3    ;  uncertainty k = 0.359875
         5         4         2        21     9      180.000000        0.076519         4    ;  uncertainty k = 0.082390
         5         4         7        12     9        0.000000        0.505682         1    ;  uncertainty k = 0.337778
         5         4         7        12     9      180.000000        8.991570         2    ;  uncertainty k = 0.455467
         5         4         7        12     9        0.000000        0.228200         3    ;  uncertainty k = 0.516105
         5         4         7        12     9      180.000000        1.149687         4    ;  uncertainty k = 0.238557
         5        13        14        15     9        0.000000        3.998254         1    ;  uncertainty k = 0.449882
         5        13        14        15     9      180.000000        4.753534         2    ;  uncertainty k = 0.233881
         5        13        14        15     9        0.000000        0.581546         3    ;  uncertainty k = 0.096882
         5        13        14        15     9      180.000000        0.162418         4    ;  uncertainty k = 0.088808
         5        13        14        19     9        0.000000        3.998254         1    ;  uncertainty k = 0.449882
         5        13        14        19     9      180.000000        4.753534         2    ;  uncertainty k = 0.233881
         5        13        14        19     9        0.000000        0.581546         3    ;  uncertainty k = 0.096882
         5        13        14        19     9      180.000000        0.162418         4    ;  uncertainty k = 0.088808
         6         5         4         7     9        0.000000       -0.057958         1    ;  uncertainty k = 0.264012
         6         5         4         7     9      180.000000        9.383846         2    ;  uncertainty k = 0.638191
         6         5         4         7     9        0.000000       -0.754310         3    ;  uncertainty k = 0.306045
         6         5         4         7     9      180.000000        0.951876         4    ;  uncertainty k = 0.170410
         6         5        13        14     9        0.000000        6.138326         1    ;  uncertainty k = 0.435754
         6         5        13        14     9      180.000000        4.387479         2    ;  uncertainty k = 0.390465
         6         5        13        14     9        0.000000        0.256709         3    ;  uncertainty k = 0.089021
         6         5        13        14     9      180.000000        0.147301         4    ;  uncertainty k = 0.081252
         6        11         3         7     9        0.000000       -0.516943         1    ;  uncertainty k = 0.848630
         6        11         3         7     9      180.000000       18.819457         2    ;  uncertainty k = 0.455500
         6        11         3         7     9        0.000000        1.070725         3    ;  uncertainty k = 0.490615
         6        11         3         7     9      180.000000        1.375730         4    ;  uncertainty k = 0.275368
         6        11         3        22     9        0.000000        0.132352         1    ;  uncertainty k = 0.093410
         6        11         3        22     9      180.000000       16.283310         2    ;  uncertainty k = 0.432587
         6        11         3        22     9        0.000000        2.340011         3    ;  uncertainty k = 0.313580
         6        11         3        22     9      180.000000        1.567589         4    ;  uncertainty k = 0.357860
         7         4         2        21     9        0.000000       -0.083982         1    ;  uncertainty k = 0.898719
         7         4         2        21     9      180.000000        7.797695         2    ;  uncertainty k = 0.521532
         7         4         2        21     9        0.000000        1.007297         3    ;  uncertainty k = 0.599017
         7         4         2        21     9      180.000000        0.335895         4    ;  uncertainty k = 0.267554
         7         4         5        13     9        0.000000       -0.078761         1    ;  uncertainty k = 0.459761
         7         4         5        13     9      180.000000        9.907642         2    ;  uncertainty k = 0.453400
         7         4         5        13     9        0.000000        1.231156         3    ;  uncertainty k = 0.227069
         7         4         5        13     9      180.000000        1.261363         4    ;  uncertainty k = 0.386961
         7        12         1         9     9        0.000000       -0.282806         1    ;  uncertainty k = 0.495381
         7        12         1         9     9      180.000000        7.776963         2    ;  uncertainty k = 0.831710
         7        12         1         9     9        0.000000        0.801240         3    ;  uncertainty k = 0.936233
         7        12         1         9     9      180.000000        0.450780         4    ;  uncertainty k = 0.613522
         8         9         1        12     9        0.000000        2.027773         1    ;  uncertainty k = 0.880605
         8         9         1        12     9      180.000000        5.251320         2    ;  uncertainty k = 0.209285
         8         9         1        12     9        0.000000        0.229569         3    ;  uncertainty k = 0.405749
         8         9         1        12     9      180.000000        0.225081         4    ;  uncertainty k = 0.186364
         9         1         2        21     9        0.000000        0.052067         1    ;  uncertainty k = 0.673167
         9         1         2        21     9      180.000000       10.523108         2    ;  uncertainty k = 0.319279
         9         1         2        21     9        0.000000        1.426057         3    ;  uncertainty k = 0.379920
         9         1         2        21     9      180.000000        0.828420         4    ;  uncertainty k = 0.257964
         9         8        24        30     9        0.000000        0.105643         1    ;  uncertainty k = 0.345722
         9         8        24        30     9      180.000000       -0.285860         2    ;  uncertainty k = 0.132804
         9         8        24        30     9        0.000000        0.302632         3    ;  uncertainty k = 0.097993
         9         8        24        30     9      180.000000        0.280845         4    ;  uncertainty k = 0.040431
         9         8        24        31     9        0.000000        0.105643         1    ;  uncertainty k = 0.345722
         9         8        24        31     9      180.000000       -0.285860         2    ;  uncertainty k = 0.132804
         9         8        24        31     9        0.000000        0.302632         3    ;  uncertainty k = 0.097993
         9         8        24        31     9      180.000000        0.280845         4    ;  uncertainty k = 0.040431
         9         8        24        32     9        0.000000        0.105643         1    ;  uncertainty k = 0.345722
         9         8        24        32     9      180.000000       -0.285860         2    ;  uncertainty k = 0.132804
         9         8        24        32     9        0.000000        0.302632         3    ;  uncertainty k = 0.097993
         9         8        24        32     9      180.000000        0.280845         4    ;  uncertainty k = 0.040431
         9         8        29        33     9        0.000000        0.105643         1    ;  uncertainty k = 0.345722
         9         8        29        33     9      180.000000       -0.285860         2    ;  uncertainty k = 0.132804
         9         8        29        33     9        0.000000        0.302632         3    ;  uncertainty k = 0.097993
         9         8        29        33     9      180.000000        0.280845         4    ;  uncertainty k = 0.040431
         9         8        29        34     9        0.000000        0.105643         1    ;  uncertainty k = 0.345722
         9         8        29        34     9      180.000000       -0.285860         2    ;  uncertainty k = 0.132804
         9         8        29        34     9        0.000000        0.302632         3    ;  uncertainty k = 0.097993
         9         8        29        34     9      180.000000        0.280845         4    ;  uncertainty k = 0.040431
         9         8        29        35     9        0.000000        0.105643         1    ;  uncertainty k = 0.345722
         9         8        29        35     9      180.000000       -0.285860         2    ;  uncertainty k = 0.132804
         9         8        29        35     9        0.000000        0.302632         3    ;  uncertainty k = 0.097993
         9         8        29        35     9      180.000000        0.280845         4    ;  uncertainty k = 0.040431
        10         9         1        12     9        0.000000       -3.280266         1    ;  uncertainty k = 1.232275
        10         9         1        12     9      180.000000        5.073681         2    ;  uncertainty k = 0.216036
        10         9         1        12     9        0.000000        0.163452         3    ;  uncertainty k = 0.290098
        10         9         1        12     9      180.000000        0.223769         4    ;  uncertainty k = 0.164213
        10         9         8        24     9        0.000000        4.181137         1    ;  uncertainty k = 0.946807
        10         9         8        24     9      180.000000       13.706121         2    ;  uncertainty k = 0.224775
        10         9         8        24     9        0.000000        0.469867         3    ;  uncertainty k = 0.231046
        10         9         8        24     9      180.000000       -0.158300         4    ;  uncertainty k = 0.244624
        10         9         8        29     9        0.000000        4.181137         1    ;  uncertainty k = 0.946807
        10         9         8        29     9      180.000000       13.706121         2    ;  uncertainty k = 0.224775
        10         9         8        29     9        0.000000        0.469867         3    ;  uncertainty k = 0.231046
        10         9         8        29     9      180.000000       -0.158300         4    ;  uncertainty k = 0.244624
        11         3         7        12     9        0.000000        0.051920         1    ;  uncertainty k = 0.569190
        11         3         7        12     9      180.000000        7.944946         2    ;  uncertainty k = 0.459398
        11         3         7        12     9        0.000000        0.814773         3    ;  uncertainty k = 0.161193
        11         3         7        12     9      180.000000        1.274971         4    ;  uncertainty k = 0.468262
        11         6         5        13     9        0.000000        0.068728         1    ;  uncertainty k = 0.446029
        11         6         5        13     9      180.000000       12.021990         2    ;  uncertainty k = 0.403082
        11         6         5        13     9        0.000000        1.220735         3    ;  uncertainty k = 0.295039
        11         6         5        13     9      180.000000        1.602285         4    ;  uncertainty k = 0.190173
        12         1         2        21     9        0.000000        0.214424         1    ;  uncertainty k = 0.494127
        12         1         2        21     9      180.000000       12.972355         2    ;  uncertainty k = 0.610907
        12         1         2        21     9        0.000000        1.796631         3    ;  uncertainty k = 0.291723
        12         1         2        21     9      180.000000        1.192412         4    ;  uncertainty k = 0.295329
        12         7         3        22     9        0.000000       -0.108424         1    ;  uncertainty k = 0.519985
        12         7         3        22     9      180.000000        4.400225         2    ;  uncertainty k = 0.357707
        12         7         3        22     9        0.000000        0.724944         3    ;  uncertainty k = 0.439675
        12         7         3        22     9      180.000000        0.607424         4    ;  uncertainty k = 0.251993
        13         5         6        23     9        0.000000        0.012840         1    ;  uncertainty k = 0.273784
        13         5         6        23     9      180.000000        8.121104         2    ;  uncertainty k = 0.435011
        13         5         6        23     9        0.000000        0.875853         3    ;  uncertainty k = 0.228471
        13         5         6        23     9      180.000000        1.171043         4    ;  uncertainty k = 0.270200
        13        14        15        16     9        0.000000        0.012940         1    ;  uncertainty k = 0.228359
        13        14        15        16     9      180.000000       10.340595         2    ;  uncertainty k = 0.588374
        13        14        15        16     9        0.000000        1.386508         3    ;  uncertainty k = 0.278635
        13        14        15        16     9      180.000000        1.718833         4    ;  uncertainty k = 0.162981
        13        14        15        25     9        0.000000       -0.088836         1    ;  uncertainty k = 0.068913
        13        14        15        25     9      180.000000        8.191003         2    ;  uncertainty k = 0.225194
        13        14        15        25     9        0.000000        0.860883         3    ;  uncertainty k = 0.288123
        13        14        15        25     9      180.000000        1.121587         4    ;  uncertainty k = 0.126904
        13        14        19        18     9        0.000000        0.012940         1    ;  uncertainty k = 0.228359
        13        14        19        18     9      180.000000       10.340595         2    ;  uncertainty k = 0.588374
        13        14        19        18     9        0.000000        1.386508         3    ;  uncertainty k = 0.278635
        13        14        19        18     9      180.000000        1.718833         4    ;  uncertainty k = 0.162981
        13        14        19        28     9        0.000000       -0.088836         1    ;  uncertainty k = 0.068913
        13        14        19        28     9      180.000000        8.191003         2    ;  uncertainty k = 0.225194
        13        14        19        28     9        0.000000        0.860883         3    ;  uncertainty k = 0.288123
        13        14        19        28     9      180.000000        1.121587         4    ;  uncertainty k = 0.126904
        14        15        16        17     9        0.000000       -0.084812         1    ;  uncertainty k = 0.199187
        14        15        16        17     9      180.000000       14.596956         2    ;  uncertainty k = 0.244288
        14        15        16        17     9        0.000000       -0.776642         3    ;  uncertainty k = 0.624211
        14        15        16        17     9      180.000000        0.848971         4    ;  uncertainty k = 0.330797
        14        15        16        26     9        0.000000       -0.006201         1    ;  uncertainty k = 0.224829
        14        15        16        26     9      180.000000        7.941388         2    ;  uncertainty k = 0.233372
        14        15        16        26     9        0.000000        1.341388         3    ;  uncertainty k = 0.226117
        14        15        16        26     9      180.000000        1.800227         4    ;  uncertainty k = 0.150458
        14        19        18        17     9        0.000000       -0.084812         1    ;  uncertainty k = 0.199187
        14        19        18        17     9      180.000000       14.596956         2    ;  uncertainty k = 0.244288
        14        19        18        17     9        0.000000       -0.776642         3    ;  uncertainty k = 0.624211
        14        19        18        17     9      180.000000        0.848971         4    ;  uncertainty k = 0.330797
        14        19        18        27     9        0.000000       -0.006201         1    ;  uncertainty k = 0.224829
        14        19        18        27     9      180.000000        7.941388         2    ;  uncertainty k = 0.233372
        14        19        18        27     9        0.000000        1.341388         3    ;  uncertainty k = 0.226117
        14        19        18        27     9      180.000000        1.800227         4    ;  uncertainty k = 0.150458
        15        14        19        18     9        0.000000        0.021859         1    ;  uncertainty k = 0.058100
        15        14        19        18     9      180.000000        9.563230         2    ;  uncertainty k = 0.533115
        15        14        19        18     9        0.000000       -0.148114         3    ;  uncertainty k = 0.376128
        15        14        19        18     9      180.000000        1.132526         4    ;  uncertainty k = 0.362724
        15        14        19        28     9        0.000000        0.225608         1    ;  uncertainty k = 0.250641
        15        14        19        28     9      180.000000        6.088909         2    ;  uncertainty k = 0.717074
        15        14        19        28     9        0.000000        1.425839         3    ;  uncertainty k = 0.391710
        15        14        19        28     9      180.000000        1.548148         4    ;  uncertainty k = 0.166724
        15        16        17        18     9        0.000000       -0.072057         1    ;  uncertainty k = 0.151933
        15        16        17        18     9      180.000000       10.503747         2    ;  uncertainty k = 0.409738
        15        16        17        18     9        0.000000       -0.388981         3    ;  uncertainty k = 0.497522
        15        16        17        18     9      180.000000        0.994175         4    ;  uncertainty k = 0.364995
        15        16        17        20     9        0.000000       -0.046877         1    ;  uncertainty k = 0.158967
        15        16        17        20     9      180.000000        9.185201         2    ;  uncertainty k = 0.550764
        15        16        17        20     9        0.000000        1.540013         3    ;  uncertainty k = 0.421444
        15        16        17        20     9      180.000000        1.637278         4    ;  uncertainty k = 0.144228
        16        15        14        19     9        0.000000        0.021859         1    ;  uncertainty k = 0.058100
        16        15        14        19     9      180.000000        9.563230         2    ;  uncertainty k = 0.533115
        16        15        14        19     9        0.000000       -0.148114         3    ;  uncertainty k = 0.376128
        16        15        14        19     9      180.000000        1.132526         4    ;  uncertainty k = 0.362724
        16        17        18        19     9        0.000000       -0.072057         1    ;  uncertainty k = 0.151933
        16        17        18        19     9      180.000000       10.503747         2    ;  uncertainty k = 0.409738
        16        17        18        19     9        0.000000       -0.388981         3    ;  uncertainty k = 0.497522
        16        17        18        19     9      180.000000        0.994175         4    ;  uncertainty k = 0.364995
        16        17        18        27     9        0.000000       -0.010357         1    ;  uncertainty k = 0.158180
        16        17        18        27     9      180.000000        6.039204         2    ;  uncertainty k = 0.577702
        16        17        18        27     9        0.000000        1.377794         3    ;  uncertainty k = 0.357667
        16        17        18        27     9      180.000000        1.517206         4    ;  uncertainty k = 0.203459
        17        16        15        25     9        0.000000        0.090333         1    ;  uncertainty k = 0.111265
        17        16        15        25     9      180.000000        7.948741         2    ;  uncertainty k = 0.316292
        17        16        15        25     9        0.000000        1.466779         3    ;  uncertainty k = 0.281186
        17        16        15        25     9      180.000000        1.885531         4    ;  uncertainty k = 0.162729
        17        18        19        28     9        0.000000        0.090333         1    ;  uncertainty k = 0.111265
        17        18        19        28     9      180.000000        7.948741         2    ;  uncertainty k = 0.316292
        17        18        19        28     9        0.000000        1.466779         3    ;  uncertainty k = 0.281186
        17        18        19        28     9      180.000000        1.885531         4    ;  uncertainty k = 0.162729
        18        17        16        26     9        0.000000       -0.010357         1    ;  uncertainty k = 0.158180
        18        17        16        26     9      180.000000        6.039204         2    ;  uncertainty k = 0.577702
        18        17        16        26     9        0.000000        1.377794         3    ;  uncertainty k = 0.357667
        18        17        16        26     9      180.000000        1.517206         4    ;  uncertainty k = 0.203459
        19        14        15        25     9        0.000000        0.225608         1    ;  uncertainty k = 0.250641
        19        14        15        25     9      180.000000        6.088909         2    ;  uncertainty k = 0.717074
        19        14        15        25     9        0.000000        1.425839         3    ;  uncertainty k = 0.391710
        19        14        15        25     9      180.000000        1.548148         4    ;  uncertainty k = 0.166724
        19        18        17        20     9        0.000000       -0.046877         1    ;  uncertainty k = 0.158967
        19        18        17        20     9      180.000000        9.185201         2    ;  uncertainty k = 0.550764
        19        18        17        20     9        0.000000        1.540013         3    ;  uncertainty k = 0.421444
        19        18        17        20     9      180.000000        1.637278         4    ;  uncertainty k = 0.144228
        20        17        16        26     9        0.000000       -0.189172         1    ;  uncertainty k = 0.151100
        20        17        16        26     9      180.000000        7.284958         2    ;  uncertainty k = 0.254965
        20        17        16        26     9        0.000000        0.631882         3    ;  uncertainty k = 0.368223
        20        17        16        26     9      180.000000        0.954031         4    ;  uncertainty k = 0.182884
        20        17        18        27     9        0.000000       -0.189172         1    ;  uncertainty k = 0.151100
        20        17        18        27     9      180.000000        7.284958         2    ;  uncertainty k = 0.254965
        20        17        18        27     9        0.000000        0.631882         3    ;  uncertainty k = 0.368223
        20        17        18        27     9      180.000000        0.954031         4    ;  uncertainty k = 0.182884
        24         8        29        33     9        0.000000       -0.685007         1    ;  uncertainty k = 0.438503
        24         8        29        33     9      180.000000       -1.095239         2    ;  uncertainty k = 0.225062
        24         8        29        33     9        0.000000        1.372842         3    ;  uncertainty k = 0.057607
        24         8        29        33     9      180.000000        0.152930         4    ;  uncertainty k = 0.034144
        24         8        29        34     9        0.000000       -0.685007         1    ;  uncertainty k = 0.438503
        24         8        29        34     9      180.000000       -1.095239         2    ;  uncertainty k = 0.225062
        24         8        29        34     9        0.000000        1.372842         3    ;  uncertainty k = 0.057607
        24         8        29        34     9      180.000000        0.152930         4    ;  uncertainty k = 0.034144
        24         8        29        35     9        0.000000       -0.685007         1    ;  uncertainty k = 0.438503
        24         8        29        35     9      180.000000       -1.095239         2    ;  uncertainty k = 0.225062
        24         8        29        35     9        0.000000        1.372842         3    ;  uncertainty k = 0.057607
        24         8        29        35     9      180.000000        0.152930         4    ;  uncertainty k = 0.034144
        25        15        16        26     9        0.000000       -0.093943         1    ;  uncertainty k = 0.178369
        25        15        16        26     9      180.000000        7.626056         2    ;  uncertainty k = 0.397032
        25        15        16        26     9        0.000000       -0.417074         3    ;  uncertainty k = 0.239577
        25        15        16        26     9      180.000000        0.127936         4    ;  uncertainty k = 0.124753
        27        18        19        28     9        0.000000       -0.093943         1    ;  uncertainty k = 0.178369
        27        18        19        28     9      180.000000        7.626056         2    ;  uncertainty k = 0.397032
        27        18        19        28     9        0.000000       -0.417074         3    ;  uncertainty k = 0.239577
        27        18        19        28     9      180.000000        0.127936         4    ;  uncertainty k = 0.124753
        29         8        24        30     9        0.000000       -0.685007         1    ;  uncertainty k = 0.438503
        29         8        24        30     9      180.000000       -1.095239         2    ;  uncertainty k = 0.225062
        29         8        24        30     9        0.000000        1.372842         3    ;  uncertainty k = 0.057607
        29         8        24        30     9      180.000000        0.152930         4    ;  uncertainty k = 0.034144
        29         8        24        31     9        0.000000       -0.685007         1    ;  uncertainty k = 0.438503
        29         8        24        31     9      180.000000       -1.095239         2    ;  uncertainty k = 0.225062
        29         8        24        31     9        0.000000        1.372842         3    ;  uncertainty k = 0.057607
        29         8        24        31     9      180.000000        0.152930         4    ;  uncertainty k = 0.034144
        29         8        24        32     9        0.000000       -0.685007         1    ;  uncertainty k = 0.438503
        29         8        24        32     9      180.000000       -1.095239         2    ;  uncertainty k = 0.225062
        29         8        24        32     9        0.000000        1.372842         3    ;  uncertainty k = 0.057607
        29         8        24        32     9      180.000000        0.152930         4    ;  uncertainty k = 0.034144

[ dihedrals ] ; impropers
;       ai        aj        ak        al funct           phase               k        pn
         1         2         9        12     4      180.000000        2.730456         2    ;  uncertainty k = 0.928880
         1         9        12         2     4      180.000000        2.730456         2    ;  uncertainty k = 0.928880
         1        12         2         9     4      180.000000        2.730456         2    ;  uncertainty k = 0.928880
         2         1         4        21     4      180.000000        1.652389         2    ;  uncertainty k = 0.347703
         2         4        21         1     4      180.000000        1.652389         2    ;  uncertainty k = 0.347703
         2        21         1         4     4      180.000000        1.652389         2    ;  uncertainty k = 0.347703
         3         7        11        22     4      180.000000       12.940082         2    ;  uncertainty k = 0.089545
         3        11        22         7     4      180.000000       12.940082         2    ;  uncertainty k = 0.089545
         3        22         7        11     4      180.000000       12.940082         2    ;  uncertainty k = 0.089545
         4         2         5         7     4      180.000000        1.634903         2    ;  uncertainty k = 1.017851
         4         5         7         2     4      180.000000        1.634903         2    ;  uncertainty k = 1.017851
         4         7         2         5     4      180.000000        1.634903         2    ;  uncertainty k = 1.017851
         5         4         6        13     4      180.000000       15.280144         2    ;  uncertainty k = 0.112219
         5         6        13         4     4      180.000000       15.280144         2    ;  uncertainty k = 0.112219
         5        13         4         6     4      180.000000       15.280144         2    ;  uncertainty k = 0.112219
         6         5        11        23     4      180.000000        9.523653         2    ;  uncertainty k = 0.155816
         6        11        23         5     4      180.000000        9.523653         2    ;  uncertainty k = 0.155816
         6        23         5        11     4      180.000000        9.523653         2    ;  uncertainty k = 0.155816
         7         3         4        12     4      180.000000        0.382172         2    ;  uncertainty k = 0.724051
         7         4        12         3     4      180.000000        0.382172         2    ;  uncertainty k = 0.724051
         7        12         3         4     4      180.000000        0.382172         2    ;  uncertainty k = 0.724051
         9         1         8        10     4      180.000000       50.519398         2    ;  uncertainty k = 0.040296
         9         8        10         1     4      180.000000       50.519398         2    ;  uncertainty k = 0.040296
         9        10         1         8     4      180.000000       50.519398         2    ;  uncertainty k = 0.040296
        14        13        15        19     4      180.000000       17.409305         2    ;  uncertainty k = 0.054636
        14        15        19        13     4      180.000000       17.409305         2    ;  uncertainty k = 0.054636
        14        19        13        15     4      180.000000       17.409305         2    ;  uncertainty k = 0.054636
        15        14        16        25     4      180.000000        3.008016         2    ;  uncertainty k = 0.105490
        15        16        25        14     4      180.000000        3.008016         2    ;  uncertainty k = 0.105490
        15        25        14        16     4      180.000000        3.008016         2    ;  uncertainty k = 0.105490
        16        15        17        26     4      180.000000        3.865517         2    ;  uncertainty k = 0.182529
        16        17        26        15     4      180.000000        3.865517         2    ;  uncertainty k = 0.182529
        16        26        15        17     4      180.000000        3.865517         2    ;  uncertainty k = 0.182529
        17        16        18        20     4      180.000000       12.038020         2    ;  uncertainty k = 0.044617
        17        18        20        16     4      180.000000       12.038020         2    ;  uncertainty k = 0.044617
        17        20        16        18     4      180.000000       12.038020         2    ;  uncertainty k = 0.044617
        18        17        19        27     4      180.000000        3.865515         2    ;  uncertainty k = 0.182529
        18        19        27        17     4      180.000000        3.865515         2    ;  uncertainty k = 0.182529
        18        27        17        19     4      180.000000        3.865515         2    ;  uncertainty k = 0.182529
        19        14        18        28     4      180.000000        3.008017         2    ;  uncertainty k = 0.105491
        19        18        28        14     4      180.000000        3.008017         2    ;  uncertainty k = 0.105491
        19        28        14        18     4      180.000000        3.008017         2    ;  uncertainty k = 0.105491

[ pairs ]
;       ai        aj funct
         1         3     1
         1         5     1
         1        24     1
         1        29     1
         2         3     1
         2         6     1
         2         8     1
         2        10     1
         2        13     1
         3         5     1
         3        23     1
         4         9     1
         4        11     1
         4        14     1
         4        22     1
         4        23     1
         5        12     1
         5        15     1
         5        19     1
         5        21     1
         6         7     1
         6        14     1
         6        22     1
         7         9     1
         7        13     1
         7        21     1
         8        12     1
         9        21     1
         9        30     1
         9        31     1
         9        32     1
         9        33     1
         9        34     1
         9        35     1
        10        12     1
        10        24     1
        10        29     1
        11        12     1
        11        13     1
        12        21     1
        12        22     1
        13        16     1
        13        18     1
        13        23     1
        13        25     1
        13        28     1
        14        17     1
        14        26     1
        14        27     1
        15        18     1
        15        20     1
        15        28     1
        16        19     1
        16        27     1
        17        25     1
        17        28     1
        18        26     1
        19        20     1
        19        25     1
        20        26     1
        20        27     1
        24        33     1
        24        34     1
        24        35     1
        25        26     1
        27        28     1
        29        30     1
        29        31     1
        29        32     1
