; ITP file created by ByteFF-joint-25, 2025-07-14 11:36:09.297422

[ atomtypes ]
;name           bonded.type        at.num        mass        charge   ptype           sigma         epsilon
 c0bf                                   6      0.0000       0.00000       A     3.31537e-01     4.12158e-01    ;  uncertainty sigma = 0.000014, epsilon = 0.001080
 c1bf                                   6      0.0000       0.00000       A     3.31557e-01     4.12601e-01    ;  uncertainty sigma = 0.000008, epsilon = 0.001185
 c2bf                                   6      0.0000       0.00000       A     3.31539e-01     4.13533e-01    ;  uncertainty sigma = 0.000013, epsilon = 0.000944
 c3bf                                   6      0.0000       0.00000       A     3.31550e-01     4.13792e-01    ;  uncertainty sigma = 0.000006, epsilon = 0.000295
 c4bf                                   6      0.0000       0.00000       A     3.31519e-01     4.13403e-01    ;  uncertainty sigma = 0.000024, epsilon = 0.000623
 c5bf                                   6      0.0000       0.00000       A     3.31498e-01     4.12877e-01    ;  uncertainty sigma = 0.000005, epsilon = 0.000808
 c6bf                                   6      0.0000       0.00000       A     3.31542e-01     4.13439e-01    ;  uncertainty sigma = 0.000012, epsilon = 0.000778
 n7bf                                   7      0.0000       0.00000       A     3.26999e-01     4.89943e-01    ;  uncertainty sigma = 0.000029, epsilon = 0.002042
 c8bf                                   6      0.0000       0.00000       A     3.31506e-01     4.12978e-01    ;  uncertainty sigma = 0.000015, epsilon = 0.001849
 o9bf                                   8      0.0000       0.00000       A     3.04831e-01     6.11835e-01    ;  uncertainty sigma = 0.000020, epsilon = 0.000998
 n10bf                                  7      0.0000       0.00000       A     3.38404e-01     3.93885e-01    ;  uncertainty sigma = 0.000020, epsilon = 0.001459
 s11bf                                 16      0.0000       0.00000       A     3.53285e-01     1.18148e+00    ;  uncertainty sigma = 0.000028, epsilon = 0.001651
 o12bf                                  8      0.0000       0.00000       A     3.15417e-01     3.02311e-01    ;  uncertainty sigma = 0.000023, epsilon = 0.001113
 c13bf                                  6      0.0000       0.00000       A     3.31510e-01     4.13658e-01    ;  uncertainty sigma = 0.000011, epsilon = 0.000806
 c14bf                                  6      0.0000       0.00000       A     3.31518e-01     4.13462e-01    ;  uncertainty sigma = 0.000002, epsilon = 0.000591
 c15bf                                  6      0.0000       0.00000       A     3.31523e-01     4.13492e-01    ;  uncertainty sigma = 0.000004, epsilon = 0.000562
 c16bf                                  6      0.0000       0.00000       A     3.31532e-01     4.13144e-01    ;  uncertainty sigma = 0.000004, epsilon = 0.000546
 c17bf                                  6      0.0000       0.00000       A     3.31523e-01     4.13492e-01    ;  uncertainty sigma = 0.000004, epsilon = 0.000562
 c18bf                                  6      0.0000       0.00000       A     3.31518e-01     4.13462e-01    ;  uncertainty sigma = 0.000002, epsilon = 0.000591
 cl19bf                                17      0.0000       0.00000       A     3.46630e-01     1.10437e+00    ;  uncertainty sigma = 0.000011, epsilon = 0.001278
 h20bf                                  1      0.0000       0.00000       A     2.62610e-01     6.70415e-02    ;  uncertainty sigma = 0.000018, epsilon = 0.000758
 h21bf                                  1      0.0000       0.00000       A     2.53593e-01     6.72766e-02    ;  uncertainty sigma = 0.000100, epsilon = 0.001112
 h22bf                                  1      0.0000       0.00000       A     2.53659e-01     6.69732e-02    ;  uncertainty sigma = 0.000032, epsilon = 0.000842
 h23bf                                  1      0.0000       0.00000       A     2.62555e-01     6.71248e-02    ;  uncertainty sigma = 0.000005, epsilon = 0.000438
 h24bf                                  1      0.0000       0.00000       A     2.62563e-01     6.70437e-02    ;  uncertainty sigma = 0.000011, epsilon = 0.000615
 h25bf                                  1      0.0000       0.00000       A     2.62563e-01     6.70437e-02    ;  uncertainty sigma = 0.000011, epsilon = 0.000615
 h26bf                                  1      0.0000       0.00000       A     2.62555e-01     6.71248e-02    ;  uncertainty sigma = 0.000005, epsilon = 0.000438
 h27bf                                  1      0.0000       0.00000       A     2.42189e-01     8.75936e-02    ;  uncertainty sigma = 0.000047, epsilon = 0.001146
 h28bf                                  1      0.0000       0.00000       A     1.10696e-01     4.13751e-02    ;  uncertainty sigma = 0.000052, epsilon = 0.000808
 c29bf                                  6      0.0000       0.00000       A     3.39791e-01     4.50864e-01    ;  uncertainty sigma = 0.000010, epsilon = 0.001049
 c30bf                                  6      0.0000       0.00000       A     3.39759e-01     4.51005e-01    ;  uncertainty sigma = 0.000010, epsilon = 0.000871
 c31bf                                  6      0.0000       0.00000       A     3.39759e-01     4.51005e-01    ;  uncertainty sigma = 0.000010, epsilon = 0.000871
 h32bf                                  1      0.0000       0.00000       A     2.59988e-01     8.68616e-02    ;  uncertainty sigma = 0.000018, epsilon = 0.000715
 h33bf                                  1      0.0000       0.00000       A     2.59988e-01     8.68616e-02    ;  uncertainty sigma = 0.000018, epsilon = 0.000715
 h34bf                                  1      0.0000       0.00000       A     2.59988e-01     8.68616e-02    ;  uncertainty sigma = 0.000018, epsilon = 0.000715
 h35bf                                  1      0.0000       0.00000       A     2.59988e-01     8.68616e-02    ;  uncertainty sigma = 0.000018, epsilon = 0.000715

[ moleculetype ]
;name             nrexcl
 MOL                   3

[ atoms ]
;       nr            type      resi   res      atom      cgnr      charge          mass ; qtot
         1            c0bf         1   UNL        c0         1    -0.11139       12.0110 ; qtot   -0.111
         2            c1bf         1   UNL        c1         2    -0.05715       12.0110 ; qtot   -0.169
         3            c2bf         1   UNL        c2         3     0.42609       12.0110 ; qtot    0.258
         4            c3bf         1   UNL        c3         4    -0.06473       12.0110 ; qtot    0.193
         5            c4bf         1   UNL        c4         5     0.04064       12.0110 ; qtot    0.233
         6            c5bf         1   UNL        c5         6     0.35575       12.0110 ; qtot    0.589
         7            c6bf         1   UNL        c6         7    -0.13246       12.0110 ; qtot    0.457
         8            n7bf         1   UNL        n7         8    -0.54718       14.0070 ; qtot   -0.090
         9            c8bf         1   UNL        c8         9     0.70199       12.0110 ; qtot    0.612
        10            o9bf         1   UNL        o9        10    -0.58470       15.9990 ; qtot    0.027
        11           n10bf         1   UNL       n10        11    -0.64087       14.0070 ; qtot   -0.614
        12           s11bf         1   UNL       s11        12    -0.01699       32.0670 ; qtot   -0.631
        13           o12bf         1   UNL       o12        13    -0.24264       15.9990 ; qtot   -0.874
        14           c13bf         1   UNL       c13        14     0.11070       12.0110 ; qtot   -0.763
        15           c14bf         1   UNL       c14        15    -0.14772       12.0110 ; qtot   -0.911
        16           c15bf         1   UNL       c15        16    -0.09747       12.0110 ; qtot   -1.008
        17           c16bf         1   UNL       c16        17     0.01479       12.0110 ; qtot   -0.993
        18           c17bf         1   UNL       c17        18    -0.09747       12.0110 ; qtot   -1.091
        19           c18bf         1   UNL       c18        19    -0.14772       12.0110 ; qtot   -1.239
        20          cl19bf         1   UNL      cl19        20    -0.11722       35.4530 ; qtot   -1.356
        21           h20bf         1   UNL       h20        21     0.17755        1.0080 ; qtot   -1.178
        22           h21bf         1   UNL       h21        22     0.03043        1.0080 ; qtot   -1.148
        23           h22bf         1   UNL       h22        23     0.03867        1.0080 ; qtot   -1.109
        24           h23bf         1   UNL       h23        24     0.15269        1.0080 ; qtot   -0.956
        25           h24bf         1   UNL       h24        25     0.15337        1.0080 ; qtot   -0.803
        26           h25bf         1   UNL       h25        26     0.15337        1.0080 ; qtot   -0.650
        27           h26bf         1   UNL       h26        27     0.15269        1.0080 ; qtot   -0.497
        28           h27bf         1   UNL       h27        28     0.08634        1.0080 ; qtot   -0.411
        29           h28bf         1   UNL       h28        29     0.31720        1.0080 ; qtot   -0.093
        30           c29bf         1   UNL       c29        30     0.03936       12.0110 ; qtot   -0.054
        31           c30bf         1   UNL       c30        31    -0.13215       12.0110 ; qtot   -0.186
        32           c31bf         1   UNL       c31        32    -0.13215       12.0110 ; qtot   -0.318
        33           h32bf         1   UNL       h32        33     0.07960        1.0080 ; qtot   -0.239
        34           h33bf         1   UNL       h33        34     0.07960        1.0080 ; qtot   -0.159
        35           h34bf         1   UNL       h34        35     0.07960        1.0080 ; qtot   -0.080
        36           h35bf         1   UNL       h35        36     0.07958        1.0080 ; qtot   -0.000

[ bonds ]
;       ai        aj funct               r               k
         1         2     1        0.136675   404955.554639    ;  uncertainty r = 0.000075, k = 1.547870
         1         9     1        0.148724   269682.370752    ;  uncertainty r = 0.000061, k = 11.417344
         1        12     1        0.175899   164918.320361    ;  uncertainty r = 0.000141, k = 14.667823
         2         4     1        0.143507   245639.667480    ;  uncertainty r = 0.000085, k = 13.204296
         2        21     1        0.108407   334591.624951    ;  uncertainty r = 0.000037, k = 1.279132
         3         7     1        0.139862   357185.020654    ;  uncertainty r = 0.000101, k = 8.409085
         3        11     1        0.132914   403937.670996    ;  uncertainty r = 0.000085, k = 3.484706
         3        22     1        0.108996   332692.021533    ;  uncertainty r = 0.000016, k = 2.312073
         4         5     1        0.140198   351630.878125    ;  uncertainty r = 0.000059, k = 7.105596
         4         7     1        0.141255   373665.113281    ;  uncertainty r = 0.000078, k = 14.753730
         5         6     1        0.138631   347797.783545    ;  uncertainty r = 0.000072, k = 10.298013
         5        13     1        0.137597   318910.792773    ;  uncertainty r = 0.000055, k = 12.405238
         6        11     1        0.134435   379665.874316    ;  uncertainty r = 0.000185, k = 8.749163
         6        23     1        0.108927   339756.581934    ;  uncertainty r = 0.000043, k = 5.117425
         7        12     1        0.175134   182308.772632    ;  uncertainty r = 0.000136, k = 10.598524
         8         9     1        0.137432   317715.656055    ;  uncertainty r = 0.000108, k = 8.222897
         8        29     1        0.101372   414618.107324    ;  uncertainty r = 0.000056, k = 4.262096
         8        30     1        0.143736   265463.435986    ;  uncertainty r = 0.000054, k = 12.222902
         9        10     1        0.123526   749010.108691    ;  uncertainty r = 0.000072, k = 8.296288
        13        14     1        0.138284   318274.791064    ;  uncertainty r = 0.000075, k = 8.099025
        14        15     1        0.139423   356196.504687    ;  uncertainty r = 0.000043, k = 1.660662
        14        19     1        0.139423   356196.504687    ;  uncertainty r = 0.000043, k = 1.660662
        15        16     1        0.139179   373143.287988    ;  uncertainty r = 0.000009, k = 2.388054
        15        24     1        0.108786   336460.507227    ;  uncertainty r = 0.000014, k = 1.146262
        16        17     1        0.139495   363006.460107    ;  uncertainty r = 0.000019, k = 1.852841
        16        25     1        0.108702   334843.344238    ;  uncertainty r = 0.000027, k = 0.886329
        17        18     1        0.139495   363006.460107    ;  uncertainty r = 0.000019, k = 1.852841
        17        20     1        0.175852   197478.236963    ;  uncertainty r = 0.000021, k = 4.301143
        18        19     1        0.139179   373143.287988    ;  uncertainty r = 0.000009, k = 2.388054
        18        26     1        0.108702   334843.344238    ;  uncertainty r = 0.000027, k = 0.886329
        19        27     1        0.108786   336460.507227    ;  uncertainty r = 0.000014, k = 1.146262
        28        30     1        0.108656   313083.249951    ;  uncertainty r = 0.000014, k = 5.757148
        30        31     1        0.151017   202567.131665    ;  uncertainty r = 0.000043, k = 3.179974
        30        32     1        0.151017   202567.131665    ;  uncertainty r = 0.000043, k = 3.179974
        31        32     1        0.151616   215051.011426    ;  uncertainty r = 0.000071, k = 4.422292
        31        33     1        0.108611   313524.965332    ;  uncertainty r = 0.000013, k = 2.878264
        31        34     1        0.108611   313524.965332    ;  uncertainty r = 0.000013, k = 2.878252
        32        35     1        0.108611   313524.965332    ;  uncertainty r = 0.000013, k = 2.878252
        32        36     1        0.108611   313524.965332    ;  uncertainty r = 0.000013, k = 2.878252

[ angles ]
;       ai        aj        ak funct           theta             cth
         1         2         4     1      113.026955      695.622177    ;  uncertainty theta = 0.002605, k = 0.217702
         1         2        21     1      121.385941      247.752576    ;  uncertainty theta = 0.004852, k = 0.193728
         1         9         8     1      115.059776      457.583534    ;  uncertainty theta = 0.004032, k = 0.263999
         1         9        10     1      123.083969      489.214053    ;  uncertainty theta = 0.004527, k = 0.187227
         1        12         7     1       90.113297     1160.658812    ;  uncertainty theta = 0.004341, k = 0.232322
         2         1         9     1      124.974960      294.379348    ;  uncertainty theta = 0.005413, k = 0.281711
         2         1        12     1      114.870834      465.732681    ;  uncertainty theta = 0.008009, k = 0.260017
         2         4         5     1      127.883347      376.276410    ;  uncertainty theta = 0.002865, k = 0.188799
         2         4         7     1      112.788391      582.816146    ;  uncertainty theta = 0.001170, k = 0.251536
         3         7         4     1      118.412918      375.063110    ;  uncertainty theta = 0.003960, k = 0.215840
         3         7        12     1      126.399841      363.072384    ;  uncertainty theta = 0.001964, k = 0.146330
         3        11         6     1      120.842484      402.797848    ;  uncertainty theta = 0.002548, k = 0.205041
         4         2        21     1      122.124130      248.574520    ;  uncertainty theta = 0.005860, k = 0.110089
         4         5         6     1      119.524513      391.141115    ;  uncertainty theta = 0.005581, k = 0.213545
         4         5        13     1      119.386940      395.416697    ;  uncertainty theta = 0.007236, k = 0.138991
         4         7        12     1      111.022018      498.676733    ;  uncertainty theta = 0.005678, k = 0.179249
         5         4         7     1      115.320740      426.213781    ;  uncertainty theta = 0.006948, k = 0.239149
         5         6        11     1      124.514183      661.788444    ;  uncertainty theta = 0.003510, k = 0.148398
         5         6        23     1      119.349350      264.281662    ;  uncertainty theta = 0.001084, k = 0.195892
         5        13        14     1      112.893166      470.825387    ;  uncertainty theta = 0.002135, k = 0.157860
         6         5        13     1      119.648598      413.022300    ;  uncertainty theta = 0.006887, k = 0.248373
         7         3        11     1      121.565308      690.810347    ;  uncertainty theta = 0.002110, k = 0.113863
         7         3        22     1      122.306641      288.040877    ;  uncertainty theta = 0.002283, k = 0.091097
         8         9        10     1      123.562454      782.639047    ;  uncertainty theta = 0.004591, k = 0.160864
         8        30        28     1      116.084732      291.947161    ;  uncertainty theta = 0.010126, k = 0.325460
         8        30        31     1      113.686356      366.592866    ;  uncertainty theta = 0.005979, k = 0.187126
         8        30        32     1      113.686356      366.592866    ;  uncertainty theta = 0.005979, k = 0.187126
         9         1        12     1      118.281509      286.108899    ;  uncertainty theta = 0.003404, k = 0.324459
         9         8        29     1      115.937828      339.263946    ;  uncertainty theta = 0.003789, k = 0.131669
         9         8        30     1      116.128700      435.870511    ;  uncertainty theta = 0.005601, k = 0.145584
        11         3        22     1      116.879013      331.081122    ;  uncertainty theta = 0.001934, k = 0.154842
        11         6        23     1      116.582138      339.078387    ;  uncertainty theta = 0.002044, k = 0.073114
        13        14        15     1      119.605370      414.485353    ;  uncertainty theta = 0.003848, k = 0.027613
        13        14        19     1      119.605370      414.485353    ;  uncertainty theta = 0.003848, k = 0.027613
        14        15        16     1      119.070030      516.640079    ;  uncertainty theta = 0.002096, k = 0.087661
        14        15        24     1      120.543625      275.370896    ;  uncertainty theta = 0.001603, k = 0.031522
        14        19        18     1      119.070030      516.640079    ;  uncertainty theta = 0.002096, k = 0.087661
        14        19        27     1      120.543625      275.370896    ;  uncertainty theta = 0.001603, k = 0.031522
        15        14        19     1      121.385071      388.674390    ;  uncertainty theta = 0.003318, k = 0.099530
        15        16        17     1      119.072433      503.912990    ;  uncertainty theta = 0.001237, k = 0.034021
        15        16        25     1      120.368896      279.362729    ;  uncertainty theta = 0.002070, k = 0.019960
        16        15        24     1      120.542198      288.492916    ;  uncertainty theta = 0.001251, k = 0.027493
        16        17        18     1      120.545288      372.862993    ;  uncertainty theta = 0.001637, k = 0.046553
        16        17        20     1      120.352928      443.931332    ;  uncertainty theta = 0.001270, k = 0.021859
        17        16        25     1      120.931236      284.614308    ;  uncertainty theta = 0.001296, k = 0.014096
        17        18        19     1      119.072433      503.912990    ;  uncertainty theta = 0.001237, k = 0.034021
        17        18        26     1      120.931236      284.614308    ;  uncertainty theta = 0.001296, k = 0.014096
        18        17        20     1      120.352928      443.931332    ;  uncertainty theta = 0.001270, k = 0.021859
        18        19        27     1      120.542198      288.492916    ;  uncertainty theta = 0.001251, k = 0.027493
        19        18        26     1      120.368896      279.362729    ;  uncertainty theta = 0.002070, k = 0.019960
        28        30        31     1      109.264572      170.539083    ;  uncertainty theta = 0.011081, k = 0.174404
        28        30        32     1      109.264572      170.539083    ;  uncertainty theta = 0.011081, k = 0.174404
        29         8        30     1      112.543419      326.424366    ;  uncertainty theta = 0.003114, k = 0.158323
        30        31        32     1       59.951836      167.360000    ;  uncertainty theta = 0.029012, k = 0.000000
        30        31        33     1      108.442139      217.496624    ;  uncertainty theta = 0.002985, k = 0.160260
        30        31        34     1      108.442139      217.496624    ;  uncertainty theta = 0.002985, k = 0.160260
        30        32        31     1       59.951836      167.360000    ;  uncertainty theta = 0.029012, k = 0.000000
        30        32        35     1      108.442139      217.496624    ;  uncertainty theta = 0.002985, k = 0.160260
        30        32        36     1      108.442139      217.496624    ;  uncertainty theta = 0.002985, k = 0.160260
        31        30        32     1       58.308910      167.360000    ;  uncertainty theta = 0.017814, k = 0.000000
        31        32        35     1      109.736046      214.624130    ;  uncertainty theta = 0.002765, k = 0.118568
        31        32        36     1      109.736046      214.624130    ;  uncertainty theta = 0.002765, k = 0.118568
        32        31        33     1      109.736046      214.624130    ;  uncertainty theta = 0.002765, k = 0.118568
        32        31        34     1      109.736046      214.624130    ;  uncertainty theta = 0.002765, k = 0.118568
        33        31        34     1      114.474220      200.609604    ;  uncertainty theta = 0.003360, k = 0.081747
        35        32        36     1      114.474220      200.609604    ;  uncertainty theta = 0.003360, k = 0.081747

[ dihedrals ] ; propers for gromacs 4.5 or higher, use funct 9
;       ai        aj        ak        al funct           phase               k        pn
         1         2         4         5     9        0.000000       -0.304293         1    ;  uncertainty k = 0.344502
         1         2         4         5     9      180.000000        7.267561         2    ;  uncertainty k = 0.761229
         1         2         4         5     9        0.000000        0.685564         3    ;  uncertainty k = 0.198487
         1         2         4         5     9      180.000000        0.578631         4    ;  uncertainty k = 0.306761
         1         2         4         7     9        0.000000        0.061800         1    ;  uncertainty k = 0.550813
         1         2         4         7     9      180.000000       12.482992         2    ;  uncertainty k = 0.523917
         1         2         4         7     9        0.000000       -5.096005         3    ;  uncertainty k = 1.576217
         1         2         4         7     9      180.000000        1.304414         4    ;  uncertainty k = 0.400963
         1         9         8        29     9        0.000000        0.039970         1    ;  uncertainty k = 0.938304
         1         9         8        29     9      180.000000        7.268501         2    ;  uncertainty k = 0.987298
         1         9         8        29     9        0.000000        3.295725         3    ;  uncertainty k = 0.223985
         1         9         8        29     9      180.000000        0.035550         4    ;  uncertainty k = 0.350437
         1         9         8        30     9        0.000000        2.656345         1    ;  uncertainty k = 0.911198
         1         9         8        30     9      180.000000       13.514468         2    ;  uncertainty k = 0.299454
         1         9         8        30     9        0.000000        1.369792         3    ;  uncertainty k = 0.418996
         1         9         8        30     9      180.000000       -0.945441         4    ;  uncertainty k = 0.337250
         1        12         7         3     9        0.000000       -0.983272         1    ;  uncertainty k = 2.526093
         1        12         7         3     9      180.000000        6.598167         2    ;  uncertainty k = 1.097061
         1        12         7         3     9        0.000000        0.769964         3    ;  uncertainty k = 0.646673
         1        12         7         3     9      180.000000        0.560058         4    ;  uncertainty k = 0.308259
         1        12         7         4     9        0.000000       -0.587653         1    ;  uncertainty k = 0.891115
         1        12         7         4     9      180.000000       14.884871         2    ;  uncertainty k = 0.532305
         1        12         7         4     9        0.000000       -6.543045         3    ;  uncertainty k = 0.696385
         1        12         7         4     9      180.000000        0.289792         4    ;  uncertainty k = 0.919597
         2         1         9         8     9        0.000000       -0.478274         1    ;  uncertainty k = 1.093353
         2         1         9         8     9      180.000000        2.007580         2    ;  uncertainty k = 0.349494
         2         1         9         8     9        0.000000        0.303663         3    ;  uncertainty k = 0.241559
         2         1         9         8     9      180.000000       -0.391689         4    ;  uncertainty k = 0.142257
         2         1         9        10     9        0.000000        0.382090         1    ;  uncertainty k = 0.715949
         2         1         9        10     9      180.000000        2.646067         2    ;  uncertainty k = 0.169282
         2         1         9        10     9        0.000000        0.791422         3    ;  uncertainty k = 0.240544
         2         1         9        10     9      180.000000        0.187392         4    ;  uncertainty k = 0.132649
         2         1        12         7     9        0.000000       -0.794291         1    ;  uncertainty k = 0.887023
         2         1        12         7     9      180.000000       13.148348         2    ;  uncertainty k = 0.297914
         2         1        12         7     9        0.000000       -5.833949         3    ;  uncertainty k = 0.993924
         2         1        12         7     9      180.000000        1.490746         4    ;  uncertainty k = 0.446157
         2         4         5         6     9        0.000000       -0.077748         1    ;  uncertainty k = 0.719225
         2         4         5         6     9      180.000000        5.771156         2    ;  uncertainty k = 0.658783
         2         4         5         6     9        0.000000        0.593543         3    ;  uncertainty k = 0.273145
         2         4         5         6     9      180.000000        1.214938         4    ;  uncertainty k = 0.280901
         2         4         5        13     9        0.000000        0.095652         1    ;  uncertainty k = 0.518698
         2         4         5        13     9      180.000000        7.787205         2    ;  uncertainty k = 0.609172
         2         4         5        13     9        0.000000        1.305947         3    ;  uncertainty k = 0.308489
         2         4         5        13     9      180.000000        1.316263         4    ;  uncertainty k = 0.356228
         2         4         7         3     9        0.000000       -0.215111         1    ;  uncertainty k = 0.752876
         2         4         7         3     9      180.000000        7.942205         2    ;  uncertainty k = 0.412218
         2         4         7         3     9        0.000000        0.467614         3    ;  uncertainty k = 0.492602
         2         4         7         3     9      180.000000        1.383584         4    ;  uncertainty k = 0.226489
         2         4         7        12     9        0.000000       -0.392608         1    ;  uncertainty k = 0.562199
         2         4         7        12     9      180.000000       10.208895         2    ;  uncertainty k = 0.649705
         2         4         7        12     9        0.000000       -0.618618         3    ;  uncertainty k = 0.900825
         2         4         7        12     9      180.000000        1.357024         4    ;  uncertainty k = 0.225286
         3         7         4         5     9        0.000000       -0.412602         1    ;  uncertainty k = 0.494196
         3         7         4         5     9      180.000000        8.411299         2    ;  uncertainty k = 0.732584
         3         7         4         5     9        0.000000        0.085424         3    ;  uncertainty k = 0.093989
         3         7         4         5     9      180.000000        1.199771         4    ;  uncertainty k = 0.246521
         3        11         6         5     9        0.000000        0.208590         1    ;  uncertainty k = 0.394723
         3        11         6         5     9      180.000000       13.469351         2    ;  uncertainty k = 0.107582
         3        11         6         5     9        0.000000        1.053566         3    ;  uncertainty k = 0.582690
         3        11         6         5     9      180.000000        1.316363         4    ;  uncertainty k = 0.280578
         3        11         6        23     9        0.000000        0.392802         1    ;  uncertainty k = 0.307760
         3        11         6        23     9      180.000000       13.819319         2    ;  uncertainty k = 0.400371
         3        11         6        23     9        0.000000        2.178342         3    ;  uncertainty k = 0.456587
         3        11         6        23     9      180.000000        1.475511         4    ;  uncertainty k = 0.350536
         4         2         1         9     9        0.000000        0.543034         1    ;  uncertainty k = 0.491882
         4         2         1         9     9      180.000000       15.493306         2    ;  uncertainty k = 0.209786
         4         2         1         9     9        0.000000        1.875983         3    ;  uncertainty k = 0.587095
         4         2         1         9     9      180.000000        0.992917         4    ;  uncertainty k = 0.162419
         4         2         1        12     9        0.000000       -0.269210         1    ;  uncertainty k = 0.465159
         4         2         1        12     9      180.000000       19.074459         2    ;  uncertainty k = 0.378057
         4         2         1        12     9        0.000000       -1.088324         3    ;  uncertainty k = 0.866343
         4         2         1        12     9      180.000000        1.000635         4    ;  uncertainty k = 0.653464
         4         5         6        11     9        0.000000       -0.182146         1    ;  uncertainty k = 0.819279
         4         5         6        11     9      180.000000       11.927540         2    ;  uncertainty k = 0.381804
         4         5         6        11     9        0.000000        0.149474         3    ;  uncertainty k = 0.439507
         4         5         6        11     9      180.000000        1.210181         4    ;  uncertainty k = 0.178362
         4         5         6        23     9        0.000000        0.137459         1    ;  uncertainty k = 0.354296
         4         5         6        23     9      180.000000        6.225584         2    ;  uncertainty k = 0.508388
         4         5         6        23     9        0.000000        1.358676         3    ;  uncertainty k = 0.434709
         4         5         6        23     9      180.000000        1.551355         4    ;  uncertainty k = 0.137926
         4         5        13        14     9        0.000000        4.361298         1    ;  uncertainty k = 0.813457
         4         5        13        14     9      180.000000        4.928944         2    ;  uncertainty k = 0.486891
         4         5        13        14     9        0.000000        0.414816         3    ;  uncertainty k = 0.158447
         4         5        13        14     9      180.000000        0.153111         4    ;  uncertainty k = 0.088159
         4         7         3        11     9        0.000000       -0.312575         1    ;  uncertainty k = 0.991126
         4         7         3        11     9      180.000000       12.944817         2    ;  uncertainty k = 0.292578
         4         7         3        11     9        0.000000       -1.150292         3    ;  uncertainty k = 0.626765
         4         7         3        11     9      180.000000        0.658536         4    ;  uncertainty k = 0.383610
         4         7         3        22     9        0.000000       -0.349596         1    ;  uncertainty k = 0.644503
         4         7         3        22     9      180.000000        5.397009         2    ;  uncertainty k = 0.589686
         4         7         3        22     9        0.000000        1.189208         3    ;  uncertainty k = 0.202508
         4         7         3        22     9      180.000000        1.062206         4    ;  uncertainty k = 0.234425
         5         4         2        21     9        0.000000        0.340607         1    ;  uncertainty k = 1.565363
         5         4         2        21     9      180.000000        4.554376         2    ;  uncertainty k = 0.971493
         5         4         2        21     9        0.000000        0.994859         3    ;  uncertainty k = 0.364608
         5         4         2        21     9      180.000000        0.076505         4    ;  uncertainty k = 0.081258
         5         4         7        12     9        0.000000        0.502700         1    ;  uncertainty k = 0.301113
         5         4         7        12     9      180.000000        8.922103         2    ;  uncertainty k = 0.436343
         5         4         7        12     9        0.000000        0.230408         3    ;  uncertainty k = 0.521203
         5         4         7        12     9      180.000000        1.151495         4    ;  uncertainty k = 0.242804
         5        13        14        15     9        0.000000        3.998254         1    ;  uncertainty k = 0.449882
         5        13        14        15     9      180.000000        4.753534         2    ;  uncertainty k = 0.233881
         5        13        14        15     9        0.000000        0.581546         3    ;  uncertainty k = 0.096882
         5        13        14        15     9      180.000000        0.162418         4    ;  uncertainty k = 0.088808
         5        13        14        19     9        0.000000        3.998254         1    ;  uncertainty k = 0.449882
         5        13        14        19     9      180.000000        4.753534         2    ;  uncertainty k = 0.233881
         5        13        14        19     9        0.000000        0.581546         3    ;  uncertainty k = 0.096882
         5        13        14        19     9      180.000000        0.162418         4    ;  uncertainty k = 0.088808
         6         5         4         7     9        0.000000       -0.057958         1    ;  uncertainty k = 0.264012
         6         5         4         7     9      180.000000        9.383846         2    ;  uncertainty k = 0.638191
         6         5         4         7     9        0.000000       -0.754310         3    ;  uncertainty k = 0.306045
         6         5         4         7     9      180.000000        0.951876         4    ;  uncertainty k = 0.170410
         6         5        13        14     9        0.000000        6.138326         1    ;  uncertainty k = 0.435754
         6         5        13        14     9      180.000000        4.387479         2    ;  uncertainty k = 0.390465
         6         5        13        14     9        0.000000        0.256709         3    ;  uncertainty k = 0.089021
         6         5        13        14     9      180.000000        0.147301         4    ;  uncertainty k = 0.081252
         6        11         3         7     9        0.000000       -0.516943         1    ;  uncertainty k = 0.848630
         6        11         3         7     9      180.000000       18.819457         2    ;  uncertainty k = 0.455500
         6        11         3         7     9        0.000000        1.070725         3    ;  uncertainty k = 0.490615
         6        11         3         7     9      180.000000        1.375730         4    ;  uncertainty k = 0.275368
         6        11         3        22     9        0.000000        0.132352         1    ;  uncertainty k = 0.093410
         6        11         3        22     9      180.000000       16.283310         2    ;  uncertainty k = 0.432587
         6        11         3        22     9        0.000000        2.340011         3    ;  uncertainty k = 0.313580
         6        11         3        22     9      180.000000        1.567589         4    ;  uncertainty k = 0.357860
         7         4         2        21     9        0.000000       -0.031782         1    ;  uncertainty k = 0.788088
         7         4         2        21     9      180.000000        7.923147         2    ;  uncertainty k = 0.541291
         7         4         2        21     9        0.000000        0.976951         3    ;  uncertainty k = 0.605730
         7         4         2        21     9      180.000000        0.330894         4    ;  uncertainty k = 0.251955
         7         4         5        13     9        0.000000       -0.078761         1    ;  uncertainty k = 0.459761
         7         4         5        13     9      180.000000        9.907642         2    ;  uncertainty k = 0.453400
         7         4         5        13     9        0.000000        1.231156         3    ;  uncertainty k = 0.227069
         7         4         5        13     9      180.000000        1.261363         4    ;  uncertainty k = 0.386961
         7        12         1         9     9        0.000000        0.032541         1    ;  uncertainty k = 0.721044
         7        12         1         9     9      180.000000        7.698901         2    ;  uncertainty k = 0.743904
         7        12         1         9     9        0.000000        1.012678         3    ;  uncertainty k = 0.926587
         7        12         1         9     9      180.000000        0.429879         4    ;  uncertainty k = 0.328133
         8         9         1        12     9        0.000000        3.085924         1    ;  uncertainty k = 0.643323
         8         9         1        12     9      180.000000        3.635814         2    ;  uncertainty k = 0.412290
         8         9         1        12     9        0.000000        0.858887         3    ;  uncertainty k = 0.221061
         8         9         1        12     9      180.000000       -0.522735         4    ;  uncertainty k = 0.200365
         8        30        31        32     9        0.000000       73.468971         1    ;  uncertainty k = 0.320392
         8        30        31        32     9      180.000000       -2.396326         2    ;  uncertainty k = 5.832085
         8        30        31        32     9        0.000000      -13.315152         3    ;  uncertainty k = 2.499002
         8        30        31        32     9      180.000000       10.617893         4    ;  uncertainty k = 0.729166
         8        30        31        33     9        0.000000       -1.296055         1    ;  uncertainty k = 4.056221
         8        30        31        33     9      180.000000       -2.842688         2    ;  uncertainty k = 1.672737
         8        30        31        33     9        0.000000        0.755608         3    ;  uncertainty k = 0.608722
         8        30        31        33     9      180.000000       -0.775983         4    ;  uncertainty k = 0.341944
         8        30        31        34     9        0.000000       -1.296055         1    ;  uncertainty k = 4.056221
         8        30        31        34     9      180.000000       -2.842688         2    ;  uncertainty k = 1.672737
         8        30        31        34     9        0.000000        0.755608         3    ;  uncertainty k = 0.608722
         8        30        31        34     9      180.000000       -0.775983         4    ;  uncertainty k = 0.341944
         8        30        32        31     9        0.000000       73.468971         1    ;  uncertainty k = 0.320392
         8        30        32        31     9      180.000000       -2.396326         2    ;  uncertainty k = 5.832085
         8        30        32        31     9        0.000000      -13.315152         3    ;  uncertainty k = 2.499002
         8        30        32        31     9      180.000000       10.617893         4    ;  uncertainty k = 0.729166
         8        30        32        35     9        0.000000       -1.296055         1    ;  uncertainty k = 4.056221
         8        30        32        35     9      180.000000       -2.842688         2    ;  uncertainty k = 1.672737
         8        30        32        35     9        0.000000        0.755608         3    ;  uncertainty k = 0.608722
         8        30        32        35     9      180.000000       -0.775983         4    ;  uncertainty k = 0.341944
         8        30        32        36     9        0.000000       -1.296055         1    ;  uncertainty k = 4.056221
         8        30        32        36     9      180.000000       -2.842688         2    ;  uncertainty k = 1.672737
         8        30        32        36     9        0.000000        0.755608         3    ;  uncertainty k = 0.608722
         8        30        32        36     9      180.000000       -0.775983         4    ;  uncertainty k = 0.341944
         9         1         2        21     9        0.000000        0.048136         1    ;  uncertainty k = 0.844048
         9         1         2        21     9      180.000000       10.409231         2    ;  uncertainty k = 0.498474
         9         1         2        21     9        0.000000        1.408412         3    ;  uncertainty k = 0.245132
         9         1         2        21     9      180.000000        0.785326         4    ;  uncertainty k = 0.240919
         9         8        30        28     9        0.000000        2.285052         1    ;  uncertainty k = 0.686313
         9         8        30        28     9      180.000000        0.195794         2    ;  uncertainty k = 0.476817
         9         8        30        28     9        0.000000        0.805936         3    ;  uncertainty k = 0.168501
         9         8        30        28     9      180.000000        0.349311         4    ;  uncertainty k = 0.112512
         9         8        30        31     9        0.000000       -0.010082         1    ;  uncertainty k = 0.574492
         9         8        30        31     9      180.000000        0.294372         2    ;  uncertainty k = 0.521647
         9         8        30        31     9        0.000000        0.311413         3    ;  uncertainty k = 0.204126
         9         8        30        31     9      180.000000        0.479943         4    ;  uncertainty k = 0.134378
         9         8        30        32     9        0.000000       -0.010082         1    ;  uncertainty k = 0.574492
         9         8        30        32     9      180.000000        0.294372         2    ;  uncertainty k = 0.521647
         9         8        30        32     9        0.000000        0.311413         3    ;  uncertainty k = 0.204126
         9         8        30        32     9      180.000000        0.479943         4    ;  uncertainty k = 0.134378
        10         9         1        12     9        0.000000       -2.481212         1    ;  uncertainty k = 0.871234
        10         9         1        12     9      180.000000        4.802480         2    ;  uncertainty k = 0.363460
        10         9         1        12     9        0.000000        0.354000         3    ;  uncertainty k = 0.203342
        10         9         1        12     9      180.000000        0.158732         4    ;  uncertainty k = 0.124369
        10         9         8        29     9        0.000000        2.652794         1    ;  uncertainty k = 1.254054
        10         9         8        29     9      180.000000       12.308722         2    ;  uncertainty k = 0.375207
        10         9         8        29     9        0.000000        1.519494         3    ;  uncertainty k = 0.220115
        10         9         8        29     9      180.000000       -0.704896         4    ;  uncertainty k = 0.270164
        10         9         8        30     9        0.000000        2.065302         1    ;  uncertainty k = 0.881819
        10         9         8        30     9      180.000000        9.831799         2    ;  uncertainty k = 0.233920
        10         9         8        30     9        0.000000        1.198717         3    ;  uncertainty k = 0.387657
        10         9         8        30     9      180.000000       -0.019267         4    ;  uncertainty k = 0.308572
        11         3         7        12     9        0.000000        0.017038         1    ;  uncertainty k = 0.567496
        11         3         7        12     9      180.000000        7.992723         2    ;  uncertainty k = 0.494253
        11         3         7        12     9        0.000000        0.789497         3    ;  uncertainty k = 0.176194
        11         3         7        12     9      180.000000        1.270492         4    ;  uncertainty k = 0.462884
        11         6         5        13     9        0.000000        0.068728         1    ;  uncertainty k = 0.446029
        11         6         5        13     9      180.000000       12.021990         2    ;  uncertainty k = 0.403082
        11         6         5        13     9        0.000000        1.220735         3    ;  uncertainty k = 0.295039
        11         6         5        13     9      180.000000        1.602285         4    ;  uncertainty k = 0.190173
        12         1         2        21     9        0.000000        0.336394         1    ;  uncertainty k = 0.388107
        12         1         2        21     9      180.000000       12.671065         2    ;  uncertainty k = 0.457169
        12         1         2        21     9        0.000000        1.795049         3    ;  uncertainty k = 0.300753
        12         1         2        21     9      180.000000        1.271151         4    ;  uncertainty k = 0.244803
        12         7         3        22     9        0.000000       -0.126618         1    ;  uncertainty k = 0.575207
        12         7         3        22     9      180.000000        4.399546         2    ;  uncertainty k = 0.344178
        12         7         3        22     9        0.000000        0.715461         3    ;  uncertainty k = 0.450433
        12         7         3        22     9      180.000000        0.588028         4    ;  uncertainty k = 0.259154
        13         5         6        23     9        0.000000        0.012840         1    ;  uncertainty k = 0.273784
        13         5         6        23     9      180.000000        8.121104         2    ;  uncertainty k = 0.435011
        13         5         6        23     9        0.000000        0.875853         3    ;  uncertainty k = 0.228471
        13         5         6        23     9      180.000000        1.171043         4    ;  uncertainty k = 0.270200
        13        14        15        16     9        0.000000        0.012940         1    ;  uncertainty k = 0.228359
        13        14        15        16     9      180.000000       10.340595         2    ;  uncertainty k = 0.588374
        13        14        15        16     9        0.000000        1.386508         3    ;  uncertainty k = 0.278635
        13        14        15        16     9      180.000000        1.718833         4    ;  uncertainty k = 0.162981
        13        14        15        24     9        0.000000       -0.088836         1    ;  uncertainty k = 0.068913
        13        14        15        24     9      180.000000        8.191003         2    ;  uncertainty k = 0.225194
        13        14        15        24     9        0.000000        0.860883         3    ;  uncertainty k = 0.288123
        13        14        15        24     9      180.000000        1.121587         4    ;  uncertainty k = 0.126904
        13        14        19        18     9        0.000000        0.012940         1    ;  uncertainty k = 0.228359
        13        14        19        18     9      180.000000       10.340595         2    ;  uncertainty k = 0.588374
        13        14        19        18     9        0.000000        1.386508         3    ;  uncertainty k = 0.278635
        13        14        19        18     9      180.000000        1.718833         4    ;  uncertainty k = 0.162981
        13        14        19        27     9        0.000000       -0.088836         1    ;  uncertainty k = 0.068913
        13        14        19        27     9      180.000000        8.191003         2    ;  uncertainty k = 0.225194
        13        14        19        27     9        0.000000        0.860883         3    ;  uncertainty k = 0.288123
        13        14        19        27     9      180.000000        1.121587         4    ;  uncertainty k = 0.126904
        14        15        16        17     9        0.000000       -0.084812         1    ;  uncertainty k = 0.199187
        14        15        16        17     9      180.000000       14.596956         2    ;  uncertainty k = 0.244288
        14        15        16        17     9        0.000000       -0.776642         3    ;  uncertainty k = 0.624211
        14        15        16        17     9      180.000000        0.848971         4    ;  uncertainty k = 0.330797
        14        15        16        25     9        0.000000       -0.006201         1    ;  uncertainty k = 0.224829
        14        15        16        25     9      180.000000        7.941388         2    ;  uncertainty k = 0.233372
        14        15        16        25     9        0.000000        1.341388         3    ;  uncertainty k = 0.226117
        14        15        16        25     9      180.000000        1.800227         4    ;  uncertainty k = 0.150458
        14        19        18        17     9        0.000000       -0.084812         1    ;  uncertainty k = 0.199187
        14        19        18        17     9      180.000000       14.596956         2    ;  uncertainty k = 0.244288
        14        19        18        17     9        0.000000       -0.776642         3    ;  uncertainty k = 0.624211
        14        19        18        17     9      180.000000        0.848971         4    ;  uncertainty k = 0.330797
        14        19        18        26     9        0.000000       -0.006201         1    ;  uncertainty k = 0.224829
        14        19        18        26     9      180.000000        7.941388         2    ;  uncertainty k = 0.233372
        14        19        18        26     9        0.000000        1.341388         3    ;  uncertainty k = 0.226117
        14        19        18        26     9      180.000000        1.800227         4    ;  uncertainty k = 0.150458
        15        14        19        18     9        0.000000        0.021859         1    ;  uncertainty k = 0.058100
        15        14        19        18     9      180.000000        9.563230         2    ;  uncertainty k = 0.533115
        15        14        19        18     9        0.000000       -0.148114         3    ;  uncertainty k = 0.376128
        15        14        19        18     9      180.000000        1.132526         4    ;  uncertainty k = 0.362724
        15        14        19        27     9        0.000000        0.225608         1    ;  uncertainty k = 0.250641
        15        14        19        27     9      180.000000        6.088909         2    ;  uncertainty k = 0.717074
        15        14        19        27     9        0.000000        1.425839         3    ;  uncertainty k = 0.391710
        15        14        19        27     9      180.000000        1.548148         4    ;  uncertainty k = 0.166724
        15        16        17        18     9        0.000000       -0.072057         1    ;  uncertainty k = 0.151933
        15        16        17        18     9      180.000000       10.503747         2    ;  uncertainty k = 0.409738
        15        16        17        18     9        0.000000       -0.388981         3    ;  uncertainty k = 0.497522
        15        16        17        18     9      180.000000        0.994175         4    ;  uncertainty k = 0.364995
        15        16        17        20     9        0.000000       -0.046877         1    ;  uncertainty k = 0.158967
        15        16        17        20     9      180.000000        9.185201         2    ;  uncertainty k = 0.550764
        15        16        17        20     9        0.000000        1.540013         3    ;  uncertainty k = 0.421444
        15        16        17        20     9      180.000000        1.637278         4    ;  uncertainty k = 0.144228
        16        15        14        19     9        0.000000        0.021859         1    ;  uncertainty k = 0.058100
        16        15        14        19     9      180.000000        9.563230         2    ;  uncertainty k = 0.533115
        16        15        14        19     9        0.000000       -0.148114         3    ;  uncertainty k = 0.376128
        16        15        14        19     9      180.000000        1.132526         4    ;  uncertainty k = 0.362724
        16        17        18        19     9        0.000000       -0.072057         1    ;  uncertainty k = 0.151933
        16        17        18        19     9      180.000000       10.503747         2    ;  uncertainty k = 0.409738
        16        17        18        19     9        0.000000       -0.388981         3    ;  uncertainty k = 0.497522
        16        17        18        19     9      180.000000        0.994175         4    ;  uncertainty k = 0.364995
        16        17        18        26     9        0.000000       -0.010357         1    ;  uncertainty k = 0.158180
        16        17        18        26     9      180.000000        6.039204         2    ;  uncertainty k = 0.577702
        16        17        18        26     9        0.000000        1.377794         3    ;  uncertainty k = 0.357667
        16        17        18        26     9      180.000000        1.517206         4    ;  uncertainty k = 0.203459
        17        16        15        24     9        0.000000        0.090333         1    ;  uncertainty k = 0.111265
        17        16        15        24     9      180.000000        7.948741         2    ;  uncertainty k = 0.316292
        17        16        15        24     9        0.000000        1.466779         3    ;  uncertainty k = 0.281186
        17        16        15        24     9      180.000000        1.885531         4    ;  uncertainty k = 0.162729
        17        18        19        27     9        0.000000        0.090333         1    ;  uncertainty k = 0.111265
        17        18        19        27     9      180.000000        7.948741         2    ;  uncertainty k = 0.316292
        17        18        19        27     9        0.000000        1.466779         3    ;  uncertainty k = 0.281186
        17        18        19        27     9      180.000000        1.885531         4    ;  uncertainty k = 0.162729
        18        17        16        25     9        0.000000       -0.010357         1    ;  uncertainty k = 0.158180
        18        17        16        25     9      180.000000        6.039204         2    ;  uncertainty k = 0.577702
        18        17        16        25     9        0.000000        1.377794         3    ;  uncertainty k = 0.357667
        18        17        16        25     9      180.000000        1.517206         4    ;  uncertainty k = 0.203459
        19        14        15        24     9        0.000000        0.225608         1    ;  uncertainty k = 0.250641
        19        14        15        24     9      180.000000        6.088909         2    ;  uncertainty k = 0.717074
        19        14        15        24     9        0.000000        1.425839         3    ;  uncertainty k = 0.391710
        19        14        15        24     9      180.000000        1.548148         4    ;  uncertainty k = 0.166724
        19        18        17        20     9        0.000000       -0.046877         1    ;  uncertainty k = 0.158967
        19        18        17        20     9      180.000000        9.185201         2    ;  uncertainty k = 0.550764
        19        18        17        20     9        0.000000        1.540013         3    ;  uncertainty k = 0.421444
        19        18        17        20     9      180.000000        1.637278         4    ;  uncertainty k = 0.144228
        20        17        16        25     9        0.000000       -0.189172         1    ;  uncertainty k = 0.151100
        20        17        16        25     9      180.000000        7.284958         2    ;  uncertainty k = 0.254965
        20        17        16        25     9        0.000000        0.631882         3    ;  uncertainty k = 0.368223
        20        17        16        25     9      180.000000        0.954031         4    ;  uncertainty k = 0.182884
        20        17        18        26     9        0.000000       -0.189172         1    ;  uncertainty k = 0.151100
        20        17        18        26     9      180.000000        7.284958         2    ;  uncertainty k = 0.254965
        20        17        18        26     9        0.000000        0.631882         3    ;  uncertainty k = 0.368223
        20        17        18        26     9      180.000000        0.954031         4    ;  uncertainty k = 0.182884
        24        15        16        25     9        0.000000       -0.093943         1    ;  uncertainty k = 0.178369
        24        15        16        25     9      180.000000        7.626056         2    ;  uncertainty k = 0.397032
        24        15        16        25     9        0.000000       -0.417074         3    ;  uncertainty k = 0.239577
        24        15        16        25     9      180.000000        0.127936         4    ;  uncertainty k = 0.124753
        26        18        19        27     9        0.000000       -0.093943         1    ;  uncertainty k = 0.178369
        26        18        19        27     9      180.000000        7.626056         2    ;  uncertainty k = 0.397032
        26        18        19        27     9        0.000000       -0.417074         3    ;  uncertainty k = 0.239577
        26        18        19        27     9      180.000000        0.127936         4    ;  uncertainty k = 0.124753
        28        30         8        29     9        0.000000       -1.132055         1    ;  uncertainty k = 0.770195
        28        30         8        29     9      180.000000       -0.891434         2    ;  uncertainty k = 0.379240
        28        30         8        29     9        0.000000        0.326673         3    ;  uncertainty k = 0.147189
        28        30         8        29     9      180.000000        0.051777         4    ;  uncertainty k = 0.125771
        28        30        31        32     9        0.000000       49.628156         1    ;  uncertainty k = 0.228063
        28        30        31        32     9      180.000000       -2.941091         2    ;  uncertainty k = 1.696350
        28        30        31        32     9        0.000000      -10.825806         3    ;  uncertainty k = 1.081014
        28        30        31        32     9      180.000000        6.219224         4    ;  uncertainty k = 0.459122
        28        30        31        33     9        0.000000        0.235883         1    ;  uncertainty k = 1.889878
        28        30        31        33     9      180.000000       -1.503080         2    ;  uncertainty k = 1.043990
        28        30        31        33     9        0.000000        0.710483         3    ;  uncertainty k = 0.198277
        28        30        31        33     9      180.000000       -0.761658         4    ;  uncertainty k = 0.098364
        28        30        31        34     9        0.000000        0.235883         1    ;  uncertainty k = 1.889878
        28        30        31        34     9      180.000000       -1.503080         2    ;  uncertainty k = 1.043990
        28        30        31        34     9        0.000000        0.710483         3    ;  uncertainty k = 0.198277
        28        30        31        34     9      180.000000       -0.761658         4    ;  uncertainty k = 0.098364
        28        30        32        31     9        0.000000       49.628156         1    ;  uncertainty k = 0.228063
        28        30        32        31     9      180.000000       -2.941091         2    ;  uncertainty k = 1.696350
        28        30        32        31     9        0.000000      -10.825806         3    ;  uncertainty k = 1.081014
        28        30        32        31     9      180.000000        6.219224         4    ;  uncertainty k = 0.459122
        28        30        32        35     9        0.000000        0.235883         1    ;  uncertainty k = 1.889878
        28        30        32        35     9      180.000000       -1.503080         2    ;  uncertainty k = 1.043990
        28        30        32        35     9        0.000000        0.710483         3    ;  uncertainty k = 0.198277
        28        30        32        35     9      180.000000       -0.761658         4    ;  uncertainty k = 0.098364
        28        30        32        36     9        0.000000        0.235883         1    ;  uncertainty k = 1.889878
        28        30        32        36     9      180.000000       -1.503080         2    ;  uncertainty k = 1.043990
        28        30        32        36     9        0.000000        0.710483         3    ;  uncertainty k = 0.198277
        28        30        32        36     9      180.000000       -0.761658         4    ;  uncertainty k = 0.098364
        29         8        30        31     9        0.000000        1.019271         1    ;  uncertainty k = 0.445182
        29         8        30        31     9      180.000000       -1.128359         2    ;  uncertainty k = 0.324019
        29         8        30        31     9        0.000000        0.350667         3    ;  uncertainty k = 0.243944
        29         8        30        31     9      180.000000        0.237857         4    ;  uncertainty k = 0.052760
        29         8        30        32     9        0.000000        1.019271         1    ;  uncertainty k = 0.445182
        29         8        30        32     9      180.000000       -1.128359         2    ;  uncertainty k = 0.324019
        29         8        30        32     9        0.000000        0.350667         3    ;  uncertainty k = 0.243944
        29         8        30        32     9      180.000000        0.237857         4    ;  uncertainty k = 0.052760
        30        31        32        35     9        0.000000       42.519351         1    ;  uncertainty k = 0.465054
        30        31        32        35     9      180.000000       -4.203862         2    ;  uncertainty k = 0.865136
        30        31        32        35     9        0.000000       -9.784650         3    ;  uncertainty k = 0.927329
        30        31        32        35     9      180.000000        4.485831         4    ;  uncertainty k = 0.226772
        30        31        32        36     9        0.000000       42.519351         1    ;  uncertainty k = 0.465054
        30        31        32        36     9      180.000000       -4.203862         2    ;  uncertainty k = 0.865136
        30        31        32        36     9        0.000000       -9.784650         3    ;  uncertainty k = 0.927329
        30        31        32        36     9      180.000000        4.485831         4    ;  uncertainty k = 0.226772
        30        32        31        33     9        0.000000       42.519351         1    ;  uncertainty k = 0.465054
        30        32        31        33     9      180.000000       -4.203862         2    ;  uncertainty k = 0.865136
        30        32        31        33     9        0.000000       -9.784650         3    ;  uncertainty k = 0.927329
        30        32        31        33     9      180.000000        4.485831         4    ;  uncertainty k = 0.226772
        30        32        31        34     9        0.000000       42.519351         1    ;  uncertainty k = 0.465054
        30        32        31        34     9      180.000000       -4.203862         2    ;  uncertainty k = 0.865136
        30        32        31        34     9        0.000000       -9.784650         3    ;  uncertainty k = 0.927329
        30        32        31        34     9      180.000000        4.485831         4    ;  uncertainty k = 0.226772
        31        30        32        35     9        0.000000       42.775053         1    ;  uncertainty k = 0.285778
        31        30        32        35     9      180.000000       -4.104315         2    ;  uncertainty k = 0.626440
        31        30        32        35     9        0.000000      -10.186010         3    ;  uncertainty k = 0.760259
        31        30        32        35     9      180.000000        4.928252         4    ;  uncertainty k = 0.313918
        31        30        32        36     9        0.000000       42.775053         1    ;  uncertainty k = 0.285778
        31        30        32        36     9      180.000000       -4.104315         2    ;  uncertainty k = 0.626440
        31        30        32        36     9        0.000000      -10.186010         3    ;  uncertainty k = 0.760259
        31        30        32        36     9      180.000000        4.928252         4    ;  uncertainty k = 0.313918
        32        30        31        33     9        0.000000       42.775053         1    ;  uncertainty k = 0.285778
        32        30        31        33     9      180.000000       -4.104315         2    ;  uncertainty k = 0.626440
        32        30        31        33     9        0.000000      -10.186010         3    ;  uncertainty k = 0.760259
        32        30        31        33     9      180.000000        4.928252         4    ;  uncertainty k = 0.313918
        32        30        31        34     9        0.000000       42.775053         1    ;  uncertainty k = 0.285778
        32        30        31        34     9      180.000000       -4.104315         2    ;  uncertainty k = 0.626440
        32        30        31        34     9        0.000000      -10.186010         3    ;  uncertainty k = 0.760259
        32        30        31        34     9      180.000000        4.928252         4    ;  uncertainty k = 0.313918
        33        31        32        35     9        0.000000        0.196401         1    ;  uncertainty k = 0.997950
        33        31        32        35     9      180.000000       -1.796351         2    ;  uncertainty k = 1.177817
        33        31        32        35     9        0.000000        0.935045         3    ;  uncertainty k = 0.408307
        33        31        32        35     9      180.000000       -0.653310         4    ;  uncertainty k = 0.129620
        33        31        32        36     9        0.000000        0.196401         1    ;  uncertainty k = 0.997950
        33        31        32        36     9      180.000000       -1.796351         2    ;  uncertainty k = 1.177817
        33        31        32        36     9        0.000000        0.935045         3    ;  uncertainty k = 0.408307
        33        31        32        36     9      180.000000       -0.653310         4    ;  uncertainty k = 0.129620
        34        31        32        35     9        0.000000        0.196401         1    ;  uncertainty k = 0.997950
        34        31        32        35     9      180.000000       -1.796351         2    ;  uncertainty k = 1.177817
        34        31        32        35     9        0.000000        0.935045         3    ;  uncertainty k = 0.408307
        34        31        32        35     9      180.000000       -0.653310         4    ;  uncertainty k = 0.129620
        34        31        32        36     9        0.000000        0.196401         1    ;  uncertainty k = 0.997950
        34        31        32        36     9      180.000000       -1.796351         2    ;  uncertainty k = 1.177817
        34        31        32        36     9        0.000000        0.935045         3    ;  uncertainty k = 0.408307
        34        31        32        36     9      180.000000       -0.653310         4    ;  uncertainty k = 0.129620

[ dihedrals ] ; impropers
;       ai        aj        ak        al funct           phase               k        pn
         1         2         9        12     4      180.000000        1.913245         2    ;  uncertainty k = 0.608310
         1         9        12         2     4      180.000000        1.913245         2    ;  uncertainty k = 0.608310
         1        12         2         9     4      180.000000        1.913245         2    ;  uncertainty k = 0.608310
         2         1         4        21     4      180.000000        1.686186         2    ;  uncertainty k = 0.461928
         2         4        21         1     4      180.000000        1.686186         2    ;  uncertainty k = 0.461928
         2        21         1         4     4      180.000000        1.686186         2    ;  uncertainty k = 0.461928
         3         7        11        22     4      180.000000       12.940082         2    ;  uncertainty k = 0.089545
         3        11        22         7     4      180.000000       12.940082         2    ;  uncertainty k = 0.089545
         3        22         7        11     4      180.000000       12.940082         2    ;  uncertainty k = 0.089545
         4         2         5         7     4      180.000000        1.659674         2    ;  uncertainty k = 1.031175
         4         5         7         2     4      180.000000        1.659674         2    ;  uncertainty k = 1.031175
         4         7         2         5     4      180.000000        1.659674         2    ;  uncertainty k = 1.031175
         5         4         6        13     4      180.000000       15.280144         2    ;  uncertainty k = 0.112219
         5         6        13         4     4      180.000000       15.280144         2    ;  uncertainty k = 0.112219
         5        13         4         6     4      180.000000       15.280144         2    ;  uncertainty k = 0.112219
         6         5        11        23     4      180.000000        9.523653         2    ;  uncertainty k = 0.155816
         6        11        23         5     4      180.000000        9.523653         2    ;  uncertainty k = 0.155816
         6        23         5        11     4      180.000000        9.523653         2    ;  uncertainty k = 0.155816
         7         3         4        12     4      180.000000        0.423042         2    ;  uncertainty k = 0.774949
         7         4        12         3     4      180.000000        0.423042         2    ;  uncertainty k = 0.774949
         7        12         3         4     4      180.000000        0.423042         2    ;  uncertainty k = 0.774949
         9         1         8        10     4      180.000000       52.930921         2    ;  uncertainty k = 0.020243
         9         8        10         1     4      180.000000       52.930921         2    ;  uncertainty k = 0.020243
         9        10         1         8     4      180.000000       52.930921         2    ;  uncertainty k = 0.020243
        14        13        15        19     4      180.000000       17.409305         2    ;  uncertainty k = 0.054636
        14        15        19        13     4      180.000000       17.409305         2    ;  uncertainty k = 0.054636
        14        19        13        15     4      180.000000       17.409305         2    ;  uncertainty k = 0.054636
        15        14        16        24     4      180.000000        3.008016         2    ;  uncertainty k = 0.105490
        15        16        24        14     4      180.000000        3.008016         2    ;  uncertainty k = 0.105490
        15        24        14        16     4      180.000000        3.008016         2    ;  uncertainty k = 0.105490
        16        15        17        25     4      180.000000        3.865517         2    ;  uncertainty k = 0.182529
        16        17        25        15     4      180.000000        3.865517         2    ;  uncertainty k = 0.182529
        16        25        15        17     4      180.000000        3.865517         2    ;  uncertainty k = 0.182529
        17        16        18        20     4      180.000000       12.038020         2    ;  uncertainty k = 0.044617
        17        18        20        16     4      180.000000       12.038020         2    ;  uncertainty k = 0.044617
        17        20        16        18     4      180.000000       12.038020         2    ;  uncertainty k = 0.044617
        18        17        19        26     4      180.000000        3.865515         2    ;  uncertainty k = 0.182529
        18        19        26        17     4      180.000000        3.865515         2    ;  uncertainty k = 0.182529
        18        26        17        19     4      180.000000        3.865515         2    ;  uncertainty k = 0.182529
        19        14        18        27     4      180.000000        3.008017         2    ;  uncertainty k = 0.105491
        19        18        27        14     4      180.000000        3.008017         2    ;  uncertainty k = 0.105491
        19        27        14        18     4      180.000000        3.008017         2    ;  uncertainty k = 0.105491

[ pairs ]
;       ai        aj funct
         1         3     1
         1         5     1
         1        29     1
         1        30     1
         2         3     1
         2         6     1
         2         8     1
         2        10     1
         2        13     1
         3         5     1
         3        23     1
         4         9     1
         4        11     1
         4        14     1
         4        22     1
         4        23     1
         5        12     1
         5        15     1
         5        19     1
         5        21     1
         6         7     1
         6        14     1
         6        22     1
         7         9     1
         7        13     1
         7        21     1
         8        12     1
         8        33     1
         8        34     1
         8        35     1
         8        36     1
         9        21     1
         9        28     1
         9        31     1
         9        32     1
        10        12     1
        10        29     1
        10        30     1
        11        12     1
        11        13     1
        12        21     1
        12        22     1
        13        16     1
        13        18     1
        13        23     1
        13        24     1
        13        27     1
        14        17     1
        14        25     1
        14        26     1
        15        18     1
        15        20     1
        15        27     1
        16        19     1
        16        26     1
        17        24     1
        17        27     1
        18        25     1
        19        20     1
        19        24     1
        20        25     1
        20        26     1
        24        25     1
        26        27     1
        28        29     1
        28        33     1
        28        34     1
        28        35     1
        28        36     1
        29        31     1
        29        32     1
        33        35     1
        33        36     1
        34        35     1
        34        36     1
