; ITP file created by ByteFF-joint-25, 2025-07-14 11:36:09.540181

[ atomtypes ]
;name           bonded.type        at.num        mass        charge   ptype           sigma         epsilon
 c0bf                                   6      0.0000       0.00000       A     3.31466e-01     4.13044e-01    ;  uncertainty sigma = 0.000009, epsilon = 0.001289
 c1bf                                   6      0.0000       0.00000       A     3.31549e-01     4.12661e-01    ;  uncertainty sigma = 0.000007, epsilon = 0.001216
 c2bf                                   6      0.0000       0.00000       A     3.31539e-01     4.13533e-01    ;  uncertainty sigma = 0.000013, epsilon = 0.000944
 c3bf                                   6      0.0000       0.00000       A     3.31552e-01     4.13781e-01    ;  uncertainty sigma = 0.000004, epsilon = 0.000402
 c4bf                                   6      0.0000       0.00000       A     3.31519e-01     4.13403e-01    ;  uncertainty sigma = 0.000024, epsilon = 0.000623
 c5bf                                   6      0.0000       0.00000       A     3.31498e-01     4.12877e-01    ;  uncertainty sigma = 0.000005, epsilon = 0.000808
 c6bf                                   6      0.0000       0.00000       A     3.31542e-01     4.13512e-01    ;  uncertainty sigma = 0.000012, epsilon = 0.000739
 c7bf                                   6      0.0000       0.00000       A     3.39769e-01     4.50510e-01    ;  uncertainty sigma = 0.000023, epsilon = 0.001010
 c8bf                                   6      0.0000       0.00000       A     3.31513e-01     4.13536e-01    ;  uncertainty sigma = 0.000007, epsilon = 0.000801
 o9bf                                   8      0.0000       0.00000       A     3.04834e-01     6.12694e-01    ;  uncertainty sigma = 0.000017, epsilon = 0.001046
 n10bf                                  7      0.0000       0.00000       A     3.38404e-01     3.93885e-01    ;  uncertainty sigma = 0.000020, epsilon = 0.001459
 s11bf                                 16      0.0000       0.00000       A     3.53293e-01     1.18074e+00    ;  uncertainty sigma = 0.000032, epsilon = 0.001284
 o12bf                                  8      0.0000       0.00000       A     3.15417e-01     3.02311e-01    ;  uncertainty sigma = 0.000023, epsilon = 0.001113
 c13bf                                  6      0.0000       0.00000       A     3.31510e-01     4.13658e-01    ;  uncertainty sigma = 0.000011, epsilon = 0.000806
 c14bf                                  6      0.0000       0.00000       A     3.31518e-01     4.13462e-01    ;  uncertainty sigma = 0.000002, epsilon = 0.000591
 c15bf                                  6      0.0000       0.00000       A     3.31523e-01     4.13492e-01    ;  uncertainty sigma = 0.000004, epsilon = 0.000562
 c16bf                                  6      0.0000       0.00000       A     3.31532e-01     4.13144e-01    ;  uncertainty sigma = 0.000004, epsilon = 0.000546
 c17bf                                  6      0.0000       0.00000       A     3.31523e-01     4.13492e-01    ;  uncertainty sigma = 0.000004, epsilon = 0.000562
 c18bf                                  6      0.0000       0.00000       A     3.31518e-01     4.13462e-01    ;  uncertainty sigma = 0.000002, epsilon = 0.000591
 cl19bf                                17      0.0000       0.00000       A     3.46630e-01     1.10437e+00    ;  uncertainty sigma = 0.000011, epsilon = 0.001278
 h20bf                                  1      0.0000       0.00000       A     2.62627e-01     6.71504e-02    ;  uncertainty sigma = 0.000016, epsilon = 0.000734
 h21bf                                  1      0.0000       0.00000       A     2.53593e-01     6.72766e-02    ;  uncertainty sigma = 0.000100, epsilon = 0.001112
 h22bf                                  1      0.0000       0.00000       A     2.53659e-01     6.69732e-02    ;  uncertainty sigma = 0.000032, epsilon = 0.000842
 h23bf                                  1      0.0000       0.00000       A     2.62555e-01     6.71248e-02    ;  uncertainty sigma = 0.000005, epsilon = 0.000438
 h24bf                                  1      0.0000       0.00000       A     2.62563e-01     6.70437e-02    ;  uncertainty sigma = 0.000011, epsilon = 0.000615
 h25bf                                  1      0.0000       0.00000       A     2.62563e-01     6.70437e-02    ;  uncertainty sigma = 0.000011, epsilon = 0.000615
 h26bf                                  1      0.0000       0.00000       A     2.62555e-01     6.71248e-02    ;  uncertainty sigma = 0.000005, epsilon = 0.000438
 c27bf                                  6      0.0000       0.00000       A     3.39757e-01     4.50536e-01    ;  uncertainty sigma = 0.000009, epsilon = 0.000642
 h28bf                                  1      0.0000       0.00000       A     2.60049e-01     8.63083e-02    ;  uncertainty sigma = 0.000014, epsilon = 0.000620
 h29bf                                  1      0.0000       0.00000       A     2.60049e-01     8.63083e-02    ;  uncertainty sigma = 0.000014, epsilon = 0.000620
 h30bf                                  1      0.0000       0.00000       A     2.60034e-01     8.65268e-02    ;  uncertainty sigma = 0.000017, epsilon = 0.000836
 h31bf                                  1      0.0000       0.00000       A     2.60034e-01     8.65268e-02    ;  uncertainty sigma = 0.000017, epsilon = 0.000836
 h32bf                                  1      0.0000       0.00000       A     2.60034e-01     8.65268e-02    ;  uncertainty sigma = 0.000017, epsilon = 0.000836

[ moleculetype ]
;name             nrexcl
 MOL                   3

[ atoms ]
;       nr            type      resi   res      atom      cgnr      charge          mass ; qtot
         1            c0bf         1   UNL        c0         1    -0.14076       12.0110 ; qtot   -0.141
         2            c1bf         1   UNL        c1         2    -0.04263       12.0110 ; qtot   -0.183
         3            c2bf         1   UNL        c2         3     0.42641       12.0110 ; qtot    0.243
         4            c3bf         1   UNL        c3         4    -0.07117       12.0110 ; qtot    0.172
         5            c4bf         1   UNL        c4         5     0.04402       12.0110 ; qtot    0.216
         6            c5bf         1   UNL        c5         6     0.35575       12.0110 ; qtot    0.572
         7            c6bf         1   UNL        c6         7    -0.13281       12.0110 ; qtot    0.439
         8            c7bf         1   UNL        c7         8    -0.17373       12.0110 ; qtot    0.265
         9            c8bf         1   UNL        c8         9     0.60094       12.0110 ; qtot    0.866
        10            o9bf         1   UNL        o9        10    -0.52722       15.9990 ; qtot    0.339
        11           n10bf         1   UNL       n10        11    -0.64087       14.0070 ; qtot   -0.302
        12           s11bf         1   UNL       s11        12    -0.00347       32.0670 ; qtot   -0.306
        13           o12bf         1   UNL       o12        13    -0.24264       15.9990 ; qtot   -0.548
        14           c13bf         1   UNL       c13        14     0.11070       12.0110 ; qtot   -0.437
        15           c14bf         1   UNL       c14        15    -0.14772       12.0110 ; qtot   -0.585
        16           c15bf         1   UNL       c15        16    -0.09747       12.0110 ; qtot   -0.683
        17           c16bf         1   UNL       c16        17     0.01479       12.0110 ; qtot   -0.668
        18           c17bf         1   UNL       c17        18    -0.09747       12.0110 ; qtot   -0.765
        19           c18bf         1   UNL       c18        19    -0.14772       12.0110 ; qtot   -0.913
        20          cl19bf         1   UNL      cl19        20    -0.11722       35.4530 ; qtot   -1.030
        21           h20bf         1   UNL       h20        21     0.17837        1.0080 ; qtot   -0.852
        22           h21bf         1   UNL       h21        22     0.03043        1.0080 ; qtot   -0.821
        23           h22bf         1   UNL       h22        23     0.03867        1.0080 ; qtot   -0.783
        24           h23bf         1   UNL       h23        24     0.15269        1.0080 ; qtot   -0.630
        25           h24bf         1   UNL       h24        25     0.15337        1.0080 ; qtot   -0.477
        26           h25bf         1   UNL       h25        26     0.15337        1.0080 ; qtot   -0.323
        27           h26bf         1   UNL       h26        27     0.15269        1.0080 ; qtot   -0.171
        28           c27bf         1   UNL       c27        28    -0.08427       12.0110 ; qtot   -0.255
        29           h28bf         1   UNL       h28        29     0.06389        1.0080 ; qtot   -0.191
        30           h29bf         1   UNL       h29        30     0.06389        1.0080 ; qtot   -0.127
        31           h30bf         1   UNL       h30        31     0.04240        1.0080 ; qtot   -0.085
        32           h31bf         1   UNL       h31        32     0.04240        1.0080 ; qtot   -0.042
        33           h32bf         1   UNL       h32        33     0.04239        1.0080 ; qtot    0.000

[ bonds ]
;       ai        aj funct               r               k
         1         2     1        0.137125   406184.221582    ;  uncertainty r = 0.000070, k = 4.396282
         1         9     1        0.147964   253404.404346    ;  uncertainty r = 0.000162, k = 12.954309
         1        12     1        0.176142   166503.996094    ;  uncertainty r = 0.000181, k = 13.182071
         2         4     1        0.143218   248718.855518    ;  uncertainty r = 0.000088, k = 5.464974
         2        21     1        0.108366   334117.170996    ;  uncertainty r = 0.000055, k = 1.443382
         3         7     1        0.139921   357165.229395    ;  uncertainty r = 0.000101, k = 8.980201
         3        11     1        0.132914   403937.670996    ;  uncertainty r = 0.000085, k = 3.484706
         3        22     1        0.108996   332692.021533    ;  uncertainty r = 0.000016, k = 2.312073
         4         5     1        0.140248   350589.857861    ;  uncertainty r = 0.000069, k = 7.415185
         4         7     1        0.141333   373488.677393    ;  uncertainty r = 0.000058, k = 16.089688
         5         6     1        0.138631   347797.783545    ;  uncertainty r = 0.000072, k = 10.298013
         5        13     1        0.137597   318910.792773    ;  uncertainty r = 0.000055, k = 12.405238
         6        11     1        0.134435   379665.874316    ;  uncertainty r = 0.000185, k = 8.749163
         6        23     1        0.108927   339756.581934    ;  uncertainty r = 0.000043, k = 5.117425
         7        12     1        0.174941   181188.204272    ;  uncertainty r = 0.000105, k = 9.943463
         8         9     1        0.151680   192974.512354    ;  uncertainty r = 0.000125, k = 13.622372
         8        28     1        0.153397   220926.589551    ;  uncertainty r = 0.000024, k = 4.525085
         8        29     1        0.109700   310829.600049    ;  uncertainty r = 0.000037, k = 1.652865
         8        30     1        0.109700   310829.600049    ;  uncertainty r = 0.000037, k = 1.652865
         9        10     1        0.123138   694395.271875    ;  uncertainty r = 0.000059, k = 8.040327
        13        14     1        0.138284   318274.791064    ;  uncertainty r = 0.000075, k = 8.099025
        14        15     1        0.139423   356196.504687    ;  uncertainty r = 0.000043, k = 1.660662
        14        19     1        0.139423   356196.504687    ;  uncertainty r = 0.000043, k = 1.660662
        15        16     1        0.139179   373143.287988    ;  uncertainty r = 0.000009, k = 2.388054
        15        24     1        0.108786   336460.507227    ;  uncertainty r = 0.000014, k = 1.146262
        16        17     1        0.139495   363006.460107    ;  uncertainty r = 0.000019, k = 1.852841
        16        25     1        0.108702   334843.344238    ;  uncertainty r = 0.000027, k = 0.886329
        17        18     1        0.139495   363006.460107    ;  uncertainty r = 0.000019, k = 1.852841
        17        20     1        0.175852   197478.236963    ;  uncertainty r = 0.000021, k = 4.301143
        18        19     1        0.139179   373143.287988    ;  uncertainty r = 0.000009, k = 2.388054
        18        26     1        0.108702   334843.344238    ;  uncertainty r = 0.000027, k = 0.886329
        19        27     1        0.108786   336460.507227    ;  uncertainty r = 0.000014, k = 1.146262
        28        31     1        0.109492   310806.233594    ;  uncertainty r = 0.000016, k = 0.974542
        28        32     1        0.109492   310806.233594    ;  uncertainty r = 0.000016, k = 0.974542
        28        33     1        0.109492   310806.233594    ;  uncertainty r = 0.000016, k = 0.974542

[ angles ]
;       ai        aj        ak funct           theta             cth
         1         2         4     1      113.201317      695.314008    ;  uncertainty theta = 0.004115, k = 0.172464
         1         2        21     1      120.878883      254.569580    ;  uncertainty theta = 0.004960, k = 0.174663
         1         9         8     1      116.518837      349.715486    ;  uncertainty theta = 0.005887, k = 0.214089
         1         9        10     1      122.319214      574.599709    ;  uncertainty theta = 0.004248, k = 0.165202
         1        12         7     1       90.102715     1198.838323    ;  uncertainty theta = 0.004138, k = 0.257263
         2         1         9     1      124.274376      311.500543    ;  uncertainty theta = 0.004963, k = 0.085205
         2         1        12     1      115.018143      485.629505    ;  uncertainty theta = 0.006688, k = 0.145873
         2         4         5     1      127.929428      376.576184    ;  uncertainty theta = 0.003689, k = 0.193666
         2         4         7     1      112.759842      581.024398    ;  uncertainty theta = 0.000698, k = 0.266053
         3         7         4     1      118.374557      374.457657    ;  uncertainty theta = 0.004080, k = 0.222859
         3         7        12     1      126.431679      361.911212    ;  uncertainty theta = 0.001727, k = 0.192701
         3        11         6     1      120.842484      402.797848    ;  uncertainty theta = 0.002548, k = 0.205041
         4         2        21     1      122.298569      247.523923    ;  uncertainty theta = 0.004765, k = 0.126003
         4         5         6     1      119.485962      391.513254    ;  uncertainty theta = 0.005818, k = 0.220630
         4         5        13     1      119.406471      397.957895    ;  uncertainty theta = 0.007134, k = 0.148716
         4         7        12     1      111.131104      497.992466    ;  uncertainty theta = 0.006454, k = 0.174417
         5         4         7     1      115.475258      425.683886    ;  uncertainty theta = 0.007154, k = 0.237386
         5         6        11     1      124.514183      661.788444    ;  uncertainty theta = 0.003510, k = 0.148398
         5         6        23     1      119.349350      264.281662    ;  uncertainty theta = 0.001084, k = 0.195892
         5        13        14     1      112.893166      470.825387    ;  uncertainty theta = 0.002135, k = 0.157860
         6         5        13     1      119.648598      413.022300    ;  uncertainty theta = 0.006887, k = 0.248373
         7         3        11     1      121.583702      690.990447    ;  uncertainty theta = 0.002178, k = 0.116016
         7         3        22     1      122.280067      288.349621    ;  uncertainty theta = 0.002343, k = 0.092329
         8         9        10     1      123.565346      585.623121    ;  uncertainty theta = 0.002049, k = 0.110514
         8        28        31     1      108.170555      408.581684    ;  uncertainty theta = 0.001332, k = 0.034793
         8        28        32     1      108.170555      408.581684    ;  uncertainty theta = 0.001332, k = 0.034793
         8        28        33     1      108.170555      408.581684    ;  uncertainty theta = 0.001332, k = 0.034793
         9         1        12     1      117.861374      307.129994    ;  uncertainty theta = 0.009201, k = 0.319898
         9         8        28     1      109.070602      490.554081    ;  uncertainty theta = 0.002623, k = 0.139010
         9         8        29     1      106.379074      356.067970    ;  uncertainty theta = 0.001226, k = 0.076484
         9         8        30     1      106.379074      356.067970    ;  uncertainty theta = 0.001226, k = 0.076484
        11         3        22     1      116.879013      331.081122    ;  uncertainty theta = 0.001934, k = 0.154842
        11         6        23     1      116.582138      339.078418    ;  uncertainty theta = 0.002044, k = 0.073114
        13        14        15     1      119.605370      414.485353    ;  uncertainty theta = 0.003848, k = 0.027613
        13        14        19     1      119.605370      414.485353    ;  uncertainty theta = 0.003848, k = 0.027613
        14        15        16     1      119.070030      516.640143    ;  uncertainty theta = 0.002096, k = 0.087661
        14        15        24     1      120.543640      275.370864    ;  uncertainty theta = 0.001603, k = 0.031522
        14        19        18     1      119.070030      516.640143    ;  uncertainty theta = 0.002096, k = 0.087661
        14        19        27     1      120.543640      275.370864    ;  uncertainty theta = 0.001603, k = 0.031522
        15        14        19     1      121.385071      388.674390    ;  uncertainty theta = 0.003318, k = 0.099530
        15        16        17     1      119.072433      503.912990    ;  uncertainty theta = 0.001237, k = 0.034021
        15        16        25     1      120.368881      279.362761    ;  uncertainty theta = 0.002070, k = 0.019960
        16        15        24     1      120.542198      288.492916    ;  uncertainty theta = 0.001251, k = 0.027493
        16        17        18     1      120.545288      372.862993    ;  uncertainty theta = 0.001637, k = 0.046553
        16        17        20     1      120.352928      443.931332    ;  uncertainty theta = 0.001270, k = 0.021859
        17        16        25     1      120.931236      284.614308    ;  uncertainty theta = 0.001296, k = 0.014096
        17        18        19     1      119.072433      503.912990    ;  uncertainty theta = 0.001237, k = 0.034021
        17        18        26     1      120.931236      284.614308    ;  uncertainty theta = 0.001296, k = 0.014096
        18        17        20     1      120.352928      443.931332    ;  uncertainty theta = 0.001270, k = 0.021859
        18        19        27     1      120.542198      288.492916    ;  uncertainty theta = 0.001251, k = 0.027493
        19        18        26     1      120.368881      279.362761    ;  uncertainty theta = 0.002070, k = 0.019960
        28         8        29     1      108.875977      403.599234    ;  uncertainty theta = 0.002336, k = 0.033887
        28         8        30     1      108.875977      403.599234    ;  uncertainty theta = 0.002336, k = 0.033887
        29         8        30     1      104.879440      316.652878    ;  uncertainty theta = 0.003294, k = 0.025033
        31        28        32     1      105.273132      317.097543    ;  uncertainty theta = 0.001767, k = 0.024758
        31        28        33     1      105.273132      317.097543    ;  uncertainty theta = 0.001767, k = 0.024758
        32        28        33     1      105.273132      317.097543    ;  uncertainty theta = 0.001767, k = 0.024758

[ dihedrals ] ; propers for gromacs 4.5 or higher, use funct 9
;       ai        aj        ak        al funct           phase               k        pn
         1         2         4         5     9        0.000000       -0.254583         1    ;  uncertainty k = 0.544553
         1         2         4         5     9      180.000000        7.890575         2    ;  uncertainty k = 0.748042
         1         2         4         5     9        0.000000        0.608088         3    ;  uncertainty k = 0.269966
         1         2         4         5     9      180.000000        0.565118         4    ;  uncertainty k = 0.308053
         1         2         4         7     9        0.000000       -0.169482         1    ;  uncertainty k = 0.688939
         1         2         4         7     9      180.000000       13.106813         2    ;  uncertainty k = 0.462557
         1         2         4         7     9        0.000000       -4.968553         3    ;  uncertainty k = 1.357683
         1         2         4         7     9      180.000000        1.209387         4    ;  uncertainty k = 0.383137
         1         9         8        28     9        0.000000       -2.733066         1    ;  uncertainty k = 0.746643
         1         9         8        28     9      180.000000        4.146199         2    ;  uncertainty k = 0.357429
         1         9         8        28     9        0.000000        0.400396         3    ;  uncertainty k = 0.097113
         1         9         8        28     9      180.000000        0.324528         4    ;  uncertainty k = 0.280923
         1         9         8        29     9        0.000000       -0.345502         1    ;  uncertainty k = 0.155920
         1         9         8        29     9      180.000000        3.645637         2    ;  uncertainty k = 0.412323
         1         9         8        29     9        0.000000        0.390979         3    ;  uncertainty k = 0.074695
         1         9         8        29     9      180.000000        0.227796         4    ;  uncertainty k = 0.147000
         1         9         8        30     9        0.000000       -0.345502         1    ;  uncertainty k = 0.155920
         1         9         8        30     9      180.000000        3.645637         2    ;  uncertainty k = 0.412323
         1         9         8        30     9        0.000000        0.390979         3    ;  uncertainty k = 0.074695
         1         9         8        30     9      180.000000        0.227796         4    ;  uncertainty k = 0.147000
         1        12         7         3     9        0.000000       -1.300905         1    ;  uncertainty k = 2.715048
         1        12         7         3     9      180.000000        7.484094         2    ;  uncertainty k = 0.626039
         1        12         7         3     9        0.000000        0.779576         3    ;  uncertainty k = 0.545071
         1        12         7         3     9      180.000000        0.576867         4    ;  uncertainty k = 0.379353
         1        12         7         4     9        0.000000       -0.123150         1    ;  uncertainty k = 0.927448
         1        12         7         4     9      180.000000       14.840537         2    ;  uncertainty k = 0.553976
         1        12         7         4     9        0.000000       -6.909600         3    ;  uncertainty k = 1.036984
         1        12         7         4     9      180.000000        0.471913         4    ;  uncertainty k = 0.892404
         2         1         9         8     9        0.000000       -1.429337         1    ;  uncertainty k = 1.525424
         2         1         9         8     9      180.000000        2.901714         2    ;  uncertainty k = 0.268521
         2         1         9         8     9        0.000000        0.459656         3    ;  uncertainty k = 0.189687
         2         1         9         8     9      180.000000       -0.091391         4    ;  uncertainty k = 0.148307
         2         1         9        10     9        0.000000        1.669927         1    ;  uncertainty k = 1.278077
         2         1         9        10     9      180.000000        4.751493         2    ;  uncertainty k = 0.541144
         2         1         9        10     9        0.000000        0.930903         3    ;  uncertainty k = 0.099658
         2         1         9        10     9      180.000000       -0.156137         4    ;  uncertainty k = 0.095267
         2         1        12         7     9        0.000000       -0.834235         1    ;  uncertainty k = 0.868386
         2         1        12         7     9      180.000000       13.369585         2    ;  uncertainty k = 0.599069
         2         1        12         7     9        0.000000       -6.070756         3    ;  uncertainty k = 1.275443
         2         1        12         7     9      180.000000        1.472631         4    ;  uncertainty k = 0.359540
         2         4         5         6     9        0.000000       -0.165971         1    ;  uncertainty k = 0.805535
         2         4         5         6     9      180.000000        5.712668         2    ;  uncertainty k = 0.691707
         2         4         5         6     9        0.000000        0.585793         3    ;  uncertainty k = 0.274552
         2         4         5         6     9      180.000000        1.221800         4    ;  uncertainty k = 0.263655
         2         4         5        13     9        0.000000        0.074116         1    ;  uncertainty k = 0.583731
         2         4         5        13     9      180.000000        7.668577         2    ;  uncertainty k = 0.594443
         2         4         5        13     9        0.000000        1.279518         3    ;  uncertainty k = 0.345747
         2         4         5        13     9      180.000000        1.318452         4    ;  uncertainty k = 0.326220
         2         4         7         3     9        0.000000       -0.179213         1    ;  uncertainty k = 0.818597
         2         4         7         3     9      180.000000        8.022648         2    ;  uncertainty k = 0.523047
         2         4         7         3     9        0.000000        0.439750         3    ;  uncertainty k = 0.387978
         2         4         7         3     9      180.000000        1.391657         4    ;  uncertainty k = 0.232631
         2         4         7        12     9        0.000000       -0.400396         1    ;  uncertainty k = 0.574378
         2         4         7        12     9      180.000000       10.018452         2    ;  uncertainty k = 0.531381
         2         4         7        12     9        0.000000       -0.583951         3    ;  uncertainty k = 0.841571
         2         4         7        12     9      180.000000        1.357479         4    ;  uncertainty k = 0.223483
         3         7         4         5     9        0.000000       -0.432374         1    ;  uncertainty k = 0.539863
         3         7         4         5     9      180.000000        8.373752         2    ;  uncertainty k = 0.744012
         3         7         4         5     9        0.000000        0.101101         3    ;  uncertainty k = 0.109091
         3         7         4         5     9      180.000000        1.202853         4    ;  uncertainty k = 0.239902
         3        11         6         5     9        0.000000        0.208590         1    ;  uncertainty k = 0.394723
         3        11         6         5     9      180.000000       13.469351         2    ;  uncertainty k = 0.107582
         3        11         6         5     9        0.000000        1.053566         3    ;  uncertainty k = 0.582690
         3        11         6         5     9      180.000000        1.316363         4    ;  uncertainty k = 0.280578
         3        11         6        23     9        0.000000        0.392802         1    ;  uncertainty k = 0.307760
         3        11         6        23     9      180.000000       13.819319         2    ;  uncertainty k = 0.400371
         3        11         6        23     9        0.000000        2.178342         3    ;  uncertainty k = 0.456587
         3        11         6        23     9      180.000000        1.475511         4    ;  uncertainty k = 0.350536
         4         2         1         9     9        0.000000        0.440998         1    ;  uncertainty k = 0.565450
         4         2         1         9     9      180.000000       14.673096         2    ;  uncertainty k = 0.346688
         4         2         1         9     9        0.000000        1.888238         3    ;  uncertainty k = 0.484884
         4         2         1         9     9      180.000000        1.151746         4    ;  uncertainty k = 0.275290
         4         2         1        12     9        0.000000       -0.224160         1    ;  uncertainty k = 0.497358
         4         2         1        12     9      180.000000       18.378585         2    ;  uncertainty k = 0.451604
         4         2         1        12     9        0.000000       -1.173043         3    ;  uncertainty k = 1.060830
         4         2         1        12     9      180.000000        1.071272         4    ;  uncertainty k = 0.618993
         4         5         6        11     9        0.000000       -0.188818         1    ;  uncertainty k = 0.823542
         4         5         6        11     9      180.000000       11.880705         2    ;  uncertainty k = 0.391204
         4         5         6        11     9        0.000000        0.177493         3    ;  uncertainty k = 0.430986
         4         5         6        11     9      180.000000        1.222096         4    ;  uncertainty k = 0.169816
         4         5         6        23     9        0.000000        0.144389         1    ;  uncertainty k = 0.356651
         4         5         6        23     9      180.000000        6.229170         2    ;  uncertainty k = 0.491124
         4         5         6        23     9        0.000000        1.376647         3    ;  uncertainty k = 0.438449
         4         5         6        23     9      180.000000        1.562008         4    ;  uncertainty k = 0.149378
         4         5        13        14     9        0.000000        4.337172         1    ;  uncertainty k = 0.855450
         4         5        13        14     9      180.000000        5.034204         2    ;  uncertainty k = 0.498631
         4         5        13        14     9        0.000000        0.422514         3    ;  uncertainty k = 0.162116
         4         5        13        14     9      180.000000        0.153163         4    ;  uncertainty k = 0.085865
         4         7         3        11     9        0.000000       -0.322650         1    ;  uncertainty k = 1.019002
         4         7         3        11     9      180.000000       12.843397         2    ;  uncertainty k = 0.301657
         4         7         3        11     9        0.000000       -1.123180         3    ;  uncertainty k = 0.621343
         4         7         3        11     9      180.000000        0.670082         4    ;  uncertainty k = 0.382875
         4         7         3        22     9        0.000000       -0.371732         1    ;  uncertainty k = 0.676812
         4         7         3        22     9      180.000000        5.342340         2    ;  uncertainty k = 0.601314
         4         7         3        22     9        0.000000        1.199322         3    ;  uncertainty k = 0.202546
         4         7         3        22     9      180.000000        1.071416         4    ;  uncertainty k = 0.235578
         5         4         2        21     9        0.000000        0.306437         1    ;  uncertainty k = 1.414104
         5         4         2        21     9      180.000000        4.799731         2    ;  uncertainty k = 0.870849
         5         4         2        21     9        0.000000        1.021985         3    ;  uncertainty k = 0.378982
         5         4         2        21     9      180.000000        0.102765         4    ;  uncertainty k = 0.076113
         5         4         7        12     9        0.000000        0.509226         1    ;  uncertainty k = 0.302821
         5         4         7        12     9      180.000000        8.999132         2    ;  uncertainty k = 0.478974
         5         4         7        12     9        0.000000        0.222118         3    ;  uncertainty k = 0.528827
         5         4         7        12     9      180.000000        1.154504         4    ;  uncertainty k = 0.237509
         5        13        14        15     9        0.000000        3.998254         1    ;  uncertainty k = 0.449882
         5        13        14        15     9      180.000000        4.753534         2    ;  uncertainty k = 0.233881
         5        13        14        15     9        0.000000        0.581546         3    ;  uncertainty k = 0.096882
         5        13        14        15     9      180.000000        0.162418         4    ;  uncertainty k = 0.088808
         5        13        14        19     9        0.000000        3.998254         1    ;  uncertainty k = 0.449882
         5        13        14        19     9      180.000000        4.753534         2    ;  uncertainty k = 0.233881
         5        13        14        19     9        0.000000        0.581546         3    ;  uncertainty k = 0.096882
         5        13        14        19     9      180.000000        0.162418         4    ;  uncertainty k = 0.088808
         6         5         4         7     9        0.000000       -0.068283         1    ;  uncertainty k = 0.266281
         6         5         4         7     9      180.000000        9.305200         2    ;  uncertainty k = 0.679466
         6         5         4         7     9        0.000000       -0.735342         3    ;  uncertainty k = 0.324332
         6         5         4         7     9      180.000000        0.953791         4    ;  uncertainty k = 0.178127
         6         5        13        14     9        0.000000        6.138326         1    ;  uncertainty k = 0.435754
         6         5        13        14     9      180.000000        4.387479         2    ;  uncertainty k = 0.390465
         6         5        13        14     9        0.000000        0.256709         3    ;  uncertainty k = 0.089021
         6         5        13        14     9      180.000000        0.147301         4    ;  uncertainty k = 0.081252
         6        11         3         7     9        0.000000       -0.520424         1    ;  uncertainty k = 0.847814
         6        11         3         7     9      180.000000       18.860628         2    ;  uncertainty k = 0.442627
         6        11         3         7     9        0.000000        1.066697         3    ;  uncertainty k = 0.493113
         6        11         3         7     9      180.000000        1.365326         4    ;  uncertainty k = 0.274107
         6        11         3        22     9        0.000000        0.132352         1    ;  uncertainty k = 0.093410
         6        11         3        22     9      180.000000       16.283310         2    ;  uncertainty k = 0.432587
         6        11         3        22     9        0.000000        2.340011         3    ;  uncertainty k = 0.313580
         6        11         3        22     9      180.000000        1.567589         4    ;  uncertainty k = 0.357860
         7         4         2        21     9        0.000000        0.005719         1    ;  uncertainty k = 0.880795
         7         4         2        21     9      180.000000        8.124940         2    ;  uncertainty k = 0.554822
         7         4         2        21     9        0.000000        0.967513         3    ;  uncertainty k = 0.635552
         7         4         2        21     9      180.000000        0.352574         4    ;  uncertainty k = 0.231535
         7         4         5        13     9        0.000000       -0.082338         1    ;  uncertainty k = 0.451695
         7         4         5        13     9      180.000000        9.814911         2    ;  uncertainty k = 0.434334
         7         4         5        13     9        0.000000        1.232741         3    ;  uncertainty k = 0.232462
         7         4         5        13     9      180.000000        1.265584         4    ;  uncertainty k = 0.390094
         7        12         1         9     9        0.000000       -0.327011         1    ;  uncertainty k = 1.284914
         7        12         1         9     9      180.000000        7.786048         2    ;  uncertainty k = 0.733952
         7        12         1         9     9        0.000000        1.070363         3    ;  uncertainty k = 0.906174
         7        12         1         9     9      180.000000        0.431424         4    ;  uncertainty k = 0.575644
         8         9         1        12     9        0.000000        1.419209         1    ;  uncertainty k = 1.031784
         8         9         1        12     9      180.000000        4.710252         2    ;  uncertainty k = 0.260268
         8         9         1        12     9        0.000000        0.612879         3    ;  uncertainty k = 0.292676
         8         9         1        12     9      180.000000        0.048757         4    ;  uncertainty k = 0.128765
         9         1         2        21     9        0.000000       -0.042855         1    ;  uncertainty k = 0.686955
         9         1         2        21     9      180.000000       10.427445         2    ;  uncertainty k = 0.331200
         9         1         2        21     9        0.000000        1.476339         3    ;  uncertainty k = 0.320570
         9         1         2        21     9      180.000000        0.796035         4    ;  uncertainty k = 0.262502
         9         8        28        31     9        0.000000        0.616502         1    ;  uncertainty k = 0.204982
         9         8        28        31     9      180.000000       -1.197209         2    ;  uncertainty k = 0.174821
         9         8        28        31     9        0.000000        0.994217         3    ;  uncertainty k = 0.129991
         9         8        28        31     9      180.000000       -0.085707         4    ;  uncertainty k = 0.080832
         9         8        28        32     9        0.000000        0.616502         1    ;  uncertainty k = 0.204982
         9         8        28        32     9      180.000000       -1.197209         2    ;  uncertainty k = 0.174821
         9         8        28        32     9        0.000000        0.994217         3    ;  uncertainty k = 0.129991
         9         8        28        32     9      180.000000       -0.085707         4    ;  uncertainty k = 0.080832
         9         8        28        33     9        0.000000        0.616502         1    ;  uncertainty k = 0.204982
         9         8        28        33     9      180.000000       -1.197209         2    ;  uncertainty k = 0.174821
         9         8        28        33     9        0.000000        0.994217         3    ;  uncertainty k = 0.129991
         9         8        28        33     9      180.000000       -0.085707         4    ;  uncertainty k = 0.080832
        10         9         1        12     9        0.000000       -1.926011         1    ;  uncertainty k = 0.815290
        10         9         1        12     9      180.000000        8.627580         2    ;  uncertainty k = 0.402037
        10         9         1        12     9        0.000000        0.229242         3    ;  uncertainty k = 0.266371
        10         9         1        12     9      180.000000       -0.208730         4    ;  uncertainty k = 0.126254
        10         9         8        28     9        0.000000       -2.058238         1    ;  uncertainty k = 0.895662
        10         9         8        28     9      180.000000        6.411178         2    ;  uncertainty k = 0.100211
        10         9         8        28     9        0.000000        0.688530         3    ;  uncertainty k = 0.210367
        10         9         8        28     9      180.000000        0.484025         4    ;  uncertainty k = 0.136490
        10         9         8        29     9        0.000000       -0.405945         1    ;  uncertainty k = 0.144964
        10         9         8        29     9      180.000000        4.970826         2    ;  uncertainty k = 0.254524
        10         9         8        29     9        0.000000        0.543850         3    ;  uncertainty k = 0.077017
        10         9         8        29     9      180.000000        0.279861         4    ;  uncertainty k = 0.067088
        10         9         8        30     9        0.000000       -0.405945         1    ;  uncertainty k = 0.144964
        10         9         8        30     9      180.000000        4.970826         2    ;  uncertainty k = 0.254524
        10         9         8        30     9        0.000000        0.543850         3    ;  uncertainty k = 0.077017
        10         9         8        30     9      180.000000        0.279861         4    ;  uncertainty k = 0.067088
        11         3         7        12     9        0.000000       -0.002279         1    ;  uncertainty k = 0.571586
        11         3         7        12     9      180.000000        7.892073         2    ;  uncertainty k = 0.511728
        11         3         7        12     9        0.000000        0.795001         3    ;  uncertainty k = 0.182664
        11         3         7        12     9      180.000000        1.280833         4    ;  uncertainty k = 0.455254
        11         6         5        13     9        0.000000        0.068728         1    ;  uncertainty k = 0.446029
        11         6         5        13     9      180.000000       12.021990         2    ;  uncertainty k = 0.403082
        11         6         5        13     9        0.000000        1.220735         3    ;  uncertainty k = 0.295039
        11         6         5        13     9      180.000000        1.602285         4    ;  uncertainty k = 0.190173
        12         1         2        21     9        0.000000        0.297296         1    ;  uncertainty k = 0.591930
        12         1         2        21     9      180.000000       12.323696         2    ;  uncertainty k = 0.672096
        12         1         2        21     9        0.000000        1.896401         3    ;  uncertainty k = 0.217339
        12         1         2        21     9      180.000000        1.261741         4    ;  uncertainty k = 0.217284
        12         7         3        22     9        0.000000       -0.147232         1    ;  uncertainty k = 0.544444
        12         7         3        22     9      180.000000        4.358206         2    ;  uncertainty k = 0.372275
        12         7         3        22     9        0.000000        0.707529         3    ;  uncertainty k = 0.438775
        12         7         3        22     9      180.000000        0.615154         4    ;  uncertainty k = 0.238975
        13         5         6        23     9        0.000000        0.012840         1    ;  uncertainty k = 0.273784
        13         5         6        23     9      180.000000        8.121104         2    ;  uncertainty k = 0.435011
        13         5         6        23     9        0.000000        0.875853         3    ;  uncertainty k = 0.228471
        13         5         6        23     9      180.000000        1.171043         4    ;  uncertainty k = 0.270200
        13        14        15        16     9        0.000000        0.012940         1    ;  uncertainty k = 0.228359
        13        14        15        16     9      180.000000       10.340595         2    ;  uncertainty k = 0.588374
        13        14        15        16     9        0.000000        1.386508         3    ;  uncertainty k = 0.278635
        13        14        15        16     9      180.000000        1.718833         4    ;  uncertainty k = 0.162981
        13        14        15        24     9        0.000000       -0.088836         1    ;  uncertainty k = 0.068913
        13        14        15        24     9      180.000000        8.191003         2    ;  uncertainty k = 0.225194
        13        14        15        24     9        0.000000        0.860883         3    ;  uncertainty k = 0.288123
        13        14        15        24     9      180.000000        1.121587         4    ;  uncertainty k = 0.126904
        13        14        19        18     9        0.000000        0.012940         1    ;  uncertainty k = 0.228359
        13        14        19        18     9      180.000000       10.340595         2    ;  uncertainty k = 0.588374
        13        14        19        18     9        0.000000        1.386508         3    ;  uncertainty k = 0.278635
        13        14        19        18     9      180.000000        1.718833         4    ;  uncertainty k = 0.162981
        13        14        19        27     9        0.000000       -0.088836         1    ;  uncertainty k = 0.068913
        13        14        19        27     9      180.000000        8.191003         2    ;  uncertainty k = 0.225194
        13        14        19        27     9        0.000000        0.860883         3    ;  uncertainty k = 0.288123
        13        14        19        27     9      180.000000        1.121587         4    ;  uncertainty k = 0.126904
        14        15        16        17     9        0.000000       -0.084812         1    ;  uncertainty k = 0.199187
        14        15        16        17     9      180.000000       14.596956         2    ;  uncertainty k = 0.244288
        14        15        16        17     9        0.000000       -0.776642         3    ;  uncertainty k = 0.624211
        14        15        16        17     9      180.000000        0.848971         4    ;  uncertainty k = 0.330797
        14        15        16        25     9        0.000000       -0.006201         1    ;  uncertainty k = 0.224829
        14        15        16        25     9      180.000000        7.941388         2    ;  uncertainty k = 0.233372
        14        15        16        25     9        0.000000        1.341388         3    ;  uncertainty k = 0.226117
        14        15        16        25     9      180.000000        1.800227         4    ;  uncertainty k = 0.150458
        14        19        18        17     9        0.000000       -0.084812         1    ;  uncertainty k = 0.199187
        14        19        18        17     9      180.000000       14.596956         2    ;  uncertainty k = 0.244288
        14        19        18        17     9        0.000000       -0.776642         3    ;  uncertainty k = 0.624211
        14        19        18        17     9      180.000000        0.848971         4    ;  uncertainty k = 0.330797
        14        19        18        26     9        0.000000       -0.006201         1    ;  uncertainty k = 0.224829
        14        19        18        26     9      180.000000        7.941388         2    ;  uncertainty k = 0.233372
        14        19        18        26     9        0.000000        1.341388         3    ;  uncertainty k = 0.226117
        14        19        18        26     9      180.000000        1.800227         4    ;  uncertainty k = 0.150458
        15        14        19        18     9        0.000000        0.021859         1    ;  uncertainty k = 0.058100
        15        14        19        18     9      180.000000        9.563230         2    ;  uncertainty k = 0.533115
        15        14        19        18     9        0.000000       -0.148114         3    ;  uncertainty k = 0.376128
        15        14        19        18     9      180.000000        1.132526         4    ;  uncertainty k = 0.362724
        15        14        19        27     9        0.000000        0.225608         1    ;  uncertainty k = 0.250641
        15        14        19        27     9      180.000000        6.088909         2    ;  uncertainty k = 0.717074
        15        14        19        27     9        0.000000        1.425839         3    ;  uncertainty k = 0.391710
        15        14        19        27     9      180.000000        1.548148         4    ;  uncertainty k = 0.166724
        15        16        17        18     9        0.000000       -0.072057         1    ;  uncertainty k = 0.151933
        15        16        17        18     9      180.000000       10.503747         2    ;  uncertainty k = 0.409738
        15        16        17        18     9        0.000000       -0.388981         3    ;  uncertainty k = 0.497522
        15        16        17        18     9      180.000000        0.994175         4    ;  uncertainty k = 0.364995
        15        16        17        20     9        0.000000       -0.046877         1    ;  uncertainty k = 0.158967
        15        16        17        20     9      180.000000        9.185201         2    ;  uncertainty k = 0.550764
        15        16        17        20     9        0.000000        1.540013         3    ;  uncertainty k = 0.421444
        15        16        17        20     9      180.000000        1.637278         4    ;  uncertainty k = 0.144228
        16        15        14        19     9        0.000000        0.021859         1    ;  uncertainty k = 0.058100
        16        15        14        19     9      180.000000        9.563230         2    ;  uncertainty k = 0.533115
        16        15        14        19     9        0.000000       -0.148114         3    ;  uncertainty k = 0.376128
        16        15        14        19     9      180.000000        1.132526         4    ;  uncertainty k = 0.362724
        16        17        18        19     9        0.000000       -0.072057         1    ;  uncertainty k = 0.151933
        16        17        18        19     9      180.000000       10.503747         2    ;  uncertainty k = 0.409738
        16        17        18        19     9        0.000000       -0.388981         3    ;  uncertainty k = 0.497522
        16        17        18        19     9      180.000000        0.994175         4    ;  uncertainty k = 0.364995
        16        17        18        26     9        0.000000       -0.010357         1    ;  uncertainty k = 0.158180
        16        17        18        26     9      180.000000        6.039204         2    ;  uncertainty k = 0.577702
        16        17        18        26     9        0.000000        1.377794         3    ;  uncertainty k = 0.357667
        16        17        18        26     9      180.000000        1.517206         4    ;  uncertainty k = 0.203459
        17        16        15        24     9        0.000000        0.090333         1    ;  uncertainty k = 0.111265
        17        16        15        24     9      180.000000        7.948741         2    ;  uncertainty k = 0.316292
        17        16        15        24     9        0.000000        1.466779         3    ;  uncertainty k = 0.281186
        17        16        15        24     9      180.000000        1.885531         4    ;  uncertainty k = 0.162729
        17        18        19        27     9        0.000000        0.090333         1    ;  uncertainty k = 0.111265
        17        18        19        27     9      180.000000        7.948741         2    ;  uncertainty k = 0.316292
        17        18        19        27     9        0.000000        1.466779         3    ;  uncertainty k = 0.281186
        17        18        19        27     9      180.000000        1.885531         4    ;  uncertainty k = 0.162729
        18        17        16        25     9        0.000000       -0.010357         1    ;  uncertainty k = 0.158180
        18        17        16        25     9      180.000000        6.039204         2    ;  uncertainty k = 0.577702
        18        17        16        25     9        0.000000        1.377794         3    ;  uncertainty k = 0.357667
        18        17        16        25     9      180.000000        1.517206         4    ;  uncertainty k = 0.203459
        19        14        15        24     9        0.000000        0.225608         1    ;  uncertainty k = 0.250641
        19        14        15        24     9      180.000000        6.088909         2    ;  uncertainty k = 0.717074
        19        14        15        24     9        0.000000        1.425839         3    ;  uncertainty k = 0.391710
        19        14        15        24     9      180.000000        1.548148         4    ;  uncertainty k = 0.166724
        19        18        17        20     9        0.000000       -0.046877         1    ;  uncertainty k = 0.158967
        19        18        17        20     9      180.000000        9.185201         2    ;  uncertainty k = 0.550764
        19        18        17        20     9        0.000000        1.540013         3    ;  uncertainty k = 0.421444
        19        18        17        20     9      180.000000        1.637278         4    ;  uncertainty k = 0.144228
        20        17        16        25     9        0.000000       -0.189172         1    ;  uncertainty k = 0.151100
        20        17        16        25     9      180.000000        7.284958         2    ;  uncertainty k = 0.254965
        20        17        16        25     9        0.000000        0.631882         3    ;  uncertainty k = 0.368223
        20        17        16        25     9      180.000000        0.954031         4    ;  uncertainty k = 0.182884
        20        17        18        26     9        0.000000       -0.189172         1    ;  uncertainty k = 0.151100
        20        17        18        26     9      180.000000        7.284958         2    ;  uncertainty k = 0.254965
        20        17        18        26     9        0.000000        0.631882         3    ;  uncertainty k = 0.368223
        20        17        18        26     9      180.000000        0.954031         4    ;  uncertainty k = 0.182884
        24        15        16        25     9        0.000000       -0.093943         1    ;  uncertainty k = 0.178369
        24        15        16        25     9      180.000000        7.626056         2    ;  uncertainty k = 0.397032
        24        15        16        25     9        0.000000       -0.417074         3    ;  uncertainty k = 0.239577
        24        15        16        25     9      180.000000        0.127936         4    ;  uncertainty k = 0.124753
        26        18        19        27     9        0.000000       -0.093943         1    ;  uncertainty k = 0.178369
        26        18        19        27     9      180.000000        7.626056         2    ;  uncertainty k = 0.397032
        26        18        19        27     9        0.000000       -0.417074         3    ;  uncertainty k = 0.239577
        26        18        19        27     9      180.000000        0.127936         4    ;  uncertainty k = 0.124753
        29         8        28        31     9        0.000000        0.280383         1    ;  uncertainty k = 0.327024
        29         8        28        31     9      180.000000       -0.367750         2    ;  uncertainty k = 0.142966
        29         8        28        31     9        0.000000        0.644117         3    ;  uncertainty k = 0.017753
        29         8        28        31     9      180.000000       -0.029124         4    ;  uncertainty k = 0.054941
        29         8        28        32     9        0.000000        0.280383         1    ;  uncertainty k = 0.327024
        29         8        28        32     9      180.000000       -0.367750         2    ;  uncertainty k = 0.142966
        29         8        28        32     9        0.000000        0.644117         3    ;  uncertainty k = 0.017753
        29         8        28        32     9      180.000000       -0.029124         4    ;  uncertainty k = 0.054941
        29         8        28        33     9        0.000000        0.280383         1    ;  uncertainty k = 0.327024
        29         8        28        33     9      180.000000       -0.367750         2    ;  uncertainty k = 0.142966
        29         8        28        33     9        0.000000        0.644117         3    ;  uncertainty k = 0.017753
        29         8        28        33     9      180.000000       -0.029124         4    ;  uncertainty k = 0.054941
        30         8        28        31     9        0.000000        0.280383         1    ;  uncertainty k = 0.327024
        30         8        28        31     9      180.000000       -0.367750         2    ;  uncertainty k = 0.142966
        30         8        28        31     9        0.000000        0.644117         3    ;  uncertainty k = 0.017753
        30         8        28        31     9      180.000000       -0.029124         4    ;  uncertainty k = 0.054941
        30         8        28        32     9        0.000000        0.280383         1    ;  uncertainty k = 0.327024
        30         8        28        32     9      180.000000       -0.367750         2    ;  uncertainty k = 0.142966
        30         8        28        32     9        0.000000        0.644117         3    ;  uncertainty k = 0.017753
        30         8        28        32     9      180.000000       -0.029124         4    ;  uncertainty k = 0.054941
        30         8        28        33     9        0.000000        0.280383         1    ;  uncertainty k = 0.327024
        30         8        28        33     9      180.000000       -0.367750         2    ;  uncertainty k = 0.142966
        30         8        28        33     9        0.000000        0.644117         3    ;  uncertainty k = 0.017753
        30         8        28        33     9      180.000000       -0.029124         4    ;  uncertainty k = 0.054941

[ dihedrals ] ; impropers
;       ai        aj        ak        al funct           phase               k        pn
         1         2         9        12     4      180.000000        1.982687         2    ;  uncertainty k = 0.399915
         1         9        12         2     4      180.000000        1.982687         2    ;  uncertainty k = 0.399915
         1        12         2         9     4      180.000000        1.982687         2    ;  uncertainty k = 0.399915
         2         1         4        21     4      180.000000        2.314585         2    ;  uncertainty k = 0.366028
         2         4        21         1     4      180.000000        2.314585         2    ;  uncertainty k = 0.366028
         2        21         1         4     4      180.000000        2.314585         2    ;  uncertainty k = 0.366028
         3         7        11        22     4      180.000000       13.039416         2    ;  uncertainty k = 0.091522
         3        11        22         7     4      180.000000       13.039416         2    ;  uncertainty k = 0.091522
         3        22         7        11     4      180.000000       13.039416         2    ;  uncertainty k = 0.091522
         4         2         5         7     4      180.000000        1.839881         2    ;  uncertainty k = 0.617566
         4         5         7         2     4      180.000000        1.839881         2    ;  uncertainty k = 0.617566
         4         7         2         5     4      180.000000        1.839881         2    ;  uncertainty k = 0.617566
         5         4         6        13     4      180.000000       15.578677         2    ;  uncertainty k = 0.118727
         5         6        13         4     4      180.000000       15.578677         2    ;  uncertainty k = 0.118727
         5        13         4         6     4      180.000000       15.578677         2    ;  uncertainty k = 0.118727
         6         5        11        23     4      180.000000        9.523657         2    ;  uncertainty k = 0.155815
         6        11        23         5     4      180.000000        9.523657         2    ;  uncertainty k = 0.155815
         6        23         5        11     4      180.000000        9.523657         2    ;  uncertainty k = 0.155815
         7         3         4        12     4      180.000000        1.035370         2    ;  uncertainty k = 0.788224
         7         4        12         3     4      180.000000        1.035370         2    ;  uncertainty k = 0.788224
         7        12         3         4     4      180.000000        1.035370         2    ;  uncertainty k = 0.788224
         9         1         8        10     4      180.000000       54.677664         2    ;  uncertainty k = 0.031595
         9         8        10         1     4      180.000000       54.677664         2    ;  uncertainty k = 0.031595
         9        10         1         8     4      180.000000       54.677664         2    ;  uncertainty k = 0.031595
        14        13        15        19     4      180.000000       17.409305         2    ;  uncertainty k = 0.054636
        14        15        19        13     4      180.000000       17.409305         2    ;  uncertainty k = 0.054636
        14        19        13        15     4      180.000000       17.409305         2    ;  uncertainty k = 0.054636
        15        14        16        24     4      180.000000        3.008016         2    ;  uncertainty k = 0.105490
        15        16        24        14     4      180.000000        3.008016         2    ;  uncertainty k = 0.105490
        15        24        14        16     4      180.000000        3.008016         2    ;  uncertainty k = 0.105490
        16        15        17        25     4      180.000000        3.865517         2    ;  uncertainty k = 0.182529
        16        17        25        15     4      180.000000        3.865517         2    ;  uncertainty k = 0.182529
        16        25        15        17     4      180.000000        3.865517         2    ;  uncertainty k = 0.182529
        17        16        18        20     4      180.000000       12.038020         2    ;  uncertainty k = 0.044617
        17        18        20        16     4      180.000000       12.038020         2    ;  uncertainty k = 0.044617
        17        20        16        18     4      180.000000       12.038020         2    ;  uncertainty k = 0.044617
        18        17        19        26     4      180.000000        3.865515         2    ;  uncertainty k = 0.182529
        18        19        26        17     4      180.000000        3.865515         2    ;  uncertainty k = 0.182529
        18        26        17        19     4      180.000000        3.865515         2    ;  uncertainty k = 0.182529
        19        14        18        27     4      180.000000        3.008017         2    ;  uncertainty k = 0.105491
        19        18        27        14     4      180.000000        3.008017         2    ;  uncertainty k = 0.105491
        19        27        14        18     4      180.000000        3.008017         2    ;  uncertainty k = 0.105491

[ pairs ]
;       ai        aj funct
         1         3     1
         1         5     1
         1        28     1
         1        29     1
         1        30     1
         2         3     1
         2         6     1
         2         8     1
         2        10     1
         2        13     1
         3         5     1
         3        23     1
         4         9     1
         4        11     1
         4        14     1
         4        22     1
         4        23     1
         5        12     1
         5        15     1
         5        19     1
         5        21     1
         6         7     1
         6        14     1
         6        22     1
         7         9     1
         7        13     1
         7        21     1
         8        12     1
         9        21     1
         9        31     1
         9        32     1
         9        33     1
        10        12     1
        10        28     1
        10        29     1
        10        30     1
        11        12     1
        11        13     1
        12        21     1
        12        22     1
        13        16     1
        13        18     1
        13        23     1
        13        24     1
        13        27     1
        14        17     1
        14        25     1
        14        26     1
        15        18     1
        15        20     1
        15        27     1
        16        19     1
        16        26     1
        17        24     1
        17        27     1
        18        25     1
        19        20     1
        19        24     1
        20        25     1
        20        26     1
        24        25     1
        26        27     1
        29        31     1
        29        32     1
        29        33     1
        30        31     1
        30        32     1
        30        33     1
