; ITP file created by ByteFF-joint-25, 2025-07-14 11:36:07.325065

[ atomtypes ]
;name           bonded.type        at.num        mass        charge   ptype           sigma         epsilon
 c0bf                                   6      0.0000       0.00000       A     3.31456e-01     4.12701e-01    ;  uncertainty sigma = 0.000011, epsilon = 0.000826
 c1bf                                   6      0.0000       0.00000       A     3.31560e-01     4.12727e-01    ;  uncertainty sigma = 0.000006, epsilon = 0.001124
 c2bf                                   6      0.0000       0.00000       A     3.31539e-01     4.13533e-01    ;  uncertainty sigma = 0.000013, epsilon = 0.000944
 c3bf                                   6      0.0000       0.00000       A     3.31551e-01     4.13750e-01    ;  uncertainty sigma = 0.000004, epsilon = 0.000344
 c4bf                                   6      0.0000       0.00000       A     3.31519e-01     4.13403e-01    ;  uncertainty sigma = 0.000024, epsilon = 0.000623
 c5bf                                   6      0.0000       0.00000       A     3.31498e-01     4.12877e-01    ;  uncertainty sigma = 0.000005, epsilon = 0.000808
 c6bf                                   6      0.0000       0.00000       A     3.31543e-01     4.13489e-01    ;  uncertainty sigma = 0.000012, epsilon = 0.000762
 c7bf                                   6      0.0000       0.00000       A     3.31507e-01     4.13826e-01    ;  uncertainty sigma = 0.000019, epsilon = 0.001356
 o8bf                                   8      0.0000       0.00000       A     3.04789e-01     6.12806e-01    ;  uncertainty sigma = 0.000029, epsilon = 0.001458
 n9bf                                   7      0.0000       0.00000       A     3.38404e-01     3.93885e-01    ;  uncertainty sigma = 0.000020, epsilon = 0.001459
 s10bf                                 16      0.0000       0.00000       A     3.53294e-01     1.18130e+00    ;  uncertainty sigma = 0.000032, epsilon = 0.000862
 o11bf                                  8      0.0000       0.00000       A     3.15417e-01     3.02311e-01    ;  uncertainty sigma = 0.000023, epsilon = 0.001113
 c12bf                                  6      0.0000       0.00000       A     3.31510e-01     4.13658e-01    ;  uncertainty sigma = 0.000011, epsilon = 0.000806
 c13bf                                  6      0.0000       0.00000       A     3.31518e-01     4.13462e-01    ;  uncertainty sigma = 0.000002, epsilon = 0.000591
 c14bf                                  6      0.0000       0.00000       A     3.31523e-01     4.13492e-01    ;  uncertainty sigma = 0.000004, epsilon = 0.000562
 c15bf                                  6      0.0000       0.00000       A     3.31532e-01     4.13144e-01    ;  uncertainty sigma = 0.000004, epsilon = 0.000546
 c16bf                                  6      0.0000       0.00000       A     3.31523e-01     4.13492e-01    ;  uncertainty sigma = 0.000004, epsilon = 0.000562
 c17bf                                  6      0.0000       0.00000       A     3.31518e-01     4.13462e-01    ;  uncertainty sigma = 0.000002, epsilon = 0.000591
 cl18bf                                17      0.0000       0.00000       A     3.46630e-01     1.10437e+00    ;  uncertainty sigma = 0.000011, epsilon = 0.001278
 h19bf                                  1      0.0000       0.00000       A     2.62618e-01     6.71720e-02    ;  uncertainty sigma = 0.000017, epsilon = 0.000751
 h20bf                                  1      0.0000       0.00000       A     2.53593e-01     6.72766e-02    ;  uncertainty sigma = 0.000100, epsilon = 0.001112
 h21bf                                  1      0.0000       0.00000       A     2.53659e-01     6.69732e-02    ;  uncertainty sigma = 0.000032, epsilon = 0.000842
 h22bf                                  1      0.0000       0.00000       A     2.62555e-01     6.71248e-02    ;  uncertainty sigma = 0.000005, epsilon = 0.000438
 h23bf                                  1      0.0000       0.00000       A     2.62563e-01     6.70437e-02    ;  uncertainty sigma = 0.000011, epsilon = 0.000615
 h24bf                                  1      0.0000       0.00000       A     2.62563e-01     6.70437e-02    ;  uncertainty sigma = 0.000011, epsilon = 0.000615
 h25bf                                  1      0.0000       0.00000       A     2.62555e-01     6.71248e-02    ;  uncertainty sigma = 0.000005, epsilon = 0.000438
 h26bf                                  1      0.0000       0.00000       A     2.60083e-01     8.67952e-02    ;  uncertainty sigma = 0.000028, epsilon = 0.001051
 c27bf                                  6      0.0000       0.00000       A     3.39780e-01     4.51612e-01    ;  uncertainty sigma = 0.000004, epsilon = 0.001619
 c28bf                                  6      0.0000       0.00000       A     3.39781e-01     4.50688e-01    ;  uncertainty sigma = 0.000017, epsilon = 0.000555
 c29bf                                  6      0.0000       0.00000       A     3.39781e-01     4.50688e-01    ;  uncertainty sigma = 0.000017, epsilon = 0.000555
 h30bf                                  1      0.0000       0.00000       A     2.60022e-01     8.70326e-02    ;  uncertainty sigma = 0.000030, epsilon = 0.001055
 h31bf                                  1      0.0000       0.00000       A     2.60022e-01     8.70326e-02    ;  uncertainty sigma = 0.000030, epsilon = 0.001055
 h32bf                                  1      0.0000       0.00000       A     2.60022e-01     8.70327e-02    ;  uncertainty sigma = 0.000030, epsilon = 0.001055
 h33bf                                  1      0.0000       0.00000       A     2.60022e-01     8.70326e-02    ;  uncertainty sigma = 0.000030, epsilon = 0.001055

[ moleculetype ]
;name             nrexcl
 MOL                   3

[ atoms ]
;       nr            type      resi   res      atom      cgnr      charge          mass ; qtot
         1            c0bf         1   UNL        c0         1    -0.12687       12.0110 ; qtot   -0.127
         2            c1bf         1   UNL        c1         2    -0.04625       12.0110 ; qtot   -0.173
         3            c2bf         1   UNL        c2         3     0.42629       12.0110 ; qtot    0.253
         4            c3bf         1   UNL        c3         4    -0.06959       12.0110 ; qtot    0.184
         5            c4bf         1   UNL        c4         5     0.04288       12.0110 ; qtot    0.226
         6            c5bf         1   UNL        c5         6     0.35575       12.0110 ; qtot    0.582
         7            c6bf         1   UNL        c6         7    -0.13401       12.0110 ; qtot    0.448
         8            c7bf         1   UNL        c7         8     0.63172       12.0110 ; qtot    1.080
         9            o8bf         1   UNL        o8         9    -0.53413       15.9990 ; qtot    0.546
        10            n9bf         1   UNL        n9        10    -0.64087       14.0070 ; qtot   -0.095
        11           s10bf         1   UNL       s10        11    -0.00741       32.0670 ; qtot   -0.102
        12           o11bf         1   UNL       o11        12    -0.24264       15.9990 ; qtot   -0.345
        13           c12bf         1   UNL       c12        13     0.11070       12.0110 ; qtot   -0.234
        14           c13bf         1   UNL       c13        14    -0.14772       12.0110 ; qtot   -0.382
        15           c14bf         1   UNL       c14        15    -0.09747       12.0110 ; qtot   -0.480
        16           c15bf         1   UNL       c15        16     0.01479       12.0110 ; qtot   -0.465
        17           c16bf         1   UNL       c16        17    -0.09747       12.0110 ; qtot   -0.562
        18           c17bf         1   UNL       c17        18    -0.14772       12.0110 ; qtot   -0.710
        19          cl18bf         1   UNL      cl18        19    -0.11722       35.4530 ; qtot   -0.827
        20           h19bf         1   UNL       h19        20     0.17828        1.0080 ; qtot   -0.649
        21           h20bf         1   UNL       h20        21     0.03043        1.0080 ; qtot   -0.619
        22           h21bf         1   UNL       h21        22     0.03867        1.0080 ; qtot   -0.580
        23           h22bf         1   UNL       h22        23     0.15269        1.0080 ; qtot   -0.427
        24           h23bf         1   UNL       h23        24     0.15337        1.0080 ; qtot   -0.274
        25           h24bf         1   UNL       h24        25     0.15337        1.0080 ; qtot   -0.120
        26           h25bf         1   UNL       h25        26     0.15269        1.0080 ; qtot    0.032
        27           h26bf         1   UNL       h26        27     0.09824        1.0080 ; qtot    0.130
        28           c27bf         1   UNL       c27        28    -0.25899       12.0110 ; qtot   -0.128
        29           c28bf         1   UNL       c28        29    -0.09971       12.0110 ; qtot   -0.228
        30           c29bf         1   UNL       c29        30    -0.09971       12.0110 ; qtot   -0.328
        31           h30bf         1   UNL       h30        31     0.08198        1.0080 ; qtot   -0.246
        32           h31bf         1   UNL       h31        32     0.08198        1.0080 ; qtot   -0.164
        33           h32bf         1   UNL       h32        33     0.08198        1.0080 ; qtot   -0.082
        34           h33bf         1   UNL       h33        34     0.08197        1.0080 ; qtot   -0.000

[ bonds ]
;       ai        aj funct               r               k
         1         2     1        0.137061   406758.091504    ;  uncertainty r = 0.000064, k = 5.804508
         1         8     1        0.148053   256086.439258    ;  uncertainty r = 0.000141, k = 15.010192
         1        11     1        0.176110   165401.814453    ;  uncertainty r = 0.000187, k = 15.034702
         2         4     1        0.143230   248449.668848    ;  uncertainty r = 0.000077, k = 4.999076
         2        20     1        0.108366   334132.288965    ;  uncertainty r = 0.000055, k = 1.269060
         3         7     1        0.139909   357399.200391    ;  uncertainty r = 0.000106, k = 9.266971
         3        10     1        0.132914   403937.670996    ;  uncertainty r = 0.000085, k = 3.484706
         3        21     1        0.108996   332692.021533    ;  uncertainty r = 0.000016, k = 2.312073
         4         5     1        0.140247   350897.605566    ;  uncertainty r = 0.000069, k = 7.315193
         4         7     1        0.141324   373788.661816    ;  uncertainty r = 0.000061, k = 16.067561
         5         6     1        0.138631   347797.783545    ;  uncertainty r = 0.000072, k = 10.298013
         5        12     1        0.137597   318910.792773    ;  uncertainty r = 0.000055, k = 12.405238
         6        10     1        0.134435   379665.874316    ;  uncertainty r = 0.000185, k = 8.749163
         6        22     1        0.108927   339756.581934    ;  uncertainty r = 0.000043, k = 5.117425
         7        11     1        0.174921   180423.559375    ;  uncertainty r = 0.000106, k = 10.369172
         8         9     1        0.123238   706057.661133    ;  uncertainty r = 0.000062, k = 12.492369
         8        28     1        0.148767   198508.365649    ;  uncertainty r = 0.000133, k = 8.039090
        12        13     1        0.138284   318274.791064    ;  uncertainty r = 0.000075, k = 8.099025
        13        14     1        0.139423   356196.504687    ;  uncertainty r = 0.000043, k = 1.660662
        13        18     1        0.139423   356196.504687    ;  uncertainty r = 0.000043, k = 1.660662
        14        15     1        0.139179   373143.287988    ;  uncertainty r = 0.000009, k = 2.388054
        14        23     1        0.108786   336460.507227    ;  uncertainty r = 0.000014, k = 1.146262
        15        16     1        0.139495   363006.460107    ;  uncertainty r = 0.000019, k = 1.852841
        15        24     1        0.108702   334843.344238    ;  uncertainty r = 0.000027, k = 0.886329
        16        17     1        0.139495   363006.460107    ;  uncertainty r = 0.000019, k = 1.852841
        16        19     1        0.175852   197478.236963    ;  uncertainty r = 0.000021, k = 4.301143
        17        18     1        0.139179   373143.287988    ;  uncertainty r = 0.000009, k = 2.388054
        17        25     1        0.108702   334843.344238    ;  uncertainty r = 0.000027, k = 0.886329
        18        26     1        0.108786   336460.507227    ;  uncertainty r = 0.000014, k = 1.146262
        27        28     1        0.108607   310004.930176    ;  uncertainty r = 0.000032, k = 3.664212
        28        29     1        0.152194   208355.870850    ;  uncertainty r = 0.000042, k = 11.393310
        28        30     1        0.152194   208355.870850    ;  uncertainty r = 0.000042, k = 11.393310
        29        30     1        0.149389   233171.122754    ;  uncertainty r = 0.000107, k = 9.514012
        29        31     1        0.108614   312097.594141    ;  uncertainty r = 0.000023, k = 1.173238
        29        32     1        0.108614   312097.594141    ;  uncertainty r = 0.000023, k = 1.173238
        30        33     1        0.108614   312097.594141    ;  uncertainty r = 0.000023, k = 1.173238
        30        34     1        0.108614   312097.594141    ;  uncertainty r = 0.000023, k = 1.173238

[ angles ]
;       ai        aj        ak funct           theta             cth
         1         2         4     1      113.157921      696.166117    ;  uncertainty theta = 0.004200, k = 0.179923
         1         2        20     1      120.951683      252.772597    ;  uncertainty theta = 0.005820, k = 0.142741
         1         8         9     1      122.685059      560.609906    ;  uncertainty theta = 0.004673, k = 0.180405
         1         8        28     1      116.852577      349.016025    ;  uncertainty theta = 0.008580, k = 0.250523
         1        11         7     1       90.091148     1202.919791    ;  uncertainty theta = 0.004358, k = 0.242920
         2         1         8     1      124.211960      312.451034    ;  uncertainty theta = 0.006984, k = 0.103963
         2         1        11     1      114.988571      490.017291    ;  uncertainty theta = 0.006300, k = 0.139219
         2         4         5     1      127.976196      375.527375    ;  uncertainty theta = 0.003643, k = 0.189010
         2         4         7     1      112.774803      582.390825    ;  uncertainty theta = 0.000864, k = 0.256945
         3         7         4     1      118.359314      373.815048    ;  uncertainty theta = 0.004030, k = 0.223734
         3         7        11     1      126.459312      361.920916    ;  uncertainty theta = 0.001720, k = 0.193581
         3        10         6     1      120.842484      402.797848    ;  uncertainty theta = 0.002548, k = 0.205041
         4         2        20     1      122.298851      247.364795    ;  uncertainty theta = 0.004558, k = 0.115242
         4         5         6     1      119.508568      391.665264    ;  uncertainty theta = 0.005827, k = 0.217976
         4         5        12     1      119.381409      397.435087    ;  uncertainty theta = 0.007060, k = 0.137486
         4         7        11     1      111.109360      496.281735    ;  uncertainty theta = 0.006494, k = 0.163969
         5         4         7     1      115.418846      426.095001    ;  uncertainty theta = 0.006857, k = 0.235317
         5         6        10     1      124.514183      661.788444    ;  uncertainty theta = 0.003510, k = 0.148398
         5         6        22     1      119.349350      264.281662    ;  uncertainty theta = 0.001084, k = 0.195892
         5        12        13     1      112.893166      470.825387    ;  uncertainty theta = 0.002135, k = 0.157860
         6         5        12     1      119.648598      413.022300    ;  uncertainty theta = 0.006887, k = 0.248373
         7         3        10     1      121.590317      690.570745    ;  uncertainty theta = 0.002253, k = 0.115120
         7         3        21     1      122.271164      288.247568    ;  uncertainty theta = 0.002378, k = 0.090400
         8         1        11     1      117.888931      307.575489    ;  uncertainty theta = 0.007266, k = 0.198626
         8        28        27     1      115.992775      253.284042    ;  uncertainty theta = 0.007630, k = 0.209669
         8        28        29     1      110.256638      311.148578    ;  uncertainty theta = 0.006051, k = 0.125124
         8        28        30     1      110.256638      311.148578    ;  uncertainty theta = 0.006051, k = 0.125124
         9         8        28     1      124.257065      569.065370    ;  uncertainty theta = 0.006210, k = 0.240229
        10         3        21     1      116.879013      331.081122    ;  uncertainty theta = 0.001934, k = 0.154842
        10         6        22     1      116.582138      339.078387    ;  uncertainty theta = 0.002044, k = 0.073114
        12        13        14     1      119.605370      414.485353    ;  uncertainty theta = 0.003848, k = 0.027613
        12        13        18     1      119.605370      414.485353    ;  uncertainty theta = 0.003848, k = 0.027613
        13        14        15     1      119.070030      516.640143    ;  uncertainty theta = 0.002096, k = 0.087661
        13        14        23     1      120.543640      275.370864    ;  uncertainty theta = 0.001603, k = 0.031522
        13        18        17     1      119.070030      516.640143    ;  uncertainty theta = 0.002096, k = 0.087661
        13        18        26     1      120.543640      275.370864    ;  uncertainty theta = 0.001603, k = 0.031522
        14        13        18     1      121.385071      388.674390    ;  uncertainty theta = 0.003318, k = 0.099530
        14        15        16     1      119.072433      503.912990    ;  uncertainty theta = 0.001237, k = 0.034021
        14        15        24     1      120.368881      279.362761    ;  uncertainty theta = 0.002070, k = 0.019960
        15        14        23     1      120.542198      288.492916    ;  uncertainty theta = 0.001251, k = 0.027493
        15        16        17     1      120.545288      372.862993    ;  uncertainty theta = 0.001637, k = 0.046553
        15        16        19     1      120.352928      443.931332    ;  uncertainty theta = 0.001270, k = 0.021859
        16        15        24     1      120.931236      284.614308    ;  uncertainty theta = 0.001296, k = 0.014096
        16        17        18     1      119.072433      503.912990    ;  uncertainty theta = 0.001237, k = 0.034021
        16        17        25     1      120.931236      284.614308    ;  uncertainty theta = 0.001296, k = 0.014096
        17        16        19     1      120.352928      443.931332    ;  uncertainty theta = 0.001270, k = 0.021859
        17        18        26     1      120.542198      288.492916    ;  uncertainty theta = 0.001251, k = 0.027493
        18        17        25     1      120.368881      279.362761    ;  uncertainty theta = 0.002070, k = 0.019960
        27        28        29     1      108.359268      211.804913    ;  uncertainty theta = 0.005170, k = 0.319541
        27        28        30     1      108.359268      211.804913    ;  uncertainty theta = 0.005170, k = 0.319541
        28        29        30     1       57.830505      167.360000    ;  uncertainty theta = 0.010482, k = 0.000000
        28        29        31     1      109.002945      207.985631    ;  uncertainty theta = 0.004182, k = 0.159428
        28        29        32     1      109.002945      207.985631    ;  uncertainty theta = 0.004182, k = 0.159428
        28        30        29     1       57.830505      167.360000    ;  uncertainty theta = 0.010482, k = 0.000000
        28        30        33     1      109.002945      207.985631    ;  uncertainty theta = 0.004182, k = 0.159428
        28        30        34     1      109.002945      207.985631    ;  uncertainty theta = 0.004182, k = 0.159428
        29        28        30     1       67.384224      167.360000    ;  uncertainty theta = 0.050868, k = 0.000000
        29        30        33     1      110.163963      220.817629    ;  uncertainty theta = 0.003646, k = 0.185121
        29        30        34     1      110.163963      220.817629    ;  uncertainty theta = 0.003646, k = 0.185121
        30        29        31     1      110.163963      220.817629    ;  uncertainty theta = 0.003646, k = 0.185121
        30        29        32     1      110.163963      220.817629    ;  uncertainty theta = 0.003646, k = 0.185120
        31        29        32     1      114.709984      201.290646    ;  uncertainty theta = 0.004190, k = 0.091784
        33        30        34     1      114.709984      201.290646    ;  uncertainty theta = 0.004190, k = 0.091784

[ dihedrals ] ; propers for gromacs 4.5 or higher, use funct 9
;       ai        aj        ak        al funct           phase               k        pn
         1         2         4         5     9        0.000000       -0.276052         1    ;  uncertainty k = 0.499785
         1         2         4         5     9      180.000000        7.776611         2    ;  uncertainty k = 0.687321
         1         2         4         5     9        0.000000        0.605372         3    ;  uncertainty k = 0.262742
         1         2         4         5     9      180.000000        0.577182         4    ;  uncertainty k = 0.313957
         1         2         4         7     9        0.000000       -0.155070         1    ;  uncertainty k = 0.669038
         1         2         4         7     9      180.000000       13.142801         2    ;  uncertainty k = 0.535935
         1         2         4         7     9        0.000000       -5.002769         3    ;  uncertainty k = 1.465555
         1         2         4         7     9      180.000000        1.214077         4    ;  uncertainty k = 0.395729
         1         8        28        27     9        0.000000        0.698400         1    ;  uncertainty k = 0.561439
         1         8        28        27     9      180.000000        3.520860         2    ;  uncertainty k = 0.658464
         1         8        28        27     9        0.000000        1.026774         3    ;  uncertainty k = 0.216795
         1         8        28        27     9      180.000000        0.209157         4    ;  uncertainty k = 0.196705
         1         8        28        29     9        0.000000        0.484095         1    ;  uncertainty k = 0.705594
         1         8        28        29     9      180.000000        2.935365         2    ;  uncertainty k = 0.694166
         1         8        28        29     9        0.000000        0.522619         3    ;  uncertainty k = 0.243935
         1         8        28        29     9      180.000000        0.372617         4    ;  uncertainty k = 0.072634
         1         8        28        30     9        0.000000        0.484095         1    ;  uncertainty k = 0.705594
         1         8        28        30     9      180.000000        2.935365         2    ;  uncertainty k = 0.694166
         1         8        28        30     9        0.000000        0.522619         3    ;  uncertainty k = 0.243935
         1         8        28        30     9      180.000000        0.372617         4    ;  uncertainty k = 0.072634
         1        11         7         3     9        0.000000       -1.393323         1    ;  uncertainty k = 2.665552
         1        11         7         3     9      180.000000        7.383584         2    ;  uncertainty k = 0.693411
         1        11         7         3     9        0.000000        0.787848         3    ;  uncertainty k = 0.499687
         1        11         7         3     9      180.000000        0.569176         4    ;  uncertainty k = 0.369932
         1        11         7         4     9        0.000000       -0.263765         1    ;  uncertainty k = 0.905446
         1        11         7         4     9      180.000000       14.703465         2    ;  uncertainty k = 0.560165
         1        11         7         4     9        0.000000       -6.810537         3    ;  uncertainty k = 1.023021
         1        11         7         4     9      180.000000        0.495969         4    ;  uncertainty k = 0.867161
         2         1         8         9     9        0.000000        1.774442         1    ;  uncertainty k = 1.539731
         2         1         8         9     9      180.000000        4.800009         2    ;  uncertainty k = 0.664309
         2         1         8         9     9        0.000000        0.934858         3    ;  uncertainty k = 0.252170
         2         1         8         9     9      180.000000       -0.110985         4    ;  uncertainty k = 0.106461
         2         1         8        28     9        0.000000       -1.240019         1    ;  uncertainty k = 2.050080
         2         1         8        28     9      180.000000        2.647848         2    ;  uncertainty k = 0.706714
         2         1         8        28     9        0.000000        0.194287         3    ;  uncertainty k = 0.392650
         2         1         8        28     9      180.000000        0.045074         4    ;  uncertainty k = 0.299729
         2         1        11         7     9        0.000000       -0.837000         1    ;  uncertainty k = 0.930698
         2         1        11         7     9      180.000000       13.328677         2    ;  uncertainty k = 0.612593
         2         1        11         7     9        0.000000       -6.080615         3    ;  uncertainty k = 1.267268
         2         1        11         7     9      180.000000        1.481022         4    ;  uncertainty k = 0.403238
         2         4         5         6     9        0.000000       -0.155795         1    ;  uncertainty k = 0.835794
         2         4         5         6     9      180.000000        5.704405         2    ;  uncertainty k = 0.634365
         2         4         5         6     9        0.000000        0.576829         3    ;  uncertainty k = 0.273543
         2         4         5         6     9      180.000000        1.217110         4    ;  uncertainty k = 0.267255
         2         4         5        12     9        0.000000        0.081448         1    ;  uncertainty k = 0.564893
         2         4         5        12     9      180.000000        7.693305         2    ;  uncertainty k = 0.603828
         2         4         5        12     9        0.000000        1.289460         3    ;  uncertainty k = 0.327258
         2         4         5        12     9      180.000000        1.316354         4    ;  uncertainty k = 0.320682
         2         4         7         3     9        0.000000       -0.176799         1    ;  uncertainty k = 0.816836
         2         4         7         3     9      180.000000        7.948825         2    ;  uncertainty k = 0.463404
         2         4         7         3     9        0.000000        0.459502         3    ;  uncertainty k = 0.423749
         2         4         7         3     9      180.000000        1.398840         4    ;  uncertainty k = 0.228423
         2         4         7        11     9        0.000000       -0.356972         1    ;  uncertainty k = 0.526881
         2         4         7        11     9      180.000000       10.107646         2    ;  uncertainty k = 0.467447
         2         4         7        11     9        0.000000       -0.597602         3    ;  uncertainty k = 0.826584
         2         4         7        11     9      180.000000        1.350232         4    ;  uncertainty k = 0.243560
         3         7         4         5     9        0.000000       -0.413186         1    ;  uncertainty k = 0.522614
         3         7         4         5     9      180.000000        8.385509         2    ;  uncertainty k = 0.744687
         3         7         4         5     9        0.000000        0.102322         3    ;  uncertainty k = 0.110587
         3         7         4         5     9      180.000000        1.200132         4    ;  uncertainty k = 0.246726
         3        10         6         5     9        0.000000        0.208590         1    ;  uncertainty k = 0.394723
         3        10         6         5     9      180.000000       13.469351         2    ;  uncertainty k = 0.107582
         3        10         6         5     9        0.000000        1.053566         3    ;  uncertainty k = 0.582690
         3        10         6         5     9      180.000000        1.316363         4    ;  uncertainty k = 0.280578
         3        10         6        22     9        0.000000        0.392802         1    ;  uncertainty k = 0.307760
         3        10         6        22     9      180.000000       13.819319         2    ;  uncertainty k = 0.400371
         3        10         6        22     9        0.000000        2.178342         3    ;  uncertainty k = 0.456587
         3        10         6        22     9      180.000000        1.475511         4    ;  uncertainty k = 0.350536
         4         2         1         8     9        0.000000        0.309703         1    ;  uncertainty k = 0.538715
         4         2         1         8     9      180.000000       14.656671         2    ;  uncertainty k = 0.320654
         4         2         1         8     9        0.000000        1.953328         3    ;  uncertainty k = 0.524691
         4         2         1         8     9      180.000000        1.137824         4    ;  uncertainty k = 0.180838
         4         2         1        11     9        0.000000       -0.247464         1    ;  uncertainty k = 0.386391
         4         2         1        11     9      180.000000       18.725638         2    ;  uncertainty k = 0.406897
         4         2         1        11     9        0.000000       -1.179776         3    ;  uncertainty k = 1.061400
         4         2         1        11     9      180.000000        1.042688         4    ;  uncertainty k = 0.585678
         4         5         6        10     9        0.000000       -0.189157         1    ;  uncertainty k = 0.811694
         4         5         6        10     9      180.000000       11.879201         2    ;  uncertainty k = 0.389927
         4         5         6        10     9        0.000000        0.172300         3    ;  uncertainty k = 0.427229
         4         5         6        10     9      180.000000        1.222775         4    ;  uncertainty k = 0.172919
         4         5         6        22     9        0.000000        0.132764         1    ;  uncertainty k = 0.370899
         4         5         6        22     9      180.000000        6.226983         2    ;  uncertainty k = 0.500899
         4         5         6        22     9        0.000000        1.370120         3    ;  uncertainty k = 0.441263
         4         5         6        22     9      180.000000        1.557867         4    ;  uncertainty k = 0.147018
         4         5        12        13     9        0.000000        4.367786         1    ;  uncertainty k = 0.846152
         4         5        12        13     9      180.000000        4.982716         2    ;  uncertainty k = 0.462763
         4         5        12        13     9        0.000000        0.424300         3    ;  uncertainty k = 0.167589
         4         5        12        13     9      180.000000        0.155061         4    ;  uncertainty k = 0.087249
         4         7         3        10     9        0.000000       -0.324689         1    ;  uncertainty k = 1.009578
         4         7         3        10     9      180.000000       12.861253         2    ;  uncertainty k = 0.313785
         4         7         3        10     9        0.000000       -1.117030         3    ;  uncertainty k = 0.617580
         4         7         3        10     9      180.000000        0.673748         4    ;  uncertainty k = 0.381281
         4         7         3        21     9        0.000000       -0.375269         1    ;  uncertainty k = 0.668727
         4         7         3        21     9      180.000000        5.341513         2    ;  uncertainty k = 0.590642
         4         7         3        21     9        0.000000        1.194783         3    ;  uncertainty k = 0.204299
         4         7         3        21     9      180.000000        1.069253         4    ;  uncertainty k = 0.233902
         5         4         2        20     9        0.000000        0.255938         1    ;  uncertainty k = 1.476911
         5         4         2        20     9      180.000000        4.743272         2    ;  uncertainty k = 0.878960
         5         4         2        20     9        0.000000        1.021502         3    ;  uncertainty k = 0.357018
         5         4         2        20     9      180.000000        0.093538         4    ;  uncertainty k = 0.074793
         5         4         7        11     9        0.000000        0.512869         1    ;  uncertainty k = 0.300416
         5         4         7        11     9      180.000000        8.974779         2    ;  uncertainty k = 0.465590
         5         4         7        11     9        0.000000        0.249154         3    ;  uncertainty k = 0.510207
         5         4         7        11     9      180.000000        1.156834         4    ;  uncertainty k = 0.227325
         5        12        13        14     9        0.000000        3.998254         1    ;  uncertainty k = 0.449882
         5        12        13        14     9      180.000000        4.753534         2    ;  uncertainty k = 0.233881
         5        12        13        14     9        0.000000        0.581546         3    ;  uncertainty k = 0.096882
         5        12        13        14     9      180.000000        0.162418         4    ;  uncertainty k = 0.088808
         5        12        13        18     9        0.000000        3.998254         1    ;  uncertainty k = 0.449882
         5        12        13        18     9      180.000000        4.753534         2    ;  uncertainty k = 0.233881
         5        12        13        18     9        0.000000        0.581546         3    ;  uncertainty k = 0.096882
         5        12        13        18     9      180.000000        0.162418         4    ;  uncertainty k = 0.088808
         6         5         4         7     9        0.000000       -0.075265         1    ;  uncertainty k = 0.275421
         6         5         4         7     9      180.000000        9.325288         2    ;  uncertainty k = 0.673099
         6         5         4         7     9        0.000000       -0.733917         3    ;  uncertainty k = 0.334462
         6         5         4         7     9      180.000000        0.949845         4    ;  uncertainty k = 0.179694
         6         5        12        13     9        0.000000        6.138326         1    ;  uncertainty k = 0.435754
         6         5        12        13     9      180.000000        4.387479         2    ;  uncertainty k = 0.390465
         6         5        12        13     9        0.000000        0.256709         3    ;  uncertainty k = 0.089021
         6         5        12        13     9      180.000000        0.147301         4    ;  uncertainty k = 0.081252
         6        10         3         7     9        0.000000       -0.521169         1    ;  uncertainty k = 0.850430
         6        10         3         7     9      180.000000       18.841838         2    ;  uncertainty k = 0.447047
         6        10         3         7     9        0.000000        1.067789         3    ;  uncertainty k = 0.487816
         6        10         3         7     9      180.000000        1.367360         4    ;  uncertainty k = 0.276274
         6        10         3        21     9        0.000000        0.132352         1    ;  uncertainty k = 0.093410
         6        10         3        21     9      180.000000       16.283310         2    ;  uncertainty k = 0.432587
         6        10         3        21     9        0.000000        2.340011         3    ;  uncertainty k = 0.313580
         6        10         3        21     9      180.000000        1.567589         4    ;  uncertainty k = 0.357860
         7         4         2        20     9        0.000000       -0.029216         1    ;  uncertainty k = 0.871094
         7         4         2        20     9      180.000000        8.056666         2    ;  uncertainty k = 0.546964
         7         4         2        20     9        0.000000        0.973597         3    ;  uncertainty k = 0.632752
         7         4         2        20     9      180.000000        0.362125         4    ;  uncertainty k = 0.248012
         7         4         5        12     9        0.000000       -0.081501         1    ;  uncertainty k = 0.450033
         7         4         5        12     9      180.000000        9.825963         2    ;  uncertainty k = 0.440005
         7         4         5        12     9        0.000000        1.234805         3    ;  uncertainty k = 0.234538
         7         4         5        12     9      180.000000        1.269738         4    ;  uncertainty k = 0.384001
         7        11         1         8     9        0.000000       -0.235351         1    ;  uncertainty k = 1.100736
         7        11         1         8     9      180.000000        7.753666         2    ;  uncertainty k = 0.604273
         7        11         1         8     9        0.000000        1.010835         3    ;  uncertainty k = 0.979209
         7        11         1         8     9      180.000000        0.423729         4    ;  uncertainty k = 0.507191
         8         1         2        20     9        0.000000       -0.024208         1    ;  uncertainty k = 0.560096
         8         1         2        20     9      180.000000       10.171729         2    ;  uncertainty k = 0.372579
         8         1         2        20     9        0.000000        1.445890         3    ;  uncertainty k = 0.256640
         8         1         2        20     9      180.000000        0.779685         4    ;  uncertainty k = 0.255315
         8        28        29        30     9        0.000000       51.316626         1    ;  uncertainty k = 0.455751
         8        28        29        30     9      180.000000        2.992476         2    ;  uncertainty k = 3.978207
         8        28        29        30     9        0.000000       -8.179053         3    ;  uncertainty k = 0.530123
         8        28        29        30     9      180.000000        5.027369         4    ;  uncertainty k = 0.397271
         8        28        29        31     9        0.000000       -1.635159         1    ;  uncertainty k = 2.197495
         8        28        29        31     9      180.000000       -2.227016         2    ;  uncertainty k = 1.422960
         8        28        29        31     9        0.000000        0.444313         3    ;  uncertainty k = 0.452702
         8        28        29        31     9      180.000000       -0.815951         4    ;  uncertainty k = 0.154717
         8        28        29        32     9        0.000000       -1.635159         1    ;  uncertainty k = 2.197495
         8        28        29        32     9      180.000000       -2.227016         2    ;  uncertainty k = 1.422960
         8        28        29        32     9        0.000000        0.444313         3    ;  uncertainty k = 0.452702
         8        28        29        32     9      180.000000       -0.815951         4    ;  uncertainty k = 0.154717
         8        28        30        29     9        0.000000       51.316626         1    ;  uncertainty k = 0.455751
         8        28        30        29     9      180.000000        2.992476         2    ;  uncertainty k = 3.978207
         8        28        30        29     9        0.000000       -8.179053         3    ;  uncertainty k = 0.530123
         8        28        30        29     9      180.000000        5.027369         4    ;  uncertainty k = 0.397271
         8        28        30        33     9        0.000000       -1.635159         1    ;  uncertainty k = 2.197495
         8        28        30        33     9      180.000000       -2.227016         2    ;  uncertainty k = 1.422960
         8        28        30        33     9        0.000000        0.444313         3    ;  uncertainty k = 0.452702
         8        28        30        33     9      180.000000       -0.815951         4    ;  uncertainty k = 0.154717
         8        28        30        34     9        0.000000       -1.635159         1    ;  uncertainty k = 2.197495
         8        28        30        34     9      180.000000       -2.227016         2    ;  uncertainty k = 1.422960
         8        28        30        34     9        0.000000        0.444313         3    ;  uncertainty k = 0.452702
         8        28        30        34     9      180.000000       -0.815951         4    ;  uncertainty k = 0.154717
         9         8         1        11     9        0.000000       -1.921737         1    ;  uncertainty k = 1.110450
         9         8         1        11     9      180.000000        8.407141         2    ;  uncertainty k = 0.384984
         9         8         1        11     9        0.000000        0.200000         3    ;  uncertainty k = 0.344759
         9         8         1        11     9      180.000000       -0.160139         4    ;  uncertainty k = 0.130112
         9         8        28        27     9        0.000000        0.304310         1    ;  uncertainty k = 0.623379
         9         8        28        27     9      180.000000        5.435088         2    ;  uncertainty k = 0.312569
         9         8        28        27     9        0.000000        1.052262         3    ;  uncertainty k = 0.343798
         9         8        28        27     9      180.000000        0.337411         4    ;  uncertainty k = 0.122268
         9         8        28        29     9        0.000000        0.514817         1    ;  uncertainty k = 0.575463
         9         8        28        29     9      180.000000        3.915654         2    ;  uncertainty k = 0.322724
         9         8        28        29     9        0.000000        0.392845         3    ;  uncertainty k = 0.287557
         9         8        28        29     9      180.000000        0.400795         4    ;  uncertainty k = 0.070328
         9         8        28        30     9        0.000000        0.514817         1    ;  uncertainty k = 0.575463
         9         8        28        30     9      180.000000        3.915654         2    ;  uncertainty k = 0.322724
         9         8        28        30     9        0.000000        0.392845         3    ;  uncertainty k = 0.287557
         9         8        28        30     9      180.000000        0.400795         4    ;  uncertainty k = 0.070328
        10         3         7        11     9        0.000000        0.007969         1    ;  uncertainty k = 0.591907
        10         3         7        11     9      180.000000        7.862833         2    ;  uncertainty k = 0.518822
        10         3         7        11     9        0.000000        0.808392         3    ;  uncertainty k = 0.165144
        10         3         7        11     9      180.000000        1.281806         4    ;  uncertainty k = 0.444481
        10         6         5        12     9        0.000000        0.068728         1    ;  uncertainty k = 0.446029
        10         6         5        12     9      180.000000       12.021990         2    ;  uncertainty k = 0.403082
        10         6         5        12     9        0.000000        1.220735         3    ;  uncertainty k = 0.295039
        10         6         5        12     9      180.000000        1.602285         4    ;  uncertainty k = 0.190173
        11         1         2        20     9        0.000000        0.241954         1    ;  uncertainty k = 0.560464
        11         1         2        20     9      180.000000       12.536071         2    ;  uncertainty k = 0.702848
        11         1         2        20     9        0.000000        1.863729         3    ;  uncertainty k = 0.231668
        11         1         2        20     9      180.000000        1.259282         4    ;  uncertainty k = 0.267607
        11         1         8        28     9        0.000000        1.434643         1    ;  uncertainty k = 1.676230
        11         1         8        28     9      180.000000        4.223513         2    ;  uncertainty k = 0.209684
        11         1         8        28     9        0.000000        0.553979         3    ;  uncertainty k = 0.148793
        11         1         8        28     9      180.000000        0.079622         4    ;  uncertainty k = 0.122617
        11         7         3        21     9        0.000000       -0.095022         1    ;  uncertainty k = 0.545715
        11         7         3        21     9      180.000000        4.381417         2    ;  uncertainty k = 0.361810
        11         7         3        21     9        0.000000        0.726318         3    ;  uncertainty k = 0.431698
        11         7         3        21     9      180.000000        0.627519         4    ;  uncertainty k = 0.244721
        12         5         6        22     9        0.000000        0.012840         1    ;  uncertainty k = 0.273784
        12         5         6        22     9      180.000000        8.121104         2    ;  uncertainty k = 0.435011
        12         5         6        22     9        0.000000        0.875853         3    ;  uncertainty k = 0.228471
        12         5         6        22     9      180.000000        1.171043         4    ;  uncertainty k = 0.270200
        12        13        14        15     9        0.000000        0.012940         1    ;  uncertainty k = 0.228359
        12        13        14        15     9      180.000000       10.340595         2    ;  uncertainty k = 0.588374
        12        13        14        15     9        0.000000        1.386508         3    ;  uncertainty k = 0.278635
        12        13        14        15     9      180.000000        1.718833         4    ;  uncertainty k = 0.162981
        12        13        14        23     9        0.000000       -0.088836         1    ;  uncertainty k = 0.068913
        12        13        14        23     9      180.000000        8.191003         2    ;  uncertainty k = 0.225194
        12        13        14        23     9        0.000000        0.860883         3    ;  uncertainty k = 0.288123
        12        13        14        23     9      180.000000        1.121587         4    ;  uncertainty k = 0.126904
        12        13        18        17     9        0.000000        0.012940         1    ;  uncertainty k = 0.228359
        12        13        18        17     9      180.000000       10.340595         2    ;  uncertainty k = 0.588374
        12        13        18        17     9        0.000000        1.386508         3    ;  uncertainty k = 0.278635
        12        13        18        17     9      180.000000        1.718833         4    ;  uncertainty k = 0.162981
        12        13        18        26     9        0.000000       -0.088836         1    ;  uncertainty k = 0.068913
        12        13        18        26     9      180.000000        8.191003         2    ;  uncertainty k = 0.225194
        12        13        18        26     9        0.000000        0.860883         3    ;  uncertainty k = 0.288123
        12        13        18        26     9      180.000000        1.121587         4    ;  uncertainty k = 0.126904
        13        14        15        16     9        0.000000       -0.084812         1    ;  uncertainty k = 0.199187
        13        14        15        16     9      180.000000       14.596956         2    ;  uncertainty k = 0.244288
        13        14        15        16     9        0.000000       -0.776642         3    ;  uncertainty k = 0.624211
        13        14        15        16     9      180.000000        0.848971         4    ;  uncertainty k = 0.330797
        13        14        15        24     9        0.000000       -0.006201         1    ;  uncertainty k = 0.224829
        13        14        15        24     9      180.000000        7.941388         2    ;  uncertainty k = 0.233372
        13        14        15        24     9        0.000000        1.341388         3    ;  uncertainty k = 0.226117
        13        14        15        24     9      180.000000        1.800227         4    ;  uncertainty k = 0.150458
        13        18        17        16     9        0.000000       -0.084812         1    ;  uncertainty k = 0.199187
        13        18        17        16     9      180.000000       14.596956         2    ;  uncertainty k = 0.244288
        13        18        17        16     9        0.000000       -0.776642         3    ;  uncertainty k = 0.624211
        13        18        17        16     9      180.000000        0.848971         4    ;  uncertainty k = 0.330797
        13        18        17        25     9        0.000000       -0.006201         1    ;  uncertainty k = 0.224829
        13        18        17        25     9      180.000000        7.941388         2    ;  uncertainty k = 0.233372
        13        18        17        25     9        0.000000        1.341388         3    ;  uncertainty k = 0.226117
        13        18        17        25     9      180.000000        1.800227         4    ;  uncertainty k = 0.150458
        14        13        18        17     9        0.000000        0.021859         1    ;  uncertainty k = 0.058100
        14        13        18        17     9      180.000000        9.563230         2    ;  uncertainty k = 0.533115
        14        13        18        17     9        0.000000       -0.148114         3    ;  uncertainty k = 0.376128
        14        13        18        17     9      180.000000        1.132526         4    ;  uncertainty k = 0.362724
        14        13        18        26     9        0.000000        0.225608         1    ;  uncertainty k = 0.250641
        14        13        18        26     9      180.000000        6.088909         2    ;  uncertainty k = 0.717074
        14        13        18        26     9        0.000000        1.425839         3    ;  uncertainty k = 0.391710
        14        13        18        26     9      180.000000        1.548148         4    ;  uncertainty k = 0.166724
        14        15        16        17     9        0.000000       -0.072057         1    ;  uncertainty k = 0.151933
        14        15        16        17     9      180.000000       10.503747         2    ;  uncertainty k = 0.409738
        14        15        16        17     9        0.000000       -0.388981         3    ;  uncertainty k = 0.497522
        14        15        16        17     9      180.000000        0.994175         4    ;  uncertainty k = 0.364995
        14        15        16        19     9        0.000000       -0.046877         1    ;  uncertainty k = 0.158967
        14        15        16        19     9      180.000000        9.185201         2    ;  uncertainty k = 0.550764
        14        15        16        19     9        0.000000        1.540013         3    ;  uncertainty k = 0.421444
        14        15        16        19     9      180.000000        1.637278         4    ;  uncertainty k = 0.144228
        15        14        13        18     9        0.000000        0.021859         1    ;  uncertainty k = 0.058100
        15        14        13        18     9      180.000000        9.563230         2    ;  uncertainty k = 0.533115
        15        14        13        18     9        0.000000       -0.148114         3    ;  uncertainty k = 0.376128
        15        14        13        18     9      180.000000        1.132526         4    ;  uncertainty k = 0.362724
        15        16        17        18     9        0.000000       -0.072057         1    ;  uncertainty k = 0.151933
        15        16        17        18     9      180.000000       10.503747         2    ;  uncertainty k = 0.409738
        15        16        17        18     9        0.000000       -0.388981         3    ;  uncertainty k = 0.497522
        15        16        17        18     9      180.000000        0.994175         4    ;  uncertainty k = 0.364995
        15        16        17        25     9        0.000000       -0.010357         1    ;  uncertainty k = 0.158180
        15        16        17        25     9      180.000000        6.039204         2    ;  uncertainty k = 0.577702
        15        16        17        25     9        0.000000        1.377794         3    ;  uncertainty k = 0.357667
        15        16        17        25     9      180.000000        1.517206         4    ;  uncertainty k = 0.203459
        16        15        14        23     9        0.000000        0.090333         1    ;  uncertainty k = 0.111265
        16        15        14        23     9      180.000000        7.948741         2    ;  uncertainty k = 0.316292
        16        15        14        23     9        0.000000        1.466779         3    ;  uncertainty k = 0.281186
        16        15        14        23     9      180.000000        1.885531         4    ;  uncertainty k = 0.162729
        16        17        18        26     9        0.000000        0.090333         1    ;  uncertainty k = 0.111265
        16        17        18        26     9      180.000000        7.948741         2    ;  uncertainty k = 0.316292
        16        17        18        26     9        0.000000        1.466779         3    ;  uncertainty k = 0.281186
        16        17        18        26     9      180.000000        1.885531         4    ;  uncertainty k = 0.162729
        17        16        15        24     9        0.000000       -0.010357         1    ;  uncertainty k = 0.158180
        17        16        15        24     9      180.000000        6.039204         2    ;  uncertainty k = 0.577702
        17        16        15        24     9        0.000000        1.377794         3    ;  uncertainty k = 0.357667
        17        16        15        24     9      180.000000        1.517206         4    ;  uncertainty k = 0.203459
        18        13        14        23     9        0.000000        0.225608         1    ;  uncertainty k = 0.250641
        18        13        14        23     9      180.000000        6.088909         2    ;  uncertainty k = 0.717074
        18        13        14        23     9        0.000000        1.425839         3    ;  uncertainty k = 0.391710
        18        13        14        23     9      180.000000        1.548148         4    ;  uncertainty k = 0.166724
        18        17        16        19     9        0.000000       -0.046877         1    ;  uncertainty k = 0.158967
        18        17        16        19     9      180.000000        9.185201         2    ;  uncertainty k = 0.550764
        18        17        16        19     9        0.000000        1.540013         3    ;  uncertainty k = 0.421444
        18        17        16        19     9      180.000000        1.637278         4    ;  uncertainty k = 0.144228
        19        16        15        24     9        0.000000       -0.189172         1    ;  uncertainty k = 0.151100
        19        16        15        24     9      180.000000        7.284958         2    ;  uncertainty k = 0.254965
        19        16        15        24     9        0.000000        0.631882         3    ;  uncertainty k = 0.368223
        19        16        15        24     9      180.000000        0.954031         4    ;  uncertainty k = 0.182884
        19        16        17        25     9        0.000000       -0.189172         1    ;  uncertainty k = 0.151100
        19        16        17        25     9      180.000000        7.284958         2    ;  uncertainty k = 0.254965
        19        16        17        25     9        0.000000        0.631882         3    ;  uncertainty k = 0.368223
        19        16        17        25     9      180.000000        0.954031         4    ;  uncertainty k = 0.182884
        23        14        15        24     9        0.000000       -0.093943         1    ;  uncertainty k = 0.178369
        23        14        15        24     9      180.000000        7.626056         2    ;  uncertainty k = 0.397032
        23        14        15        24     9        0.000000       -0.417074         3    ;  uncertainty k = 0.239577
        23        14        15        24     9      180.000000        0.127936         4    ;  uncertainty k = 0.124753
        25        17        18        26     9        0.000000       -0.093943         1    ;  uncertainty k = 0.178369
        25        17        18        26     9      180.000000        7.626056         2    ;  uncertainty k = 0.397032
        25        17        18        26     9        0.000000       -0.417074         3    ;  uncertainty k = 0.239577
        25        17        18        26     9      180.000000        0.127936         4    ;  uncertainty k = 0.124753
        27        28        29        30     9        0.000000       48.423587         1    ;  uncertainty k = 0.285676
        27        28        29        30     9      180.000000       -0.892906         2    ;  uncertainty k = 2.204556
        27        28        29        30     9        0.000000      -10.582766         3    ;  uncertainty k = 0.700895
        27        28        29        30     9      180.000000        5.842082         4    ;  uncertainty k = 0.256646
        27        28        29        31     9        0.000000        0.030685         1    ;  uncertainty k = 0.810534
        27        28        29        31     9      180.000000       -1.007238         2    ;  uncertainty k = 1.111283
        27        28        29        31     9        0.000000        0.790354         3    ;  uncertainty k = 0.212790
        27        28        29        31     9      180.000000       -0.862580         4    ;  uncertainty k = 0.137399
        27        28        29        32     9        0.000000        0.030685         1    ;  uncertainty k = 0.810534
        27        28        29        32     9      180.000000       -1.007238         2    ;  uncertainty k = 1.111283
        27        28        29        32     9        0.000000        0.790354         3    ;  uncertainty k = 0.212790
        27        28        29        32     9      180.000000       -0.862580         4    ;  uncertainty k = 0.137399
        27        28        30        29     9        0.000000       48.423587         1    ;  uncertainty k = 0.285676
        27        28        30        29     9      180.000000       -0.892906         2    ;  uncertainty k = 2.204556
        27        28        30        29     9        0.000000      -10.582766         3    ;  uncertainty k = 0.700895
        27        28        30        29     9      180.000000        5.842082         4    ;  uncertainty k = 0.256646
        27        28        30        33     9        0.000000        0.030685         1    ;  uncertainty k = 0.810534
        27        28        30        33     9      180.000000       -1.007238         2    ;  uncertainty k = 1.111283
        27        28        30        33     9        0.000000        0.790354         3    ;  uncertainty k = 0.212790
        27        28        30        33     9      180.000000       -0.862580         4    ;  uncertainty k = 0.137399
        27        28        30        34     9        0.000000        0.030685         1    ;  uncertainty k = 0.810534
        27        28        30        34     9      180.000000       -1.007238         2    ;  uncertainty k = 1.111283
        27        28        30        34     9        0.000000        0.790354         3    ;  uncertainty k = 0.212790
        27        28        30        34     9      180.000000       -0.862580         4    ;  uncertainty k = 0.137399
        28        29        30        33     9        0.000000       40.662093         1    ;  uncertainty k = 0.392314
        28        29        30        33     9      180.000000       -5.494806         2    ;  uncertainty k = 1.804009
        28        29        30        33     9        0.000000       -9.433530         3    ;  uncertainty k = 1.021116
        28        29        30        33     9      180.000000        4.260117         4    ;  uncertainty k = 0.310376
        28        29        30        34     9        0.000000       40.662093         1    ;  uncertainty k = 0.392314
        28        29        30        34     9      180.000000       -5.494806         2    ;  uncertainty k = 1.804009
        28        29        30        34     9        0.000000       -9.433530         3    ;  uncertainty k = 1.021116
        28        29        30        34     9      180.000000        4.260117         4    ;  uncertainty k = 0.310376
        28        30        29        31     9        0.000000       40.662093         1    ;  uncertainty k = 0.392314
        28        30        29        31     9      180.000000       -5.494806         2    ;  uncertainty k = 1.804009
        28        30        29        31     9        0.000000       -9.433530         3    ;  uncertainty k = 1.021116
        28        30        29        31     9      180.000000        4.260117         4    ;  uncertainty k = 0.310376
        28        30        29        32     9        0.000000       40.662093         1    ;  uncertainty k = 0.392314
        28        30        29        32     9      180.000000       -5.494806         2    ;  uncertainty k = 1.804009
        28        30        29        32     9        0.000000       -9.433530         3    ;  uncertainty k = 1.021116
        28        30        29        32     9      180.000000        4.260117         4    ;  uncertainty k = 0.310376
        29        28        30        33     9        0.000000       42.118761         1    ;  uncertainty k = 0.313213
        29        28        30        33     9      180.000000       -5.119861         2    ;  uncertainty k = 1.259798
        29        28        30        33     9        0.000000      -10.013506         3    ;  uncertainty k = 0.598181
        29        28        30        33     9      180.000000        4.630315         4    ;  uncertainty k = 0.302043
        29        28        30        34     9        0.000000       42.118761         1    ;  uncertainty k = 0.313213
        29        28        30        34     9      180.000000       -5.119861         2    ;  uncertainty k = 1.259798
        29        28        30        34     9        0.000000      -10.013506         3    ;  uncertainty k = 0.598181
        29        28        30        34     9      180.000000        4.630315         4    ;  uncertainty k = 0.302043
        30        28        29        31     9        0.000000       42.118761         1    ;  uncertainty k = 0.313213
        30        28        29        31     9      180.000000       -5.119861         2    ;  uncertainty k = 1.259798
        30        28        29        31     9        0.000000      -10.013506         3    ;  uncertainty k = 0.598181
        30        28        29        31     9      180.000000        4.630314         4    ;  uncertainty k = 0.302043
        30        28        29        32     9        0.000000       42.118761         1    ;  uncertainty k = 0.313213
        30        28        29        32     9      180.000000       -5.119861         2    ;  uncertainty k = 1.259798
        30        28        29        32     9        0.000000      -10.013506         3    ;  uncertainty k = 0.598181
        30        28        29        32     9      180.000000        4.630314         4    ;  uncertainty k = 0.302043
        31        29        30        33     9        0.000000        0.193724         1    ;  uncertainty k = 0.598596
        31        29        30        33     9      180.000000       -0.043234         2    ;  uncertainty k = 1.171873
        31        29        30        33     9        0.000000        1.032881         3    ;  uncertainty k = 0.327893
        31        29        30        33     9      180.000000       -0.759783         4    ;  uncertainty k = 0.163861
        31        29        30        34     9        0.000000        0.193724         1    ;  uncertainty k = 0.598596
        31        29        30        34     9      180.000000       -0.043234         2    ;  uncertainty k = 1.171873
        31        29        30        34     9        0.000000        1.032881         3    ;  uncertainty k = 0.327893
        31        29        30        34     9      180.000000       -0.759783         4    ;  uncertainty k = 0.163861
        32        29        30        33     9        0.000000        0.193724         1    ;  uncertainty k = 0.598596
        32        29        30        33     9      180.000000       -0.043234         2    ;  uncertainty k = 1.171873
        32        29        30        33     9        0.000000        1.032881         3    ;  uncertainty k = 0.327893
        32        29        30        33     9      180.000000       -0.759783         4    ;  uncertainty k = 0.163861
        32        29        30        34     9        0.000000        0.193724         1    ;  uncertainty k = 0.598596
        32        29        30        34     9      180.000000       -0.043234         2    ;  uncertainty k = 1.171873
        32        29        30        34     9        0.000000        1.032881         3    ;  uncertainty k = 0.327893
        32        29        30        34     9      180.000000       -0.759783         4    ;  uncertainty k = 0.163861

[ dihedrals ] ; impropers
;       ai        aj        ak        al funct           phase               k        pn
         1         2         8        11     4      180.000000        2.376146         2    ;  uncertainty k = 0.394764
         1         8        11         2     4      180.000000        2.376146         2    ;  uncertainty k = 0.394764
         1        11         2         8     4      180.000000        2.376146         2    ;  uncertainty k = 0.394764
         2         1         4        20     4      180.000000        2.227064         2    ;  uncertainty k = 0.362080
         2         4        20         1     4      180.000000        2.227064         2    ;  uncertainty k = 0.362080
         2        20         1         4     4      180.000000        2.227064         2    ;  uncertainty k = 0.362080
         3         7        10        21     4      180.000000       13.046376         2    ;  uncertainty k = 0.089622
         3        10        21         7     4      180.000000       13.046376         2    ;  uncertainty k = 0.089622
         3        21         7        10     4      180.000000       13.046376         2    ;  uncertainty k = 0.089622
         4         2         5         7     4      180.000000        1.804582         2    ;  uncertainty k = 0.660076
         4         5         7         2     4      180.000000        1.804582         2    ;  uncertainty k = 0.660076
         4         7         2         5     4      180.000000        1.804582         2    ;  uncertainty k = 0.660076
         5         4         6        12     4      180.000000       15.532376         2    ;  uncertainty k = 0.118863
         5         6        12         4     4      180.000000       15.532376         2    ;  uncertainty k = 0.118863
         5        12         4         6     4      180.000000       15.532376         2    ;  uncertainty k = 0.118863
         6         5        10        22     4      180.000000        9.523657         2    ;  uncertainty k = 0.155815
         6        10        22         5     4      180.000000        9.523657         2    ;  uncertainty k = 0.155815
         6        22         5        10     4      180.000000        9.523657         2    ;  uncertainty k = 0.155815
         7         3         4        11     4      180.000000        1.025619         2    ;  uncertainty k = 0.718927
         7         4        11         3     4      180.000000        1.025619         2    ;  uncertainty k = 0.718927
         7        11         3         4     4      180.000000        1.025619         2    ;  uncertainty k = 0.718927
         8         1         9        28     4      180.000000       54.490227         2    ;  uncertainty k = 0.029521
         8         9        28         1     4      180.000000       54.490227         2    ;  uncertainty k = 0.029521
         8        28         1         9     4      180.000000       54.490227         2    ;  uncertainty k = 0.029521
        13        12        14        18     4      180.000000       17.409305         2    ;  uncertainty k = 0.054636
        13        14        18        12     4      180.000000       17.409305         2    ;  uncertainty k = 0.054636
        13        18        12        14     4      180.000000       17.409305         2    ;  uncertainty k = 0.054636
        14        13        15        23     4      180.000000        3.008016         2    ;  uncertainty k = 0.105490
        14        15        23        13     4      180.000000        3.008016         2    ;  uncertainty k = 0.105490
        14        23        13        15     4      180.000000        3.008016         2    ;  uncertainty k = 0.105490
        15        14        16        24     4      180.000000        3.865517         2    ;  uncertainty k = 0.182529
        15        16        24        14     4      180.000000        3.865517         2    ;  uncertainty k = 0.182529
        15        24        14        16     4      180.000000        3.865517         2    ;  uncertainty k = 0.182529
        16        15        17        19     4      180.000000       12.038020         2    ;  uncertainty k = 0.044617
        16        17        19        15     4      180.000000       12.038020         2    ;  uncertainty k = 0.044617
        16        19        15        17     4      180.000000       12.038020         2    ;  uncertainty k = 0.044617
        17        16        18        25     4      180.000000        3.865515         2    ;  uncertainty k = 0.182529
        17        18        25        16     4      180.000000        3.865515         2    ;  uncertainty k = 0.182529
        17        25        16        18     4      180.000000        3.865515         2    ;  uncertainty k = 0.182529
        18        13        17        26     4      180.000000        3.008017         2    ;  uncertainty k = 0.105491
        18        17        26        13     4      180.000000        3.008017         2    ;  uncertainty k = 0.105491
        18        26        13        17     4      180.000000        3.008017         2    ;  uncertainty k = 0.105491

[ pairs ]
;       ai        aj funct
         1         3     1
         1         5     1
         1        27     1
         1        29     1
         1        30     1
         2         3     1
         2         6     1
         2         9     1
         2        12     1
         2        28     1
         3         5     1
         3        22     1
         4         8     1
         4        10     1
         4        13     1
         4        21     1
         4        22     1
         5        11     1
         5        14     1
         5        18     1
         5        20     1
         6         7     1
         6        13     1
         6        21     1
         7         8     1
         7        12     1
         7        20     1
         8        20     1
         8        31     1
         8        32     1
         8        33     1
         8        34     1
         9        11     1
         9        27     1
         9        29     1
         9        30     1
        10        11     1
        10        12     1
        11        20     1
        11        21     1
        11        28     1
        12        15     1
        12        17     1
        12        22     1
        12        23     1
        12        26     1
        13        16     1
        13        24     1
        13        25     1
        14        17     1
        14        19     1
        14        26     1
        15        18     1
        15        25     1
        16        23     1
        16        26     1
        17        24     1
        18        19     1
        18        23     1
        19        24     1
        19        25     1
        23        24     1
        25        26     1
        27        31     1
        27        32     1
        27        33     1
        27        34     1
        31        33     1
        31        34     1
        32        33     1
        32        34     1
