; ITP file created by ByteFF-joint-25, 2025-07-14 11:36:09.039450

[ atomtypes ]
;name           bonded.type        at.num        mass        charge   ptype           sigma         epsilon
 c0bf                                   6      0.0000       0.00000       A     3.31534e-01     4.12199e-01    ;  uncertainty sigma = 0.000014, epsilon = 0.000899
 c1bf                                   6      0.0000       0.00000       A     3.31552e-01     4.12572e-01    ;  uncertainty sigma = 0.000009, epsilon = 0.001233
 c2bf                                   6      0.0000       0.00000       A     3.31539e-01     4.13533e-01    ;  uncertainty sigma = 0.000013, epsilon = 0.000944
 c3bf                                   6      0.0000       0.00000       A     3.31550e-01     4.13792e-01    ;  uncertainty sigma = 0.000006, epsilon = 0.000295
 c4bf                                   6      0.0000       0.00000       A     3.31519e-01     4.13403e-01    ;  uncertainty sigma = 0.000024, epsilon = 0.000623
 c5bf                                   6      0.0000       0.00000       A     3.31498e-01     4.12877e-01    ;  uncertainty sigma = 0.000005, epsilon = 0.000808
 c6bf                                   6      0.0000       0.00000       A     3.31542e-01     4.13439e-01    ;  uncertainty sigma = 0.000012, epsilon = 0.000778
 n7bf                                   7      0.0000       0.00000       A     3.26962e-01     4.90269e-01    ;  uncertainty sigma = 0.000036, epsilon = 0.002090
 c8bf                                   6      0.0000       0.00000       A     3.31515e-01     4.12851e-01    ;  uncertainty sigma = 0.000012, epsilon = 0.001170
 c9bf                                   6      0.0000       0.00000       A     3.39771e-01     4.51090e-01    ;  uncertainty sigma = 0.000011, epsilon = 0.000717
 o10bf                                  8      0.0000       0.00000       A     3.04830e-01     6.12071e-01    ;  uncertainty sigma = 0.000026, epsilon = 0.001133
 n11bf                                  7      0.0000       0.00000       A     3.38404e-01     3.93885e-01    ;  uncertainty sigma = 0.000020, epsilon = 0.001459
 s12bf                                 16      0.0000       0.00000       A     3.53274e-01     1.18127e+00    ;  uncertainty sigma = 0.000027, epsilon = 0.001624
 o13bf                                  8      0.0000       0.00000       A     3.15417e-01     3.02311e-01    ;  uncertainty sigma = 0.000023, epsilon = 0.001113
 c14bf                                  6      0.0000       0.00000       A     3.31508e-01     4.13662e-01    ;  uncertainty sigma = 0.000011, epsilon = 0.000799
 c15bf                                  6      0.0000       0.00000       A     3.31514e-01     4.13450e-01    ;  uncertainty sigma = 0.000003, epsilon = 0.000556
 c16bf                                  6      0.0000       0.00000       A     3.31521e-01     4.13447e-01    ;  uncertainty sigma = 0.000002, epsilon = 0.000438
 c17bf                                  6      0.0000       0.00000       A     3.31513e-01     4.12965e-01    ;  uncertainty sigma = 0.000009, epsilon = 0.001099
 c18bf                                  6      0.0000       0.00000       A     3.31521e-01     4.13447e-01    ;  uncertainty sigma = 0.000002, epsilon = 0.000438
 c19bf                                  6      0.0000       0.00000       A     3.31514e-01     4.13450e-01    ;  uncertainty sigma = 0.000003, epsilon = 0.000556
 i20bf                                 53      0.0000       0.00000       A     3.84197e-01     2.07241e+00    ;  uncertainty sigma = 0.000013, epsilon = 0.001892
 h21bf                                  1      0.0000       0.00000       A     2.62610e-01     6.70415e-02    ;  uncertainty sigma = 0.000018, epsilon = 0.000758
 h22bf                                  1      0.0000       0.00000       A     2.53593e-01     6.72766e-02    ;  uncertainty sigma = 0.000100, epsilon = 0.001112
 h23bf                                  1      0.0000       0.00000       A     2.53659e-01     6.69732e-02    ;  uncertainty sigma = 0.000032, epsilon = 0.000842
 h24bf                                  1      0.0000       0.00000       A     1.10703e-01     4.13688e-02    ;  uncertainty sigma = 0.000057, epsilon = 0.000703
 h25bf                                  1      0.0000       0.00000       A     2.42205e-01     8.66874e-02    ;  uncertainty sigma = 0.000013, epsilon = 0.000592
 h26bf                                  1      0.0000       0.00000       A     2.42205e-01     8.66874e-02    ;  uncertainty sigma = 0.000013, epsilon = 0.000592
 h27bf                                  1      0.0000       0.00000       A     2.42205e-01     8.66874e-02    ;  uncertainty sigma = 0.000013, epsilon = 0.000592
 h28bf                                  1      0.0000       0.00000       A     2.62557e-01     6.71066e-02    ;  uncertainty sigma = 0.000004, epsilon = 0.000436
 h29bf                                  1      0.0000       0.00000       A     2.62563e-01     6.70925e-02    ;  uncertainty sigma = 0.000009, epsilon = 0.000703
 h30bf                                  1      0.0000       0.00000       A     2.62563e-01     6.70925e-02    ;  uncertainty sigma = 0.000009, epsilon = 0.000703
 h31bf                                  1      0.0000       0.00000       A     2.62557e-01     6.71066e-02    ;  uncertainty sigma = 0.000004, epsilon = 0.000436

[ moleculetype ]
;name             nrexcl
 MOL                   3

[ atoms ]
;       nr            type      resi   res      atom      cgnr      charge          mass ; qtot
         1            c0bf         1   UNL        c0         1    -0.10877       12.0110 ; qtot   -0.109
         2            c1bf         1   UNL        c1         2    -0.05973       12.0110 ; qtot   -0.169
         3            c2bf         1   UNL        c2         3     0.42609       12.0110 ; qtot    0.258
         4            c3bf         1   UNL        c3         4    -0.06459       12.0110 ; qtot    0.193
         5            c4bf         1   UNL        c4         5     0.04064       12.0110 ; qtot    0.234
         6            c5bf         1   UNL        c5         6     0.35575       12.0110 ; qtot    0.589
         7            c6bf         1   UNL        c6         7    -0.13202       12.0110 ; qtot    0.457
         8            n7bf         1   UNL        n7         8    -0.56924       14.0070 ; qtot   -0.112
         9            c8bf         1   UNL        c8         9     0.69265       12.0110 ; qtot    0.581
        10            c9bf         1   UNL        c9        10     0.08670       12.0110 ; qtot    0.667
        11           o10bf         1   UNL       o10        11    -0.58852       15.9990 ; qtot    0.079
        12           n11bf         1   UNL       n11        12    -0.64087       14.0070 ; qtot   -0.562
        13           s12bf         1   UNL       s12        13    -0.02165       32.0670 ; qtot   -0.584
        14           o13bf         1   UNL       o13        14    -0.24201       15.9990 ; qtot   -0.826
        15           c14bf         1   UNL       c14        15     0.12431       12.0110 ; qtot   -0.701
        16           c15bf         1   UNL       c15        16    -0.15854       12.0110 ; qtot   -0.860
        17           c16bf         1   UNL       c16        17    -0.07749       12.0110 ; qtot   -0.937
        18           c17bf         1   UNL       c17        18     0.04725       12.0110 ; qtot   -0.890
        19           c18bf         1   UNL       c18        19    -0.07749       12.0110 ; qtot   -0.968
        20           c19bf         1   UNL       c19        20    -0.15854       12.0110 ; qtot   -1.126
        21           i20bf         1   UNL       i20        21    -0.17853      126.9040 ; qtot   -1.305
        22           h21bf         1   UNL       h21        22     0.17697        1.0080 ; qtot   -1.128
        23           h22bf         1   UNL       h22        23     0.03043        1.0080 ; qtot   -1.097
        24           h23bf         1   UNL       h23        24     0.03867        1.0080 ; qtot   -1.059
        25           h24bf         1   UNL       h24        25     0.31521        1.0080 ; qtot   -0.743
        26           h25bf         1   UNL       h25        26     0.04497        1.0080 ; qtot   -0.698
        27           h26bf         1   UNL       h26        27     0.04497        1.0080 ; qtot   -0.653
        28           h27bf         1   UNL       h27        28     0.04497        1.0080 ; qtot   -0.608
        29           h28bf         1   UNL       h28        29     0.15317        1.0080 ; qtot   -0.455
        30           h29bf         1   UNL       h29        30     0.15103        1.0080 ; qtot   -0.304
        31           h30bf         1   UNL       h30        31     0.15103        1.0080 ; qtot   -0.153
        32           h31bf         1   UNL       h31        32     0.15318        1.0080 ; qtot   -0.000

[ bonds ]
;       ai        aj funct               r               k
         1         2     1        0.136681   404875.393652    ;  uncertainty r = 0.000087, k = 2.966850
         1         9     1        0.148706   265979.847412    ;  uncertainty r = 0.000053, k = 16.749184
         1        13     1        0.175936   164998.813330    ;  uncertainty r = 0.000153, k = 15.168276
         2         4     1        0.143519   245838.116357    ;  uncertainty r = 0.000086, k = 13.337005
         2        22     1        0.108413   334749.086768    ;  uncertainty r = 0.000035, k = 1.448429
         3         7     1        0.139862   357185.020654    ;  uncertainty r = 0.000101, k = 8.409085
         3        12     1        0.132914   403937.670996    ;  uncertainty r = 0.000085, k = 3.484706
         3        23     1        0.108996   332692.021533    ;  uncertainty r = 0.000016, k = 2.312073
         4         5     1        0.140198   351630.878125    ;  uncertainty r = 0.000059, k = 7.105596
         4         7     1        0.141255   373665.113281    ;  uncertainty r = 0.000078, k = 14.753730
         5         6     1        0.138631   347797.783545    ;  uncertainty r = 0.000072, k = 10.298013
         5        14     1        0.137597   318910.792773    ;  uncertainty r = 0.000055, k = 12.405238
         6        12     1        0.134435   379665.874316    ;  uncertainty r = 0.000185, k = 8.749163
         6        24     1        0.108927   339756.581934    ;  uncertainty r = 0.000043, k = 5.117425
         7        13     1        0.175152   182493.763452    ;  uncertainty r = 0.000136, k = 10.777383
         8         9     1        0.137148   308776.799512    ;  uncertainty r = 0.000082, k = 17.117725
         8        10     1        0.145781   273648.820117    ;  uncertainty r = 0.000068, k = 8.492180
         8        25     1        0.101236   414002.050098    ;  uncertainty r = 0.000039, k = 5.933984
         9        11     1        0.123534   757086.730273    ;  uncertainty r = 0.000055, k = 12.311567
        10        26     1        0.109412   314263.192090    ;  uncertainty r = 0.000008, k = 2.276711
        10        27     1        0.109412   314263.192090    ;  uncertainty r = 0.000008, k = 2.276711
        10        28     1        0.109412   314263.192090    ;  uncertainty r = 0.000008, k = 2.276711
        14        15     1        0.138165   318682.031348    ;  uncertainty r = 0.000065, k = 8.110028
        15        16     1        0.139435   356665.927832    ;  uncertainty r = 0.000039, k = 1.858711
        15        20     1        0.139435   356665.927832    ;  uncertainty r = 0.000039, k = 1.858711
        16        17     1        0.139226   370054.625684    ;  uncertainty r = 0.000037, k = 3.472273
        16        29     1        0.108791   336612.376416    ;  uncertainty r = 0.000020, k = 1.120692
        17        18     1        0.139757   360870.817187    ;  uncertainty r = 0.000049, k = 2.986680
        17        30     1        0.108656   333915.734277    ;  uncertainty r = 0.000036, k = 0.681471
        18        19     1        0.139757   360870.817187    ;  uncertainty r = 0.000049, k = 2.986680
        18        21     1        0.213097   132738.293799    ;  uncertainty r = 0.000077, k = 15.067791
        19        20     1        0.139226   370054.625684    ;  uncertainty r = 0.000037, k = 3.472273
        19        31     1        0.108656   333915.734277    ;  uncertainty r = 0.000036, k = 0.681459
        20        32     1        0.108791   336612.376416    ;  uncertainty r = 0.000020, k = 1.120693

[ angles ]
;       ai        aj        ak funct           theta             cth
         1         2         4     1      113.007706      694.840550    ;  uncertainty theta = 0.002615, k = 0.209768
         1         2        22     1      121.401405      247.022119    ;  uncertainty theta = 0.004650, k = 0.217582
         1         9         8     1      115.091408      456.984082    ;  uncertainty theta = 0.002643, k = 0.185104
         1         9        11     1      122.711624      473.014492    ;  uncertainty theta = 0.005815, k = 0.168149
         1        13         7     1       90.152794     1161.222799    ;  uncertainty theta = 0.004191, k = 0.220002
         2         1         9     1      125.041733      293.645028    ;  uncertainty theta = 0.004317, k = 0.328622
         2         1        13     1      114.826401      467.245787    ;  uncertainty theta = 0.007887, k = 0.257337
         2         4         5     1      127.904686      375.875382    ;  uncertainty theta = 0.002685, k = 0.190331
         2         4         7     1      112.804001      582.659029    ;  uncertainty theta = 0.001441, k = 0.248664
         3         7         4     1      118.412918      375.063110    ;  uncertainty theta = 0.003960, k = 0.215840
         3         7        13     1      126.397415      363.426456    ;  uncertainty theta = 0.001984, k = 0.153960
         3        12         6     1      120.842484      402.797848    ;  uncertainty theta = 0.002548, k = 0.205041
         4         2        22     1      122.098244      248.614150    ;  uncertainty theta = 0.005938, k = 0.108728
         4         5         6     1      119.524513      391.141115    ;  uncertainty theta = 0.005581, k = 0.213545
         4         5        14     1      119.386940      395.416697    ;  uncertainty theta = 0.007236, k = 0.138991
         4         7        13     1      111.017113      499.495198    ;  uncertainty theta = 0.005808, k = 0.181308
         5         4         7     1      115.320740      426.213781    ;  uncertainty theta = 0.006948, k = 0.239149
         5         6        12     1      124.514183      661.788444    ;  uncertainty theta = 0.003510, k = 0.148398
         5         6        24     1      119.349350      264.281662    ;  uncertainty theta = 0.001084, k = 0.195892
         5        14        15     1      112.877220      471.103071    ;  uncertainty theta = 0.002054, k = 0.168734
         6         5        14     1      119.648598      413.022300    ;  uncertainty theta = 0.006887, k = 0.248373
         7         3        12     1      121.565308      690.810347    ;  uncertainty theta = 0.002110, k = 0.113863
         7         3        23     1      122.306641      288.040877    ;  uncertainty theta = 0.002283, k = 0.091097
         8         9        11     1      123.933128      777.980057    ;  uncertainty theta = 0.003756, k = 0.164138
         8        10        26     1      109.137833      462.190971    ;  uncertainty theta = 0.002325, k = 0.040935
         8        10        27     1      109.137833      462.190971    ;  uncertainty theta = 0.002325, k = 0.040935
         8        10        28     1      109.137833      462.190971    ;  uncertainty theta = 0.002325, k = 0.040935
         9         1        13     1      118.544632      289.482288    ;  uncertainty theta = 0.004260, k = 0.370681
         9         8        10     1      117.138512      433.140690    ;  uncertainty theta = 0.005555, k = 0.158725
         9         8        25     1      115.552147      339.762685    ;  uncertainty theta = 0.001791, k = 0.222062
        10         8        25     1      113.253616      321.470773    ;  uncertainty theta = 0.002256, k = 0.176038
        12         3        23     1      116.879013      331.081122    ;  uncertainty theta = 0.001934, k = 0.154842
        12         6        24     1      116.582138      339.078418    ;  uncertainty theta = 0.002044, k = 0.073114
        14        15        16     1      119.623459      413.980676    ;  uncertainty theta = 0.003538, k = 0.031990
        14        15        20     1      119.623459      413.980676    ;  uncertainty theta = 0.003538, k = 0.031990
        15        16        17     1      119.164413      516.669606    ;  uncertainty theta = 0.002092, k = 0.100835
        15        16        29     1      120.621727      275.530726    ;  uncertainty theta = 0.001428, k = 0.038373
        15        20        19     1      119.164413      516.669606    ;  uncertainty theta = 0.002092, k = 0.100835
        15        20        32     1      120.621727      275.530726    ;  uncertainty theta = 0.001428, k = 0.038373
        16        15        20     1      121.233376      388.915811    ;  uncertainty theta = 0.003342, k = 0.095697
        16        17        18     1      119.244705      507.967836    ;  uncertainty theta = 0.002503, k = 0.073586
        16        17        30     1      119.900673      280.178544    ;  uncertainty theta = 0.002524, k = 0.019288
        17        16        29     1      120.523865      288.079885    ;  uncertainty theta = 0.000836, k = 0.039056
        17        18        19     1      120.456192      386.042408    ;  uncertainty theta = 0.002416, k = 0.086694
        17        18        21     1      120.178101      360.900389    ;  uncertainty theta = 0.011883, k = 0.346259
        18        17        30     1      121.279434      290.845139    ;  uncertainty theta = 0.000514, k = 0.066443
        18        19        20     1      119.244705      507.967836    ;  uncertainty theta = 0.002503, k = 0.073586
        18        19        31     1      121.279434      290.845139    ;  uncertainty theta = 0.000514, k = 0.066443
        19        18        21     1      120.178101      360.900389    ;  uncertainty theta = 0.011883, k = 0.346259
        19        20        32     1      120.523865      288.079885    ;  uncertainty theta = 0.000836, k = 0.039056
        20        19        31     1      119.900673      280.178544    ;  uncertainty theta = 0.002524, k = 0.019288
        26        10        27     1      107.024132      321.322019    ;  uncertainty theta = 0.002845, k = 0.017384
        26        10        28     1      107.024132      321.322019    ;  uncertainty theta = 0.002845, k = 0.017384
        27        10        28     1      107.024132      321.322019    ;  uncertainty theta = 0.002845, k = 0.017384

[ dihedrals ] ; propers for gromacs 4.5 or higher, use funct 9
;       ai        aj        ak        al funct           phase               k        pn
         1         2         4         5     9        0.000000       -0.280541         1    ;  uncertainty k = 0.344188
         1         2         4         5     9      180.000000        7.271601         2    ;  uncertainty k = 0.718163
         1         2         4         5     9        0.000000        0.661514         3    ;  uncertainty k = 0.202689
         1         2         4         5     9      180.000000        0.596920         4    ;  uncertainty k = 0.312633
         1         2         4         7     9        0.000000        0.091416         1    ;  uncertainty k = 0.579257
         1         2         4         7     9      180.000000       12.375114         2    ;  uncertainty k = 0.535649
         1         2         4         7     9        0.000000       -5.075899         3    ;  uncertainty k = 1.611004
         1         2         4         7     9      180.000000        1.302104         4    ;  uncertainty k = 0.411748
         1         9         8        10     9        0.000000        4.780404         1    ;  uncertainty k = 0.994871
         1         9         8        10     9      180.000000       12.688262         2    ;  uncertainty k = 0.280550
         1         9         8        10     9        0.000000        1.444284         3    ;  uncertainty k = 0.333499
         1         9         8        10     9      180.000000       -1.075696         4    ;  uncertainty k = 0.475134
         1         9         8        25     9        0.000000        0.997850         1    ;  uncertainty k = 0.367307
         1         9         8        25     9      180.000000        7.460687         2    ;  uncertainty k = 0.776019
         1         9         8        25     9        0.000000        2.989635         3    ;  uncertainty k = 0.238442
         1         9         8        25     9      180.000000       -0.033295         4    ;  uncertainty k = 0.279295
         1        13         7         3     9        0.000000       -0.849488         1    ;  uncertainty k = 2.334658
         1        13         7         3     9      180.000000        6.557709         2    ;  uncertainty k = 1.064088
         1        13         7         3     9        0.000000        0.776818         3    ;  uncertainty k = 0.601272
         1        13         7         3     9      180.000000        0.541143         4    ;  uncertainty k = 0.293697
         1        13         7         4     9        0.000000       -0.496035         1    ;  uncertainty k = 0.864534
         1        13         7         4     9      180.000000       14.834100         2    ;  uncertainty k = 0.537981
         1        13         7         4     9        0.000000       -6.525625         3    ;  uncertainty k = 0.736098
         1        13         7         4     9      180.000000        0.322301         4    ;  uncertainty k = 0.914187
         2         1         9         8     9        0.000000       -0.527513         1    ;  uncertainty k = 0.843506
         2         1         9         8     9      180.000000        1.896205         2    ;  uncertainty k = 0.212180
         2         1         9         8     9        0.000000        0.225430         3    ;  uncertainty k = 0.245429
         2         1         9         8     9      180.000000       -0.340405         4    ;  uncertainty k = 0.190917
         2         1         9        11     9        0.000000        0.214424         1    ;  uncertainty k = 0.691492
         2         1         9        11     9      180.000000        2.490011         2    ;  uncertainty k = 0.114400
         2         1         9        11     9        0.000000        0.803303         3    ;  uncertainty k = 0.272633
         2         1         9        11     9      180.000000        0.159632         4    ;  uncertainty k = 0.154746
         2         1        13         7     9        0.000000       -0.779526         1    ;  uncertainty k = 0.917128
         2         1        13         7     9      180.000000       13.176953         2    ;  uncertainty k = 0.355417
         2         1        13         7     9        0.000000       -5.832082         3    ;  uncertainty k = 1.051891
         2         1        13         7     9      180.000000        1.482261         4    ;  uncertainty k = 0.431418
         2         4         5         6     9        0.000000       -0.096057         1    ;  uncertainty k = 0.697912
         2         4         5         6     9      180.000000        5.764914         2    ;  uncertainty k = 0.675630
         2         4         5         6     9        0.000000        0.596126         3    ;  uncertainty k = 0.274277
         2         4         5         6     9      180.000000        1.221499         4    ;  uncertainty k = 0.280822
         2         4         5        14     9        0.000000        0.094755         1    ;  uncertainty k = 0.519385
         2         4         5        14     9      180.000000        7.776361         2    ;  uncertainty k = 0.611362
         2         4         5        14     9        0.000000        1.308092         3    ;  uncertainty k = 0.313410
         2         4         5        14     9      180.000000        1.320311         4    ;  uncertainty k = 0.355169
         2         4         7         3     9        0.000000       -0.205334         1    ;  uncertainty k = 0.739565
         2         4         7         3     9      180.000000        7.969107         2    ;  uncertainty k = 0.421143
         2         4         7         3     9        0.000000        0.452403         3    ;  uncertainty k = 0.478538
         2         4         7         3     9      180.000000        1.384813         4    ;  uncertainty k = 0.227724
         2         4         7        13     9        0.000000       -0.382012         1    ;  uncertainty k = 0.560675
         2         4         7        13     9      180.000000       10.236206         2    ;  uncertainty k = 0.640205
         2         4         7        13     9        0.000000       -0.647759         3    ;  uncertainty k = 0.891101
         2         4         7        13     9      180.000000        1.356902         4    ;  uncertainty k = 0.228641
         3         7         4         5     9        0.000000       -0.412602         1    ;  uncertainty k = 0.494196
         3         7         4         5     9      180.000000        8.411299         2    ;  uncertainty k = 0.732584
         3         7         4         5     9        0.000000        0.085424         3    ;  uncertainty k = 0.093989
         3         7         4         5     9      180.000000        1.199771         4    ;  uncertainty k = 0.246521
         3        12         6         5     9        0.000000        0.208590         1    ;  uncertainty k = 0.394723
         3        12         6         5     9      180.000000       13.469351         2    ;  uncertainty k = 0.107582
         3        12         6         5     9        0.000000        1.053566         3    ;  uncertainty k = 0.582690
         3        12         6         5     9      180.000000        1.316363         4    ;  uncertainty k = 0.280578
         3        12         6        24     9        0.000000        0.392802         1    ;  uncertainty k = 0.307760
         3        12         6        24     9      180.000000       13.819319         2    ;  uncertainty k = 0.400371
         3        12         6        24     9        0.000000        2.178342         3    ;  uncertainty k = 0.456587
         3        12         6        24     9      180.000000        1.475511         4    ;  uncertainty k = 0.350536
         4         2         1         9     9        0.000000        0.543261         1    ;  uncertainty k = 0.480523
         4         2         1         9     9      180.000000       15.294430         2    ;  uncertainty k = 0.215416
         4         2         1         9     9        0.000000        1.909237         3    ;  uncertainty k = 0.690075
         4         2         1         9     9      180.000000        0.997791         4    ;  uncertainty k = 0.185523
         4         2         1        13     9        0.000000       -0.267156         1    ;  uncertainty k = 0.450552
         4         2         1        13     9      180.000000       19.045935         2    ;  uncertainty k = 0.376193
         4         2         1        13     9        0.000000       -1.062063         3    ;  uncertainty k = 0.865975
         4         2         1        13     9      180.000000        0.998158         4    ;  uncertainty k = 0.672940
         4         5         6        12     9        0.000000       -0.182146         1    ;  uncertainty k = 0.819279
         4         5         6        12     9      180.000000       11.927540         2    ;  uncertainty k = 0.381804
         4         5         6        12     9        0.000000        0.149474         3    ;  uncertainty k = 0.439507
         4         5         6        12     9      180.000000        1.210181         4    ;  uncertainty k = 0.178362
         4         5         6        24     9        0.000000        0.137459         1    ;  uncertainty k = 0.354296
         4         5         6        24     9      180.000000        6.225584         2    ;  uncertainty k = 0.508388
         4         5         6        24     9        0.000000        1.358676         3    ;  uncertainty k = 0.434709
         4         5         6        24     9      180.000000        1.551355         4    ;  uncertainty k = 0.137926
         4         5        14        15     9        0.000000        4.377088         1    ;  uncertainty k = 0.807566
         4         5        14        15     9      180.000000        4.888799         2    ;  uncertainty k = 0.510682
         4         5        14        15     9        0.000000        0.413645         3    ;  uncertainty k = 0.153427
         4         5        14        15     9      180.000000        0.153535         4    ;  uncertainty k = 0.089058
         4         7         3        12     9        0.000000       -0.312575         1    ;  uncertainty k = 0.991126
         4         7         3        12     9      180.000000       12.944817         2    ;  uncertainty k = 0.292578
         4         7         3        12     9        0.000000       -1.150292         3    ;  uncertainty k = 0.626765
         4         7         3        12     9      180.000000        0.658536         4    ;  uncertainty k = 0.383610
         4         7         3        23     9        0.000000       -0.349596         1    ;  uncertainty k = 0.644503
         4         7         3        23     9      180.000000        5.397009         2    ;  uncertainty k = 0.589686
         4         7         3        23     9        0.000000        1.189208         3    ;  uncertainty k = 0.202508
         4         7         3        23     9      180.000000        1.062206         4    ;  uncertainty k = 0.234425
         5         4         2        22     9        0.000000        0.355812         1    ;  uncertainty k = 1.573444
         5         4         2        22     9      180.000000        4.545184         2    ;  uncertainty k = 0.963229
         5         4         2        22     9        0.000000        0.996433         3    ;  uncertainty k = 0.363582
         5         4         2        22     9      180.000000        0.073296         4    ;  uncertainty k = 0.079735
         5         4         7        13     9        0.000000        0.505369         1    ;  uncertainty k = 0.295880
         5         4         7        13     9      180.000000        8.886354         2    ;  uncertainty k = 0.439450
         5         4         7        13     9        0.000000        0.225717         3    ;  uncertainty k = 0.517230
         5         4         7        13     9      180.000000        1.151393         4    ;  uncertainty k = 0.242236
         5        14        15        16     9        0.000000        4.020326         1    ;  uncertainty k = 0.575340
         5        14        15        16     9      180.000000        4.989999         2    ;  uncertainty k = 0.233452
         5        14        15        16     9        0.000000        0.564086         3    ;  uncertainty k = 0.084825
         5        14        15        16     9      180.000000        0.161573         4    ;  uncertainty k = 0.087546
         5        14        15        20     9        0.000000        4.020326         1    ;  uncertainty k = 0.575340
         5        14        15        20     9      180.000000        4.989999         2    ;  uncertainty k = 0.233452
         5        14        15        20     9        0.000000        0.564086         3    ;  uncertainty k = 0.084825
         5        14        15        20     9      180.000000        0.161573         4    ;  uncertainty k = 0.087546
         6         5         4         7     9        0.000000       -0.057958         1    ;  uncertainty k = 0.264012
         6         5         4         7     9      180.000000        9.383846         2    ;  uncertainty k = 0.638191
         6         5         4         7     9        0.000000       -0.754310         3    ;  uncertainty k = 0.306045
         6         5         4         7     9      180.000000        0.951876         4    ;  uncertainty k = 0.170410
         6         5        14        15     9        0.000000        6.172099         1    ;  uncertainty k = 0.426370
         6         5        14        15     9      180.000000        4.344260         2    ;  uncertainty k = 0.382772
         6         5        14        15     9        0.000000        0.242797         3    ;  uncertainty k = 0.094234
         6         5        14        15     9      180.000000        0.144367         4    ;  uncertainty k = 0.082095
         6        12         3         7     9        0.000000       -0.516943         1    ;  uncertainty k = 0.848630
         6        12         3         7     9      180.000000       18.819457         2    ;  uncertainty k = 0.455500
         6        12         3         7     9        0.000000        1.070725         3    ;  uncertainty k = 0.490615
         6        12         3         7     9      180.000000        1.375730         4    ;  uncertainty k = 0.275368
         6        12         3        23     9        0.000000        0.132352         1    ;  uncertainty k = 0.093410
         6        12         3        23     9      180.000000       16.283310         2    ;  uncertainty k = 0.432587
         6        12         3        23     9        0.000000        2.340011         3    ;  uncertainty k = 0.313580
         6        12         3        23     9      180.000000        1.567589         4    ;  uncertainty k = 0.357860
         7         4         2        22     9        0.000000       -0.023548         1    ;  uncertainty k = 0.788178
         7         4         2        22     9      180.000000        7.883544         2    ;  uncertainty k = 0.531364
         7         4         2        22     9        0.000000        0.982415         3    ;  uncertainty k = 0.597893
         7         4         2        22     9      180.000000        0.329746         4    ;  uncertainty k = 0.250442
         7         4         5        14     9        0.000000       -0.078761         1    ;  uncertainty k = 0.459761
         7         4         5        14     9      180.000000        9.907642         2    ;  uncertainty k = 0.453400
         7         4         5        14     9        0.000000        1.231156         3    ;  uncertainty k = 0.227069
         7         4         5        14     9      180.000000        1.261363         4    ;  uncertainty k = 0.386961
         7        13         1         9     9        0.000000       -0.086098         1    ;  uncertainty k = 0.437686
         7        13         1         9     9      180.000000        7.845460         2    ;  uncertainty k = 0.766364
         7        13         1         9     9        0.000000        0.948268         3    ;  uncertainty k = 1.038580
         7        13         1         9     9      180.000000        0.404035         4    ;  uncertainty k = 0.362674
         8         9         1        13     9        0.000000        3.471181         1    ;  uncertainty k = 0.614131
         8         9         1        13     9      180.000000        3.469184         2    ;  uncertainty k = 0.495441
         8         9         1        13     9        0.000000        0.855298         3    ;  uncertainty k = 0.243620
         8         9         1        13     9      180.000000       -0.471918         4    ;  uncertainty k = 0.250365
         9         1         2        22     9        0.000000        0.103843         1    ;  uncertainty k = 0.936769
         9         1         2        22     9      180.000000       10.434434         2    ;  uncertainty k = 0.586508
         9         1         2        22     9        0.000000        1.403309         3    ;  uncertainty k = 0.240654
         9         1         2        22     9      180.000000        0.771697         4    ;  uncertainty k = 0.225858
         9         8        10        26     9        0.000000        0.347778         1    ;  uncertainty k = 0.238050
         9         8        10        26     9      180.000000       -0.615379         2    ;  uncertainty k = 0.282819
         9         8        10        26     9        0.000000        0.317480         3    ;  uncertainty k = 0.103886
         9         8        10        26     9      180.000000        0.360712         4    ;  uncertainty k = 0.055523
         9         8        10        27     9        0.000000        0.347778         1    ;  uncertainty k = 0.238050
         9         8        10        27     9      180.000000       -0.615379         2    ;  uncertainty k = 0.282819
         9         8        10        27     9        0.000000        0.317480         3    ;  uncertainty k = 0.103886
         9         8        10        27     9      180.000000        0.360712         4    ;  uncertainty k = 0.055523
         9         8        10        28     9        0.000000        0.347778         1    ;  uncertainty k = 0.238050
         9         8        10        28     9      180.000000       -0.615379         2    ;  uncertainty k = 0.282819
         9         8        10        28     9        0.000000        0.317480         3    ;  uncertainty k = 0.103886
         9         8        10        28     9      180.000000        0.360712         4    ;  uncertainty k = 0.055523
        10         8         9        11     9        0.000000        2.196661         1    ;  uncertainty k = 0.466899
        10         8         9        11     9      180.000000       10.361330         2    ;  uncertainty k = 0.340173
        10         8         9        11     9        0.000000        0.627458         3    ;  uncertainty k = 0.344275
        10         8         9        11     9      180.000000        0.612412         4    ;  uncertainty k = 0.289452
        11         9         1        13     9        0.000000       -2.709010         1    ;  uncertainty k = 0.947227
        11         9         1        13     9      180.000000        4.585885         2    ;  uncertainty k = 0.346469
        11         9         1        13     9        0.000000        0.395159         3    ;  uncertainty k = 0.262793
        11         9         1        13     9      180.000000        0.134898         4    ;  uncertainty k = 0.100567
        11         9         8        25     9        0.000000        2.558351         1    ;  uncertainty k = 1.165064
        11         9         8        25     9      180.000000       12.657504         2    ;  uncertainty k = 0.355270
        11         9         8        25     9        0.000000        1.644240         3    ;  uncertainty k = 0.250074
        11         9         8        25     9      180.000000       -0.616930         4    ;  uncertainty k = 0.164274
        12         3         7        13     9        0.000000        0.013134         1    ;  uncertainty k = 0.566456
        12         3         7        13     9      180.000000        7.994725         2    ;  uncertainty k = 0.494098
        12         3         7        13     9        0.000000        0.779930         3    ;  uncertainty k = 0.181951
        12         3         7        13     9      180.000000        1.270131         4    ;  uncertainty k = 0.466677
        12         6         5        14     9        0.000000        0.068728         1    ;  uncertainty k = 0.446029
        12         6         5        14     9      180.000000       12.021990         2    ;  uncertainty k = 0.403082
        12         6         5        14     9        0.000000        1.220735         3    ;  uncertainty k = 0.295039
        12         6         5        14     9      180.000000        1.602285         4    ;  uncertainty k = 0.190173
        13         1         2        22     9        0.000000        0.331342         1    ;  uncertainty k = 0.395906
        13         1         2        22     9      180.000000       12.588665         2    ;  uncertainty k = 0.414993
        13         1         2        22     9        0.000000        1.805942         3    ;  uncertainty k = 0.310209
        13         1         2        22     9      180.000000        1.277827         4    ;  uncertainty k = 0.233838
        13         7         3        23     9        0.000000       -0.110761         1    ;  uncertainty k = 0.557348
        13         7         3        23     9      180.000000        4.374855         2    ;  uncertainty k = 0.347346
        13         7         3        23     9        0.000000        0.712899         3    ;  uncertainty k = 0.450658
        13         7         3        23     9      180.000000        0.588126         4    ;  uncertainty k = 0.252953
        14         5         6        24     9        0.000000        0.012840         1    ;  uncertainty k = 0.273784
        14         5         6        24     9      180.000000        8.121104         2    ;  uncertainty k = 0.435011
        14         5         6        24     9        0.000000        0.875853         3    ;  uncertainty k = 0.228471
        14         5         6        24     9      180.000000        1.171043         4    ;  uncertainty k = 0.270200
        14        15        16        17     9        0.000000        0.012221         1    ;  uncertainty k = 0.195029
        14        15        16        17     9      180.000000       10.255932         2    ;  uncertainty k = 0.560855
        14        15        16        17     9        0.000000        1.400121         3    ;  uncertainty k = 0.261974
        14        15        16        17     9      180.000000        1.724206         4    ;  uncertainty k = 0.158849
        14        15        16        29     9        0.000000       -0.102784         1    ;  uncertainty k = 0.070398
        14        15        16        29     9      180.000000        8.249932         2    ;  uncertainty k = 0.242706
        14        15        16        29     9        0.000000        0.848895         3    ;  uncertainty k = 0.284726
        14        15        16        29     9      180.000000        1.108471         4    ;  uncertainty k = 0.120427
        14        15        20        19     9        0.000000        0.012221         1    ;  uncertainty k = 0.195029
        14        15        20        19     9      180.000000       10.255932         2    ;  uncertainty k = 0.560855
        14        15        20        19     9        0.000000        1.400121         3    ;  uncertainty k = 0.261974
        14        15        20        19     9      180.000000        1.724206         4    ;  uncertainty k = 0.158849
        14        15        20        32     9        0.000000       -0.102784         1    ;  uncertainty k = 0.070398
        14        15        20        32     9      180.000000        8.249932         2    ;  uncertainty k = 0.242706
        14        15        20        32     9        0.000000        0.848895         3    ;  uncertainty k = 0.284726
        14        15        20        32     9      180.000000        1.108471         4    ;  uncertainty k = 0.120427
        15        16        17        18     9        0.000000       -0.090218         1    ;  uncertainty k = 0.228696
        15        16        17        18     9      180.000000       14.827425         2    ;  uncertainty k = 0.297014
        15        16        17        18     9        0.000000       -0.883550         3    ;  uncertainty k = 0.772433
        15        16        17        18     9      180.000000        0.782323         4    ;  uncertainty k = 0.458152
        15        16        17        30     9        0.000000       -0.038969         1    ;  uncertainty k = 0.243789
        15        16        17        30     9      180.000000        8.028079         2    ;  uncertainty k = 0.258792
        15        16        17        30     9        0.000000        1.309637         3    ;  uncertainty k = 0.219930
        15        16        17        30     9      180.000000        1.817199         4    ;  uncertainty k = 0.144377
        15        20        19        18     9        0.000000       -0.090218         1    ;  uncertainty k = 0.228696
        15        20        19        18     9      180.000000       14.827425         2    ;  uncertainty k = 0.297014
        15        20        19        18     9        0.000000       -0.883550         3    ;  uncertainty k = 0.772433
        15        20        19        18     9      180.000000        0.782323         4    ;  uncertainty k = 0.458152
        15        20        19        31     9        0.000000       -0.038969         1    ;  uncertainty k = 0.243789
        15        20        19        31     9      180.000000        8.028079         2    ;  uncertainty k = 0.258792
        15        20        19        31     9        0.000000        1.309637         3    ;  uncertainty k = 0.219930
        15        20        19        31     9      180.000000        1.817199         4    ;  uncertainty k = 0.144377
        16        15        20        19     9        0.000000        0.022448         1    ;  uncertainty k = 0.041122
        16        15        20        19     9      180.000000        9.450061         2    ;  uncertainty k = 0.542378
        16        15        20        19     9        0.000000       -0.109803         3    ;  uncertainty k = 0.336626
        16        15        20        19     9      180.000000        1.158308         4    ;  uncertainty k = 0.357646
        16        15        20        32     9        0.000000        0.226233         1    ;  uncertainty k = 0.257297
        16        15        20        32     9      180.000000        6.135216         2    ;  uncertainty k = 0.722339
        16        15        20        32     9        0.000000        1.441701         3    ;  uncertainty k = 0.391501
        16        15        20        32     9      180.000000        1.552294         4    ;  uncertainty k = 0.170834
        16        17        18        19     9        0.000000       -0.145699         1    ;  uncertainty k = 0.199887
        16        17        18        19     9      180.000000       10.870956         2    ;  uncertainty k = 0.306840
        16        17        18        19     9        0.000000       -0.449305         3    ;  uncertainty k = 0.519606
        16        17        18        19     9      180.000000        0.969505         4    ;  uncertainty k = 0.391287
        16        17        18        21     9        0.000000        0.024259         1    ;  uncertainty k = 0.268916
        16        17        18        21     9      180.000000        8.165216         2    ;  uncertainty k = 0.352792
        16        17        18        21     9        0.000000        1.373726         3    ;  uncertainty k = 0.424213
        16        17        18        21     9      180.000000        1.501593         4    ;  uncertainty k = 0.125582
        17        16        15        20     9        0.000000        0.022448         1    ;  uncertainty k = 0.041122
        17        16        15        20     9      180.000000        9.450061         2    ;  uncertainty k = 0.542378
        17        16        15        20     9        0.000000       -0.109803         3    ;  uncertainty k = 0.336626
        17        16        15        20     9      180.000000        1.158308         4    ;  uncertainty k = 0.357646
        17        18        19        20     9        0.000000       -0.145699         1    ;  uncertainty k = 0.199887
        17        18        19        20     9      180.000000       10.870956         2    ;  uncertainty k = 0.306840
        17        18        19        20     9        0.000000       -0.449305         3    ;  uncertainty k = 0.519606
        17        18        19        20     9      180.000000        0.969505         4    ;  uncertainty k = 0.391287
        17        18        19        31     9        0.000000       -0.164965         1    ;  uncertainty k = 0.261681
        17        18        19        31     9      180.000000        6.323246         2    ;  uncertainty k = 0.548845
        17        18        19        31     9        0.000000        1.483344         3    ;  uncertainty k = 0.356010
        17        18        19        31     9      180.000000        1.490982         4    ;  uncertainty k = 0.175216
        18        17        16        29     9        0.000000        0.081107         1    ;  uncertainty k = 0.156632
        18        17        16        29     9      180.000000        8.086730         2    ;  uncertainty k = 0.322676
        18        17        16        29     9        0.000000        1.427846         3    ;  uncertainty k = 0.325614
        18        17        16        29     9      180.000000        1.900329         4    ;  uncertainty k = 0.225349
        18        19        20        32     9        0.000000        0.081107         1    ;  uncertainty k = 0.156632
        18        19        20        32     9      180.000000        8.086730         2    ;  uncertainty k = 0.322676
        18        19        20        32     9        0.000000        1.427846         3    ;  uncertainty k = 0.325614
        18        19        20        32     9      180.000000        1.900329         4    ;  uncertainty k = 0.225349
        19        18        17        30     9        0.000000       -0.164965         1    ;  uncertainty k = 0.261681
        19        18        17        30     9      180.000000        6.323246         2    ;  uncertainty k = 0.548845
        19        18        17        30     9        0.000000        1.483344         3    ;  uncertainty k = 0.356010
        19        18        17        30     9      180.000000        1.490982         4    ;  uncertainty k = 0.175216
        20        15        16        29     9        0.000000        0.226233         1    ;  uncertainty k = 0.257297
        20        15        16        29     9      180.000000        6.135216         2    ;  uncertainty k = 0.722339
        20        15        16        29     9        0.000000        1.441701         3    ;  uncertainty k = 0.391501
        20        15        16        29     9      180.000000        1.552294         4    ;  uncertainty k = 0.170834
        20        19        18        21     9        0.000000        0.024259         1    ;  uncertainty k = 0.268916
        20        19        18        21     9      180.000000        8.165216         2    ;  uncertainty k = 0.352792
        20        19        18        21     9        0.000000        1.373726         3    ;  uncertainty k = 0.424213
        20        19        18        21     9      180.000000        1.501593         4    ;  uncertainty k = 0.125582
        21        18        17        30     9        0.000000        0.134128         1    ;  uncertainty k = 0.288565
        21        18        17        30     9      180.000000        6.410228         2    ;  uncertainty k = 0.581086
        21        18        17        30     9        0.000000        0.642754         3    ;  uncertainty k = 0.283744
        21        18        17        30     9      180.000000        0.858356         4    ;  uncertainty k = 0.144196
        21        18        19        31     9        0.000000        0.134128         1    ;  uncertainty k = 0.288565
        21        18        19        31     9      180.000000        6.410228         2    ;  uncertainty k = 0.581086
        21        18        19        31     9        0.000000        0.642754         3    ;  uncertainty k = 0.283744
        21        18        19        31     9      180.000000        0.858356         4    ;  uncertainty k = 0.144196
        25         8        10        26     9        0.000000       -0.211712         1    ;  uncertainty k = 0.210822
        25         8        10        26     9      180.000000       -1.007929         2    ;  uncertainty k = 0.142089
        25         8        10        26     9        0.000000        0.506513         3    ;  uncertainty k = 0.064164
        25         8        10        26     9      180.000000        0.162125         4    ;  uncertainty k = 0.065192
        25         8        10        27     9        0.000000       -0.211712         1    ;  uncertainty k = 0.210822
        25         8        10        27     9      180.000000       -1.007929         2    ;  uncertainty k = 0.142089
        25         8        10        27     9        0.000000        0.506513         3    ;  uncertainty k = 0.064164
        25         8        10        27     9      180.000000        0.162125         4    ;  uncertainty k = 0.065192
        25         8        10        28     9        0.000000       -0.211712         1    ;  uncertainty k = 0.210822
        25         8        10        28     9      180.000000       -1.007929         2    ;  uncertainty k = 0.142089
        25         8        10        28     9        0.000000        0.506513         3    ;  uncertainty k = 0.064164
        25         8        10        28     9      180.000000        0.162125         4    ;  uncertainty k = 0.065192
        29        16        17        30     9        0.000000       -0.099429         1    ;  uncertainty k = 0.141499
        29        16        17        30     9      180.000000        7.629218         2    ;  uncertainty k = 0.386951
        29        16        17        30     9        0.000000       -0.397850         3    ;  uncertainty k = 0.232410
        29        16        17        30     9      180.000000        0.173086         4    ;  uncertainty k = 0.138109
        31        19        20        32     9        0.000000       -0.099429         1    ;  uncertainty k = 0.141499
        31        19        20        32     9      180.000000        7.629218         2    ;  uncertainty k = 0.386951
        31        19        20        32     9        0.000000       -0.397850         3    ;  uncertainty k = 0.232410
        31        19        20        32     9      180.000000        0.173086         4    ;  uncertainty k = 0.138109

[ dihedrals ] ; impropers
;       ai        aj        ak        al funct           phase               k        pn
         1         2         9        13     4      180.000000        2.012750         2    ;  uncertainty k = 0.493061
         1         9        13         2     4      180.000000        2.012750         2    ;  uncertainty k = 0.493061
         1        13         2         9     4      180.000000        2.012750         2    ;  uncertainty k = 0.493061
         2         1         4        22     4      180.000000        1.641787         2    ;  uncertainty k = 0.552248
         2         4        22         1     4      180.000000        1.641787         2    ;  uncertainty k = 0.552248
         2        22         1         4     4      180.000000        1.641787         2    ;  uncertainty k = 0.552248
         3         7        12        23     4      180.000000       12.940082         2    ;  uncertainty k = 0.089545
         3        12        23         7     4      180.000000       12.940082         2    ;  uncertainty k = 0.089545
         3        23         7        12     4      180.000000       12.940082         2    ;  uncertainty k = 0.089545
         4         2         5         7     4      180.000000        2.064996         2    ;  uncertainty k = 0.561126
         4         5         7         2     4      180.000000        2.064996         2    ;  uncertainty k = 0.561126
         4         7         2         5     4      180.000000        2.064996         2    ;  uncertainty k = 0.561126
         5         4         6        14     4      180.000000       15.280144         2    ;  uncertainty k = 0.112219
         5         6        14         4     4      180.000000       15.280144         2    ;  uncertainty k = 0.112219
         5        14         4         6     4      180.000000       15.280144         2    ;  uncertainty k = 0.112219
         6         5        12        24     4      180.000000        9.523653         2    ;  uncertainty k = 0.155816
         6        12        24         5     4      180.000000        9.523653         2    ;  uncertainty k = 0.155816
         6        24         5        12     4      180.000000        9.523653         2    ;  uncertainty k = 0.155816
         7         3         4        13     4      180.000000        0.425150         2    ;  uncertainty k = 0.787293
         7         4        13         3     4      180.000000        0.425150         2    ;  uncertainty k = 0.787293
         7        13         3         4     4      180.000000        0.425150         2    ;  uncertainty k = 0.787293
         9         1         8        11     4      180.000000       52.363784         2    ;  uncertainty k = 0.021283
         9         8        11         1     4      180.000000       52.363784         2    ;  uncertainty k = 0.021283
         9        11         1         8     4      180.000000       52.363784         2    ;  uncertainty k = 0.021283
        15        14        16        20     4      180.000000       18.013316         2    ;  uncertainty k = 0.059465
        15        16        20        14     4      180.000000       18.013316         2    ;  uncertainty k = 0.059465
        15        20        14        16     4      180.000000       18.013316         2    ;  uncertainty k = 0.059465
        16        15        17        29     4      180.000000        2.721482         2    ;  uncertainty k = 0.138752
        16        17        29        15     4      180.000000        2.721482         2    ;  uncertainty k = 0.138752
        16        29        15        17     4      180.000000        2.721482         2    ;  uncertainty k = 0.138752
        17        16        18        30     4      180.000000        4.548341         2    ;  uncertainty k = 0.109494
        17        18        30        16     4      180.000000        4.548341         2    ;  uncertainty k = 0.109494
        17        30        16        18     4      180.000000        4.548341         2    ;  uncertainty k = 0.109494
        18        17        19        21     4      180.000000       10.666652         2    ;  uncertainty k = 0.217971
        18        19        21        17     4      180.000000       10.666652         2    ;  uncertainty k = 0.217971
        18        21        17        19     4      180.000000       10.666652         2    ;  uncertainty k = 0.217971
        19        18        20        31     4      180.000000        4.548339         2    ;  uncertainty k = 0.109494
        19        20        31        18     4      180.000000        4.548339         2    ;  uncertainty k = 0.109494
        19        31        18        20     4      180.000000        4.548339         2    ;  uncertainty k = 0.109494
        20        15        19        32     4      180.000000        2.721480         2    ;  uncertainty k = 0.138750
        20        19        32        15     4      180.000000        2.721480         2    ;  uncertainty k = 0.138750
        20        32        15        19     4      180.000000        2.721480         2    ;  uncertainty k = 0.138750

[ pairs ]
;       ai        aj funct
         1         3     1
         1         5     1
         1        10     1
         1        25     1
         2         3     1
         2         6     1
         2         8     1
         2        11     1
         2        14     1
         3         5     1
         3        24     1
         4         9     1
         4        12     1
         4        15     1
         4        23     1
         4        24     1
         5        13     1
         5        16     1
         5        20     1
         5        22     1
         6         7     1
         6        15     1
         6        23     1
         7         9     1
         7        14     1
         7        22     1
         8        13     1
         9        22     1
         9        26     1
         9        27     1
         9        28     1
        10        11     1
        11        13     1
        11        25     1
        12        13     1
        12        14     1
        13        22     1
        13        23     1
        14        17     1
        14        19     1
        14        24     1
        14        29     1
        14        32     1
        15        18     1
        15        30     1
        15        31     1
        16        19     1
        16        21     1
        16        32     1
        17        20     1
        17        31     1
        18        29     1
        18        32     1
        19        30     1
        20        21     1
        20        29     1
        21        30     1
        21        31     1
        25        26     1
        25        27     1
        25        28     1
        29        30     1
        31        32     1
