; ITP file created by ByteFF-joint-25, 2026-02-17 09:10:55.053301

[ atomtypes ]
;name           bonded.type        at.num        mass        charge   ptype           sigma         epsilon
 c0bf                                   6      0.0000       0.00000       A     3.39781e-01     4.51131e-01    ;  uncertainty sigma = 0.000007, epsilon = 0.000460
 c1bf                                   6      0.0000       0.00000       A     3.39755e-01     4.50470e-01    ;  uncertainty sigma = 0.000009, epsilon = 0.000786
 o2bf                                   8      0.0000       0.00000       A     3.15558e-01     3.04962e-01    ;  uncertainty sigma = 0.000031, epsilon = 0.001243
 c3bf                                   6      0.0000       0.00000       A     3.31533e-01     4.12440e-01    ;  uncertainty sigma = 0.000020, epsilon = 0.000866
 o4bf                                   8      0.0000       0.00000       A     3.04835e-01     6.12187e-01    ;  uncertainty sigma = 0.000025, epsilon = 0.001323
 n5bf                                   7      0.0000       0.00000       A     3.26998e-01     4.91952e-01    ;  uncertainty sigma = 0.000012, epsilon = 0.000974
 c6bf                                   6      0.0000       0.00000       A     3.31547e-01     4.13146e-01    ;  uncertainty sigma = 0.000011, epsilon = 0.000757
 c7bf                                   6      0.0000       0.00000       A     3.31525e-01     4.13386e-01    ;  uncertainty sigma = 0.000005, epsilon = 0.000506
 c8bf                                   6      0.0000       0.00000       A     3.31520e-01     4.13558e-01    ;  uncertainty sigma = 0.000002, epsilon = 0.000530
 c9bf                                   6      0.0000       0.00000       A     3.31519e-01     4.13271e-01    ;  uncertainty sigma = 0.000004, epsilon = 0.000519
 c10bf                                  6      0.0000       0.00000       A     3.31505e-01     4.13446e-01    ;  uncertainty sigma = 0.000007, epsilon = 0.000287
 c11bf                                  6      0.0000       0.00000       A     3.39767e-01     4.50444e-01    ;  uncertainty sigma = 0.000009, epsilon = 0.000434
 n12bf                                  7      0.0000       0.00000       A     3.18130e-01     6.84059e-01    ;  uncertainty sigma = 0.000031, epsilon = 0.002260
 n13bf                                  7      0.0000       0.00000       A     3.38449e-01     3.94403e-01    ;  uncertainty sigma = 0.000019, epsilon = 0.001004
 c14bf                                  6      0.0000       0.00000       A     3.31498e-01     4.13397e-01    ;  uncertainty sigma = 0.000033, epsilon = 0.001041
 c15bf                                  6      0.0000       0.00000       A     3.31517e-01     4.13271e-01    ;  uncertainty sigma = 0.000015, epsilon = 0.000991
 c16bf                                  6      0.0000       0.00000       A     3.31479e-01     4.13326e-01    ;  uncertainty sigma = 0.000018, epsilon = 0.001521
 c17bf                                  6      0.0000       0.00000       A     3.31546e-01     4.13945e-01    ;  uncertainty sigma = 0.000006, epsilon = 0.001637
 o18bf                                  8      0.0000       0.00000       A     3.04802e-01     6.12255e-01    ;  uncertainty sigma = 0.000021, epsilon = 0.001274
 c19bf                                  6      0.0000       0.00000       A     3.31515e-01     4.13249e-01    ;  uncertainty sigma = 0.000015, epsilon = 0.000665
 c20bf                                  6      0.0000       0.00000       A     3.31520e-01     4.13570e-01    ;  uncertainty sigma = 0.000012, epsilon = 0.000687
 c21bf                                  6      0.0000       0.00000       A     3.31510e-01     4.13332e-01    ;  uncertainty sigma = 0.000009, epsilon = 0.000445
 f22bf                                  9      0.0000       0.00000       A     3.03433e-01     3.47910e-01    ;  uncertainty sigma = 0.000006, epsilon = 0.000761
 c23bf                                  6      0.0000       0.00000       A     3.31522e-01     4.13593e-01    ;  uncertainty sigma = 0.000007, epsilon = 0.000737
 c24bf                                  6      0.0000       0.00000       A     3.31510e-01     4.13332e-01    ;  uncertainty sigma = 0.000009, epsilon = 0.000445
 f25bf                                  9      0.0000       0.00000       A     3.03433e-01     3.47910e-01    ;  uncertainty sigma = 0.000006, epsilon = 0.000762
 c26bf                                  6      0.0000       0.00000       A     3.31520e-01     4.13570e-01    ;  uncertainty sigma = 0.000012, epsilon = 0.000687
 c27bf                                  6      0.0000       0.00000       A     3.31516e-01     4.13520e-01    ;  uncertainty sigma = 0.000006, epsilon = 0.000564
 h28bf                                  1      0.0000       0.00000       A     2.60027e-01     8.66166e-02    ;  uncertainty sigma = 0.000011, epsilon = 0.000880
 h29bf                                  1      0.0000       0.00000       A     2.60027e-01     8.66166e-02    ;  uncertainty sigma = 0.000011, epsilon = 0.000880
 h30bf                                  1      0.0000       0.00000       A     2.60027e-01     8.66166e-02    ;  uncertainty sigma = 0.000011, epsilon = 0.000880
 h31bf                                  1      0.0000       0.00000       A     2.42220e-01     8.65637e-02    ;  uncertainty sigma = 0.000022, epsilon = 0.000710
 h32bf                                  1      0.0000       0.00000       A     2.42220e-01     8.65637e-02    ;  uncertainty sigma = 0.000022, epsilon = 0.000710
 h33bf                                  1      0.0000       0.00000       A     1.10628e-01     4.13105e-02    ;  uncertainty sigma = 0.000153, epsilon = 0.000442
 h34bf                                  1      0.0000       0.00000       A     2.62558e-01     6.70547e-02    ;  uncertainty sigma = 0.000013, epsilon = 0.000515
 h35bf                                  1      0.0000       0.00000       A     2.62562e-01     6.69924e-02    ;  uncertainty sigma = 0.000011, epsilon = 0.000440
 h36bf                                  1      0.0000       0.00000       A     2.62563e-01     6.70957e-02    ;  uncertainty sigma = 0.000006, epsilon = 0.000591
 h37bf                                  1      0.0000       0.00000       A     2.42236e-01     8.69097e-02    ;  uncertainty sigma = 0.000033, epsilon = 0.000580
 h38bf                                  1      0.0000       0.00000       A     2.42236e-01     8.69097e-02    ;  uncertainty sigma = 0.000033, epsilon = 0.000580
 h39bf                                  1      0.0000       0.00000       A     2.62549e-01     6.67404e-02    ;  uncertainty sigma = 0.000015, epsilon = 0.000444
 h40bf                                  1      0.0000       0.00000       A     2.62519e-01     6.70320e-02    ;  uncertainty sigma = 0.000024, epsilon = 0.000745
 h41bf                                  1      0.0000       0.00000       A     2.62551e-01     6.70389e-02    ;  uncertainty sigma = 0.000014, epsilon = 0.000667
 h42bf                                  1      0.0000       0.00000       A     2.62567e-01     6.73686e-02    ;  uncertainty sigma = 0.000010, epsilon = 0.000382
 h43bf                                  1      0.0000       0.00000       A     2.62551e-01     6.70389e-02    ;  uncertainty sigma = 0.000014, epsilon = 0.000667
 h44bf                                  1      0.0000       0.00000       A     2.62545e-01     6.69582e-02    ;  uncertainty sigma = 0.000007, epsilon = 0.000727

[ moleculetype ]
;name             nrexcl
 MOL                   3

[ atoms ]
;       nr            type      resi   res      atom      cgnr      charge          mass ; qtot
         1            c0bf         1   UNL        c0         1    -0.11062       12.0110 ; qtot   -0.111
         2            c1bf         1   UNL        c1         2     0.15264       12.0110 ; qtot    0.042
         3            o2bf         1   UNL        o2         3    -0.44384       15.9990 ; qtot   -0.402
         4            c3bf         1   UNL        c3         4     0.76172       12.0110 ; qtot    0.360
         5            o4bf         1   UNL        o4         5    -0.56327       15.9990 ; qtot   -0.203
         6            n5bf         1   UNL        n5         6    -0.46726       14.0070 ; qtot   -0.671
         7            c6bf         1   UNL        c6         7     0.08441       12.0110 ; qtot   -0.586
         8            c7bf         1   UNL        c7         8    -0.16573       12.0110 ; qtot   -0.752
         9            c8bf         1   UNL        c8         9    -0.09971       12.0110 ; qtot   -0.852
        10            c9bf         1   UNL        c9        10    -0.13451       12.0110 ; qtot   -0.986
        11           c10bf         1   UNL       c10        11    -0.09251       12.0110 ; qtot   -1.079
        12           c11bf         1   UNL       c11        12     0.15869       12.0110 ; qtot   -0.920
        13           n12bf         1   UNL       n12        13    -0.20382       14.0070 ; qtot   -1.124
        14           n13bf         1   UNL       n13        14    -0.40752       14.0070 ; qtot   -1.531
        15           c14bf         1   UNL       c14        15     0.39145       12.0110 ; qtot   -1.140
        16           c15bf         1   UNL       c15        16    -0.16644       12.0110 ; qtot   -1.306
        17           c16bf         1   UNL       c16        17    -0.21412       12.0110 ; qtot   -1.520
        18           c17bf         1   UNL       c17        18     0.67439       12.0110 ; qtot   -0.846
        19           o18bf         1   UNL       o18        19    -0.61615       15.9990 ; qtot   -1.462
        20           c19bf         1   UNL       c19        20    -0.06971       12.0110 ; qtot   -1.532
        21           c20bf         1   UNL       c20        21    -0.15743       12.0110 ; qtot   -1.689
        22           c21bf         1   UNL       c21        22     0.15364       12.0110 ; qtot   -1.536
        23           f22bf         1   UNL       f22        23    -0.13656       18.9980 ; qtot   -1.672
        24           c23bf         1   UNL       c23        24    -0.19537       12.0110 ; qtot   -1.868
        25           c24bf         1   UNL       c24        25     0.15364       12.0110 ; qtot   -1.714
        26           f25bf         1   UNL       f25        26    -0.13656       18.9980 ; qtot   -1.851
        27           c26bf         1   UNL       c26        27    -0.15743       12.0110 ; qtot   -2.008
        28           c27bf         1   UNL       c27        28    -0.14967       12.0110 ; qtot   -2.158
        29           h28bf         1   UNL       h28        29     0.04680        1.0080 ; qtot   -2.111
        30           h29bf         1   UNL       h29        30     0.04680        1.0080 ; qtot   -2.064
        31           h30bf         1   UNL       h30        31     0.04680        1.0080 ; qtot   -2.017
        32           h31bf         1   UNL       h31        32     0.05961        1.0080 ; qtot   -1.958
        33           h32bf         1   UNL       h32        33     0.05961        1.0080 ; qtot   -1.898
        34           h33bf         1   UNL       h33        34     0.33729        1.0080 ; qtot   -1.561
        35           h34bf         1   UNL       h34        35     0.14950        1.0080 ; qtot   -1.411
        36           h35bf         1   UNL       h35        36     0.13294        1.0080 ; qtot   -1.278
        37           h36bf         1   UNL       h36        37     0.14021        1.0080 ; qtot   -1.138
        38           h37bf         1   UNL       h37        38     0.08056        1.0080 ; qtot   -1.058
        39           h38bf         1   UNL       h38        39     0.08056        1.0080 ; qtot   -0.977
        40           h39bf         1   UNL       h39        40     0.15224        1.0080 ; qtot   -0.825
        41           h40bf         1   UNL       h40        41     0.16763        1.0080 ; qtot   -0.657
        42           h41bf         1   UNL       h41        42     0.16641        1.0080 ; qtot   -0.491
        43           h42bf         1   UNL       h42        43     0.17223        1.0080 ; qtot   -0.318
        44           h43bf         1   UNL       h43        44     0.16641        1.0080 ; qtot   -0.152
        45           h44bf         1   UNL       h44        45     0.15205        1.0080 ; qtot    0.000

[ bonds ]
;       ai        aj funct               r               k
         1         2     1        0.152703   225873.842676    ;  uncertainty r = 0.000059, k = 4.069816
         1        29     1        0.109564   311306.148047    ;  uncertainty r = 0.000014, k = 1.738290
         1        30     1        0.109564   311306.148047    ;  uncertainty r = 0.000014, k = 1.738290
         1        31     1        0.109564   311306.148047    ;  uncertainty r = 0.000014, k = 1.738290
         2         3     1        0.143932   237441.233887    ;  uncertainty r = 0.000065, k = 9.490683
         2        32     1        0.109354   307707.662891    ;  uncertainty r = 0.000029, k = 1.221840
         2        33     1        0.109354   307707.662891    ;  uncertainty r = 0.000029, k = 1.221840
         3         4     1        0.135070   308420.607910    ;  uncertainty r = 0.000135, k = 3.522350
         4         5     1        0.122565   644298.256152    ;  uncertainty r = 0.000032, k = 9.797617
         4         6     1        0.138160   346302.483643    ;  uncertainty r = 0.000091, k = 21.025480
         6         7     1        0.141076   333335.301318    ;  uncertainty r = 0.000105, k = 7.499574
         6        34     1        0.101866   432896.753027    ;  uncertainty r = 0.000029, k = 5.130935
         7         8     1        0.140186   352899.102051    ;  uncertainty r = 0.000034, k = 2.422065
         7        28     1        0.140069   349368.443457    ;  uncertainty r = 0.000052, k = 3.734286
         8         9     1        0.139409   370601.758252    ;  uncertainty r = 0.000025, k = 3.328321
         8        35     1        0.108704   336382.006152    ;  uncertainty r = 0.000016, k = 2.175057
         9        10     1        0.139634   368272.569580    ;  uncertainty r = 0.000034, k = 1.652810
         9        36     1        0.108798   332993.129590    ;  uncertainty r = 0.000011, k = 1.633844
        10        11     1        0.139725   354881.088184    ;  uncertainty r = 0.000047, k = 2.055334
        10        37     1        0.108829   333246.100195    ;  uncertainty r = 0.000010, k = 0.920735
        11        12     1        0.151453   228443.973975    ;  uncertainty r = 0.000025, k = 5.149703
        11        28     1        0.139364   348866.664795    ;  uncertainty r = 0.000054, k = 5.388356
        12        13     1        0.146965   226363.669971    ;  uncertainty r = 0.000065, k = 7.980729
        12        38     1        0.109290   307674.004980    ;  uncertainty r = 0.000021, k = 0.780846
        12        39     1        0.109290   307673.979443    ;  uncertainty r = 0.000021, k = 0.780857
        13        14     1        0.133719   291839.975684    ;  uncertainty r = 0.000103, k = 13.619026
        13        18     1        0.139210   287082.463281    ;  uncertainty r = 0.000112, k = 8.370610
        14        15     1        0.130260   486820.964258    ;  uncertainty r = 0.000104, k = 8.324314
        15        16     1        0.143148   246844.814746    ;  uncertainty r = 0.000136, k = 10.011203
        15        20     1        0.147088   262485.477051    ;  uncertainty r = 0.000091, k = 9.142570
        16        17     1        0.134977   481508.785840    ;  uncertainty r = 0.000047, k = 10.409223
        16        40     1        0.108783   336902.886572    ;  uncertainty r = 0.000050, k = 1.619691
        17        18     1        0.145432   272577.129785    ;  uncertainty r = 0.000089, k = 4.402721
        17        41     1        0.108708   341990.721484    ;  uncertainty r = 0.000030, k = 2.410372
        18        19     1        0.124008   735950.379883    ;  uncertainty r = 0.000059, k = 6.569265
        20        21     1        0.139863   351792.144971    ;  uncertainty r = 0.000071, k = 3.727366
        20        27     1        0.139863   351792.144971    ;  uncertainty r = 0.000071, k = 3.727335
        21        22     1        0.138801   355605.524902    ;  uncertainty r = 0.000040, k = 2.002096
        21        42     1        0.108712   335835.333252    ;  uncertainty r = 0.000032, k = 0.851157
        22        23     1        0.135275   339582.801904    ;  uncertainty r = 0.000035, k = 2.432588
        22        24     1        0.139032   365693.244922    ;  uncertainty r = 0.000026, k = 3.713255
        24        25     1        0.139032   365693.193848    ;  uncertainty r = 0.000026, k = 3.713232
        24        43     1        0.108762   339358.024268    ;  uncertainty r = 0.000015, k = 0.997650
        25        26     1        0.135275   339582.852979    ;  uncertainty r = 0.000035, k = 2.432590
        25        27     1        0.138801   355605.524902    ;  uncertainty r = 0.000040, k = 2.002135
        27        44     1        0.108712   335835.307715    ;  uncertainty r = 0.000032, k = 0.851177
        28        45     1        0.108829   333785.265186    ;  uncertainty r = 0.000052, k = 2.324969

[ angles ]
;       ai        aj        ak funct           theta             cth
         1         2         3     1      108.988388      614.695779    ;  uncertainty theta = 0.001254, k = 0.086985
         1         2        32     1      110.736000      415.113789    ;  uncertainty theta = 0.001847, k = 0.042376
         1         2        33     1      110.736000      415.113789    ;  uncertainty theta = 0.001847, k = 0.042376
         2         1        29     1      107.858353      407.989478    ;  uncertainty theta = 0.001951, k = 0.019114
         2         1        30     1      107.858353      407.989478    ;  uncertainty theta = 0.001951, k = 0.019114
         2         1        31     1      107.858353      407.989478    ;  uncertainty theta = 0.001951, k = 0.019114
         2         3         4     1      111.014305      527.305652    ;  uncertainty theta = 0.004865, k = 0.159107
         3         2        32     1      105.554771      420.153123    ;  uncertainty theta = 0.002531, k = 0.050975
         3         2        33     1      105.554771      420.153123    ;  uncertainty theta = 0.002531, k = 0.050975
         3         4         5     1      124.348732      619.420208    ;  uncertainty theta = 0.003831, k = 0.108150
         3         4         6     1      110.509315      624.848887    ;  uncertainty theta = 0.005861, k = 0.124393
         4         6         7     1      116.931847      430.357943    ;  uncertainty theta = 0.003818, k = 0.143823
         4         6        34     1      116.078857      366.476002    ;  uncertainty theta = 0.004011, k = 0.087061
         5         4         6     1      124.807724      671.487246    ;  uncertainty theta = 0.003566, k = 0.148338
         6         7         8     1      120.065506      531.641566    ;  uncertainty theta = 0.004001, k = 0.118810
         6         7        28     1      119.671364      529.186205    ;  uncertainty theta = 0.004041, k = 0.130987
         7         6        34     1      113.870056      315.075387    ;  uncertainty theta = 0.008233, k = 0.139557
         7         8         9     1      118.594276      510.018466    ;  uncertainty theta = 0.001819, k = 0.112867
         7         8        35     1      119.090187      268.230241    ;  uncertainty theta = 0.002329, k = 0.029093
         7        28        11     1      120.252426      520.259421    ;  uncertainty theta = 0.003614, k = 0.054614
         7        28        45     1      119.097778      273.854790    ;  uncertainty theta = 0.002931, k = 0.063198
         8         7        28     1      120.105507      370.063200    ;  uncertainty theta = 0.006223, k = 0.047735
         8         9        10     1      120.600754      497.371659    ;  uncertainty theta = 0.002700, k = 0.081478
         8         9        36     1      119.752975      279.519240    ;  uncertainty theta = 0.001747, k = 0.036118
         9         8        35     1      121.147278      313.787998    ;  uncertainty theta = 0.001651, k = 0.077590
         9        10        11     1      119.270897      516.501923    ;  uncertainty theta = 0.002340, k = 0.045046
         9        10        37     1      120.679565      293.795090    ;  uncertainty theta = 0.002153, k = 0.029574
        10         9        36     1      120.257736      282.073589    ;  uncertainty theta = 0.001426, k = 0.031912
        10        11        12     1      120.424866      423.871996    ;  uncertainty theta = 0.001310, k = 0.060262
        10        11        28     1      120.953552      449.928051    ;  uncertainty theta = 0.001670, k = 0.163937
        11        10        37     1      119.290146      270.091130    ;  uncertainty theta = 0.002426, k = 0.051603
        11        12        13     1      111.927551      645.672740    ;  uncertainty theta = 0.001797, k = 0.124936
        11        12        38     1      108.925598      418.083914    ;  uncertainty theta = 0.001832, k = 0.057006
        11        12        39     1      108.925598      418.083914    ;  uncertainty theta = 0.001832, k = 0.057006
        11        28        45     1      119.717880      283.192849    ;  uncertainty theta = 0.002777, k = 0.118835
        12        11        28     1      119.224709      396.563633    ;  uncertainty theta = 0.002532, k = 0.147585
        12        13        14     1      110.598839      500.139946    ;  uncertainty theta = 0.005840, k = 0.101735
        12        13        18     1      115.549644      389.321596    ;  uncertainty theta = 0.005941, k = 0.248220
        13        12        38     1      105.433105      444.170327    ;  uncertainty theta = 0.001589, k = 0.052748
        13        12        39     1      105.433105      444.170327    ;  uncertainty theta = 0.001589, k = 0.052748
        13        14        15     1      119.599083      506.750546    ;  uncertainty theta = 0.009383, k = 0.233462
        13        18        17     1      111.385658      354.543852    ;  uncertainty theta = 0.004876, k = 0.498398
        13        18        19     1      122.027390      653.228724    ;  uncertainty theta = 0.001797, k = 0.051888
        14        13        18     1      124.130821      552.011816    ;  uncertainty theta = 0.006513, k = 0.232378
        14        15        16     1      126.192650      534.970839    ;  uncertainty theta = 0.003715, k = 0.203915
        14        15        20     1      116.228676      442.181529    ;  uncertainty theta = 0.006577, k = 0.257504
        15        16        17     1      119.137741      483.732417    ;  uncertainty theta = 0.004425, k = 0.316234
        15        16        40     1      118.496231      262.252068    ;  uncertainty theta = 0.005672, k = 0.058663
        15        20        21     1      118.724350      391.877126    ;  uncertainty theta = 0.002727, k = 0.206133
        15        20        27     1      118.724350      391.877094    ;  uncertainty theta = 0.002727, k = 0.206133
        16        15        20     1      120.406021      386.651563    ;  uncertainty theta = 0.002392, k = 0.102654
        16        17        18     1      119.665359      523.118907    ;  uncertainty theta = 0.005349, k = 0.100266
        16        17        41     1      123.138992      265.275997    ;  uncertainty theta = 0.005028, k = 0.152927
        17        16        40     1      122.361343      282.774455    ;  uncertainty theta = 0.005531, k = 0.167097
        17        18        19     1      127.351967      536.919129    ;  uncertainty theta = 0.003562, k = 0.161864
        18        17        41     1      117.583885      254.681432    ;  uncertainty theta = 0.006644, k = 0.184684
        20        21        22     1      118.720169      498.330993    ;  uncertainty theta = 0.002325, k = 0.126937
        20        21        42     1      120.100601      263.055497    ;  uncertainty theta = 0.002410, k = 0.043472
        20        27        25     1      118.720169      498.330993    ;  uncertainty theta = 0.002325, k = 0.126937
        20        27        44     1      120.100601      263.055497    ;  uncertainty theta = 0.002410, k = 0.043473
        21        20        27     1      122.382584      431.454570    ;  uncertainty theta = 0.000960, k = 0.097327
        21        22        23     1      118.785866      507.579736    ;  uncertainty theta = 0.002109, k = 0.057206
        21        22        24     1      123.859070      366.023038    ;  uncertainty theta = 0.005134, k = 0.176821
        22        21        42     1      120.887062      288.478009    ;  uncertainty theta = 0.000717, k = 0.013022
        22        24        25     1      115.525314      473.107958    ;  uncertainty theta = 0.002651, k = 0.198626
        22        24        43     1      122.239304      279.302525    ;  uncertainty theta = 0.002821, k = 0.053520
        23        22        24     1      118.429832      503.503502    ;  uncertainty theta = 0.002161, k = 0.048153
        24        25        26     1      118.429825      503.503502    ;  uncertainty theta = 0.002161, k = 0.048153
        24        25        27     1      123.859070      366.023069    ;  uncertainty theta = 0.005134, k = 0.176822
        25        24        43     1      122.239304      279.302525    ;  uncertainty theta = 0.002821, k = 0.053520
        25        27        44     1      120.887062      288.478041    ;  uncertainty theta = 0.000717, k = 0.013022
        26        25        27     1      118.785866      507.579768    ;  uncertainty theta = 0.002109, k = 0.057206
        29         1        30     1      105.452682      313.949232    ;  uncertainty theta = 0.002465, k = 0.013086
        29         1        31     1      105.452682      313.949232    ;  uncertainty theta = 0.002465, k = 0.013086
        30         1        31     1      105.452682      313.949232    ;  uncertainty theta = 0.002465, k = 0.013086
        32         2        33     1      107.311073      326.415236    ;  uncertainty theta = 0.002075, k = 0.036530
        38        12        39     1      106.064781      312.971385    ;  uncertainty theta = 0.003438, k = 0.064673

[ dihedrals ] ; propers for gromacs 4.5 or higher, use funct 9
;       ai        aj        ak        al funct           phase               k        pn
         1         2         3         4     9        0.000000       -0.621014         1    ;  uncertainty k = 0.482833
         1         2         3         4     9      180.000000        1.863106         2    ;  uncertainty k = 0.281736
         1         2         3         4     9        0.000000       -0.209257         3    ;  uncertainty k = 0.236560
         1         2         3         4     9      180.000000        0.623027         4    ;  uncertainty k = 0.037189
         2         3         4         5     9        0.000000        5.097237         1    ;  uncertainty k = 0.746557
         2         3         4         5     9      180.000000       11.164306         2    ;  uncertainty k = 0.258219
         2         3         4         5     9        0.000000        0.590661         3    ;  uncertainty k = 0.333363
         2         3         4         5     9      180.000000        0.227636         4    ;  uncertainty k = 0.226870
         2         3         4         6     9        0.000000        3.635772         1    ;  uncertainty k = 1.446077
         2         3         4         6     9      180.000000        9.095197         2    ;  uncertainty k = 0.089465
         2         3         4         6     9        0.000000        0.553794         3    ;  uncertainty k = 0.305675
         2         3         4         6     9      180.000000        0.322633         4    ;  uncertainty k = 0.209676
         3         2         1        29     9        0.000000       -0.524884         1    ;  uncertainty k = 0.404973
         3         2         1        29     9      180.000000       -3.984237         2    ;  uncertainty k = 0.280864
         3         2         1        29     9        0.000000        1.541842         3    ;  uncertainty k = 0.057030
         3         2         1        29     9      180.000000       -0.175136         4    ;  uncertainty k = 0.083376
         3         2         1        30     9        0.000000       -0.524884         1    ;  uncertainty k = 0.404973
         3         2         1        30     9      180.000000       -3.984237         2    ;  uncertainty k = 0.280864
         3         2         1        30     9        0.000000        1.541842         3    ;  uncertainty k = 0.057030
         3         2         1        30     9      180.000000       -0.175136         4    ;  uncertainty k = 0.083376
         3         2         1        31     9        0.000000       -0.524884         1    ;  uncertainty k = 0.404973
         3         2         1        31     9      180.000000       -3.984237         2    ;  uncertainty k = 0.280864
         3         2         1        31     9        0.000000        1.541842         3    ;  uncertainty k = 0.057030
         3         2         1        31     9      180.000000       -0.175136         4    ;  uncertainty k = 0.083376
         3         4         6         7     9        0.000000        5.241258         1    ;  uncertainty k = 1.328710
         3         4         6         7     9      180.000000        8.976012         2    ;  uncertainty k = 0.743150
         3         4         6         7     9        0.000000        1.810889         3    ;  uncertainty k = 0.441780
         3         4         6         7     9      180.000000       -0.386861         4    ;  uncertainty k = 0.278472
         3         4         6        34     9        0.000000        2.527078         1    ;  uncertainty k = 1.204704
         3         4         6        34     9      180.000000        7.918509         2    ;  uncertainty k = 0.432915
         3         4         6        34     9        0.000000        1.653476         3    ;  uncertainty k = 0.213851
         3         4         6        34     9      180.000000       -0.046722         4    ;  uncertainty k = 0.323150
         4         3         2        32     9        0.000000        4.805248         1    ;  uncertainty k = 0.188002
         4         3         2        32     9      180.000000        0.489422         2    ;  uncertainty k = 0.097112
         4         3         2        32     9        0.000000        0.144001         3    ;  uncertainty k = 0.079824
         4         3         2        32     9      180.000000        0.494442         4    ;  uncertainty k = 0.097904
         4         3         2        33     9        0.000000        4.805248         1    ;  uncertainty k = 0.188002
         4         3         2        33     9      180.000000        0.489422         2    ;  uncertainty k = 0.097112
         4         3         2        33     9        0.000000        0.144001         3    ;  uncertainty k = 0.079824
         4         3         2        33     9      180.000000        0.494442         4    ;  uncertainty k = 0.097904
         4         6         7         8     9        0.000000        1.156090         1    ;  uncertainty k = 0.615129
         4         6         7         8     9      180.000000        3.868343         2    ;  uncertainty k = 0.066278
         4         6         7         8     9        0.000000        0.890312         3    ;  uncertainty k = 0.052632
         4         6         7         8     9      180.000000        0.273888         4    ;  uncertainty k = 0.046495
         4         6         7        28     9        0.000000        1.036476         1    ;  uncertainty k = 0.693702
         4         6         7        28     9      180.000000        4.027937         2    ;  uncertainty k = 0.138763
         4         6         7        28     9        0.000000        0.819659         3    ;  uncertainty k = 0.112529
         4         6         7        28     9      180.000000        0.281348         4    ;  uncertainty k = 0.069197
         5         4         6         7     9        0.000000        4.680377         1    ;  uncertainty k = 1.311096
         5         4         6         7     9      180.000000       12.101419         2    ;  uncertainty k = 0.224966
         5         4         6         7     9        0.000000        0.762449         3    ;  uncertainty k = 0.202998
         5         4         6         7     9      180.000000       -0.945534         4    ;  uncertainty k = 0.140485
         5         4         6        34     9        0.000000        2.786268         1    ;  uncertainty k = 0.570773
         5         4         6        34     9      180.000000       13.969354         2    ;  uncertainty k = 0.257610
         5         4         6        34     9        0.000000        1.716924         3    ;  uncertainty k = 0.309360
         5         4         6        34     9      180.000000       -0.390553         4    ;  uncertainty k = 0.258326
         6         7         8         9     9        0.000000        0.063853         1    ;  uncertainty k = 0.280690
         6         7         8         9     9      180.000000       10.253822         2    ;  uncertainty k = 0.581909
         6         7         8         9     9        0.000000        1.078668         3    ;  uncertainty k = 0.402797
         6         7         8         9     9      180.000000        1.686098         4    ;  uncertainty k = 0.286725
         6         7         8        35     9        0.000000       -0.143784         1    ;  uncertainty k = 0.216337
         6         7         8        35     9      180.000000        8.021172         2    ;  uncertainty k = 0.326898
         6         7         8        35     9        0.000000        0.839062         3    ;  uncertainty k = 0.284763
         6         7         8        35     9      180.000000        1.171640         4    ;  uncertainty k = 0.163651
         6         7        28        11     9        0.000000        0.000290         1    ;  uncertainty k = 0.192850
         6         7        28        11     9      180.000000       10.294687         2    ;  uncertainty k = 0.502851
         6         7        28        11     9        0.000000        1.181242         3    ;  uncertainty k = 0.412068
         6         7        28        11     9      180.000000        1.683166         4    ;  uncertainty k = 0.279692
         6         7        28        45     9        0.000000       -0.072597         1    ;  uncertainty k = 0.159575
         6         7        28        45     9      180.000000        8.254417         2    ;  uncertainty k = 0.404029
         6         7        28        45     9        0.000000        0.817632         3    ;  uncertainty k = 0.261543
         6         7        28        45     9      180.000000        1.190427         4    ;  uncertainty k = 0.147527
         7         8         9        10     9        0.000000       -0.233245         1    ;  uncertainty k = 0.247171
         7         8         9        10     9      180.000000       14.235955         2    ;  uncertainty k = 0.154211
         7         8         9        10     9        0.000000       -0.849909         3    ;  uncertainty k = 0.363333
         7         8         9        10     9      180.000000        0.754478         4    ;  uncertainty k = 0.236492
         7         8         9        36     9        0.000000       -0.046695         1    ;  uncertainty k = 0.153625
         7         8         9        36     9      180.000000        7.994590         2    ;  uncertainty k = 0.480593
         7         8         9        36     9        0.000000        1.316534         3    ;  uncertainty k = 0.244315
         7         8         9        36     9      180.000000        1.659830         4    ;  uncertainty k = 0.101881
         7        28        11        10     9        0.000000       -0.365465         1    ;  uncertainty k = 0.138733
         7        28        11        10     9      180.000000       12.105866         2    ;  uncertainty k = 0.340422
         7        28        11        10     9        0.000000       -0.249559         3    ;  uncertainty k = 0.264224
         7        28        11        10     9      180.000000        0.898484         4    ;  uncertainty k = 0.363792
         7        28        11        12     9        0.000000       -0.038400         1    ;  uncertainty k = 0.244752
         7        28        11        12     9      180.000000        9.661107         2    ;  uncertainty k = 0.587837
         7        28        11        12     9        0.000000        1.415434         3    ;  uncertainty k = 0.218087
         7        28        11        12     9      180.000000        1.779770         4    ;  uncertainty k = 0.338951
         8         7         6        34     9        0.000000        0.849415         1    ;  uncertainty k = 0.684932
         8         7         6        34     9      180.000000        3.526448         2    ;  uncertainty k = 0.180576
         8         7         6        34     9        0.000000        0.785570         3    ;  uncertainty k = 0.091359
         8         7         6        34     9      180.000000        0.333015         4    ;  uncertainty k = 0.078858
         8         7        28        11     9        0.000000       -0.036522         1    ;  uncertainty k = 0.127665
         8         7        28        11     9      180.000000        8.885112         2    ;  uncertainty k = 0.490802
         8         7        28        11     9        0.000000        0.120816         3    ;  uncertainty k = 0.259069
         8         7        28        11     9      180.000000        1.286895         4    ;  uncertainty k = 0.266578
         8         7        28        45     9        0.000000        0.314196         1    ;  uncertainty k = 0.489459
         8         7        28        45     9      180.000000        6.970950         2    ;  uncertainty k = 0.549918
         8         7        28        45     9        0.000000        1.368944         3    ;  uncertainty k = 0.283180
         8         7        28        45     9      180.000000        1.552615         4    ;  uncertainty k = 0.142344
         8         9        10        11     9        0.000000       -0.214211         1    ;  uncertainty k = 0.125753
         8         9        10        11     9      180.000000       14.120853         2    ;  uncertainty k = 0.457236
         8         9        10        11     9        0.000000       -1.065438         3    ;  uncertainty k = 0.377530
         8         9        10        11     9      180.000000        0.671541         4    ;  uncertainty k = 0.254726
         8         9        10        37     9        0.000000        0.083889         1    ;  uncertainty k = 0.201425
         8         9        10        37     9      180.000000        7.881367         2    ;  uncertainty k = 0.386824
         8         9        10        37     9        0.000000        1.402035         3    ;  uncertainty k = 0.296255
         8         9        10        37     9      180.000000        1.800265         4    ;  uncertainty k = 0.151512
         9         8         7        28     9        0.000000       -0.132184         1    ;  uncertainty k = 0.166343
         9         8         7        28     9      180.000000        9.694270         2    ;  uncertainty k = 0.368234
         9         8         7        28     9        0.000000       -0.123174         3    ;  uncertainty k = 0.110614
         9         8         7        28     9      180.000000        1.178931         4    ;  uncertainty k = 0.251672
         9        10        11        12     9        0.000000        0.210125         1    ;  uncertainty k = 0.215012
         9        10        11        12     9      180.000000        9.761302         2    ;  uncertainty k = 0.589647
         9        10        11        12     9        0.000000        1.300306         3    ;  uncertainty k = 0.330587
         9        10        11        12     9      180.000000        1.786170         4    ;  uncertainty k = 0.244823
         9        10        11        28     9        0.000000       -0.241516         1    ;  uncertainty k = 0.159642
         9        10        11        28     9      180.000000       12.307711         2    ;  uncertainty k = 0.439249
         9        10        11        28     9        0.000000       -0.637036         3    ;  uncertainty k = 0.308994
         9        10        11        28     9      180.000000        0.749612         4    ;  uncertainty k = 0.374826
        10         9         8        35     9        0.000000        0.051402         1    ;  uncertainty k = 0.049411
        10         9         8        35     9      180.000000        7.968770         2    ;  uncertainty k = 0.369167
        10         9         8        35     9        0.000000        1.455927         3    ;  uncertainty k = 0.282644
        10         9         8        35     9      180.000000        1.863727         4    ;  uncertainty k = 0.229372
        10        11        12        13     9        0.000000        1.836254         1    ;  uncertainty k = 0.824467
        10        11        12        13     9      180.000000        2.325637         2    ;  uncertainty k = 0.303280
        10        11        12        13     9        0.000000        0.608227         3    ;  uncertainty k = 0.123113
        10        11        12        13     9      180.000000        0.109860         4    ;  uncertainty k = 0.055470
        10        11        12        38     9        0.000000       -0.584742         1    ;  uncertainty k = 0.281895
        10        11        12        38     9      180.000000        2.026335         2    ;  uncertainty k = 0.152855
        10        11        12        38     9        0.000000        0.497942         3    ;  uncertainty k = 0.040362
        10        11        12        38     9      180.000000        0.150395         4    ;  uncertainty k = 0.040543
        10        11        12        39     9        0.000000       -0.584742         1    ;  uncertainty k = 0.281895
        10        11        12        39     9      180.000000        2.026335         2    ;  uncertainty k = 0.152855
        10        11        12        39     9        0.000000        0.497942         3    ;  uncertainty k = 0.040362
        10        11        12        39     9      180.000000        0.150395         4    ;  uncertainty k = 0.040543
        10        11        28        45     9        0.000000        0.233111         1    ;  uncertainty k = 0.115858
        10        11        28        45     9      180.000000        7.838869         2    ;  uncertainty k = 0.562397
        10        11        28        45     9        0.000000        1.429931         3    ;  uncertainty k = 0.361200
        10        11        28        45     9      180.000000        1.671000         4    ;  uncertainty k = 0.144230
        11        10         9        36     9        0.000000        0.016581         1    ;  uncertainty k = 0.222151
        11        10         9        36     9      180.000000        7.432107         2    ;  uncertainty k = 0.440638
        11        10         9        36     9        0.000000        1.347616         3    ;  uncertainty k = 0.218065
        11        10         9        36     9      180.000000        1.724727         4    ;  uncertainty k = 0.135961
        11        12        13        14     9        0.000000        0.213656         1    ;  uncertainty k = 0.643387
        11        12        13        14     9      180.000000       -0.034757         2    ;  uncertainty k = 0.433132
        11        12        13        14     9        0.000000        0.775484         3    ;  uncertainty k = 0.335920
        11        12        13        14     9      180.000000        0.196087         4    ;  uncertainty k = 0.079432
        11        12        13        18     9        0.000000        1.515072         1    ;  uncertainty k = 0.548572
        11        12        13        18     9      180.000000        0.052634         2    ;  uncertainty k = 0.186939
        11        12        13        18     9        0.000000        0.176477         3    ;  uncertainty k = 0.225488
        11        12        13        18     9      180.000000        0.260304         4    ;  uncertainty k = 0.125183
        12        11        10        37     9        0.000000       -0.025819         1    ;  uncertainty k = 0.285179
        12        11        10        37     9      180.000000        7.522389         2    ;  uncertainty k = 0.270149
        12        11        10        37     9        0.000000        0.619494         3    ;  uncertainty k = 0.277883
        12        11        10        37     9      180.000000        1.015298         4    ;  uncertainty k = 0.197767
        12        11        28        45     9        0.000000       -0.055955         1    ;  uncertainty k = 0.223101
        12        11        28        45     9      180.000000        7.832169         2    ;  uncertainty k = 0.279774
        12        11        28        45     9        0.000000        0.560744         3    ;  uncertainty k = 0.284575
        12        11        28        45     9      180.000000        1.062391         4    ;  uncertainty k = 0.127439
        12        13        14        15     9        0.000000       -0.883013         1    ;  uncertainty k = 4.130766
        12        13        14        15     9      180.000000       12.873682         2    ;  uncertainty k = 0.835773
        12        13        14        15     9        0.000000        1.816017         3    ;  uncertainty k = 0.967457
        12        13        14        15     9      180.000000        0.130732         4    ;  uncertainty k = 0.447645
        12        13        18        17     9        0.000000        0.642342         1    ;  uncertainty k = 1.105839
        12        13        18        17     9      180.000000        7.717693         2    ;  uncertainty k = 0.353810
        12        13        18        17     9        0.000000        1.753361         3    ;  uncertainty k = 0.395672
        12        13        18        17     9      180.000000       -0.226969         4    ;  uncertainty k = 0.311365
        12        13        18        19     9        0.000000        0.933001         1    ;  uncertainty k = 1.275895
        12        13        18        19     9      180.000000       11.755139         2    ;  uncertainty k = 0.388002
        12        13        18        19     9        0.000000        0.655499         3    ;  uncertainty k = 0.128148
        12        13        18        19     9      180.000000       -0.185636         4    ;  uncertainty k = 0.344316
        13        12        11        28     9        0.000000        1.458659         1    ;  uncertainty k = 0.920543
        13        12        11        28     9      180.000000        2.435979         2    ;  uncertainty k = 0.374262
        13        12        11        28     9        0.000000        0.622421         3    ;  uncertainty k = 0.171188
        13        12        11        28     9      180.000000        0.099313         4    ;  uncertainty k = 0.111846
        13        14        15        16     9        0.000000        0.188393         1    ;  uncertainty k = 0.780216
        13        14        15        16     9      180.000000       24.687753         2    ;  uncertainty k = 0.176803
        13        14        15        16     9        0.000000        1.985802         3    ;  uncertainty k = 0.563904
        13        14        15        16     9      180.000000        0.690133         4    ;  uncertainty k = 0.279420
        13        14        15        20     9        0.000000       -0.043172         1    ;  uncertainty k = 0.548350
        13        14        15        20     9      180.000000       25.753064         2    ;  uncertainty k = 0.233339
        13        14        15        20     9        0.000000        2.942378         3    ;  uncertainty k = 0.125640
        13        14        15        20     9      180.000000        0.686554         4    ;  uncertainty k = 0.574272
        13        18        17        16     9        0.000000        0.419278         1    ;  uncertainty k = 2.274473
        13        18        17        16     9      180.000000        1.605236         2    ;  uncertainty k = 0.697545
        13        18        17        16     9        0.000000       -0.163994         3    ;  uncertainty k = 0.200172
        13        18        17        16     9      180.000000        0.325528         4    ;  uncertainty k = 0.077908
        13        18        17        41     9        0.000000       -1.120179         1    ;  uncertainty k = 2.456073
        13        18        17        41     9      180.000000        2.364370         2    ;  uncertainty k = 0.329357
        13        18        17        41     9        0.000000        0.459246         3    ;  uncertainty k = 0.206811
        13        18        17        41     9      180.000000        0.273913         4    ;  uncertainty k = 0.151693
        14        13        12        38     9        0.000000        0.384342         1    ;  uncertainty k = 0.533562
        14        13        12        38     9      180.000000        1.171207         2    ;  uncertainty k = 0.401915
        14        13        12        38     9        0.000000        0.582809         3    ;  uncertainty k = 0.073617
        14        13        12        38     9      180.000000        0.242043         4    ;  uncertainty k = 0.128011
        14        13        12        39     9        0.000000        0.384342         1    ;  uncertainty k = 0.533562
        14        13        12        39     9      180.000000        1.171207         2    ;  uncertainty k = 0.401915
        14        13        12        39     9        0.000000        0.582809         3    ;  uncertainty k = 0.073617
        14        13        12        39     9      180.000000        0.242043         4    ;  uncertainty k = 0.128011
        14        13        18        17     9        0.000000        2.898929         1    ;  uncertainty k = 2.397583
        14        13        18        17     9      180.000000        2.029916         2    ;  uncertainty k = 0.771883
        14        13        18        17     9        0.000000        1.223010         3    ;  uncertainty k = 0.519452
        14        13        18        17     9      180.000000        0.577304         4    ;  uncertainty k = 0.261783
        14        13        18        19     9        0.000000        2.605133         1    ;  uncertainty k = 1.172602
        14        13        18        19     9      180.000000       10.822449         2    ;  uncertainty k = 0.452983
        14        13        18        19     9        0.000000        1.231348         3    ;  uncertainty k = 0.502016
        14        13        18        19     9      180.000000       -0.281985         4    ;  uncertainty k = 0.368205
        14        15        16        17     9        0.000000        0.352014         1    ;  uncertainty k = 1.410780
        14        15        16        17     9      180.000000        4.437856         2    ;  uncertainty k = 0.753046
        14        15        16        17     9        0.000000        0.213422         3    ;  uncertainty k = 0.453700
        14        15        16        17     9      180.000000        0.599744         4    ;  uncertainty k = 0.185202
        14        15        16        40     9        0.000000       -0.968928         1    ;  uncertainty k = 0.799755
        14        15        16        40     9      180.000000        4.602265         2    ;  uncertainty k = 0.838958
        14        15        16        40     9        0.000000        0.753727         3    ;  uncertainty k = 0.438991
        14        15        16        40     9      180.000000        0.503348         4    ;  uncertainty k = 0.169976
        14        15        20        21     9        0.000000        0.577113         1    ;  uncertainty k = 0.839214
        14        15        20        21     9      180.000000        4.374001         2    ;  uncertainty k = 0.259899
        14        15        20        21     9        0.000000        0.310715         3    ;  uncertainty k = 0.200156
        14        15        20        21     9      180.000000       -0.034774         4    ;  uncertainty k = 0.102004
        14        15        20        27     9        0.000000        0.577112         1    ;  uncertainty k = 0.839214
        14        15        20        27     9      180.000000        4.374001         2    ;  uncertainty k = 0.259898
        14        15        20        27     9        0.000000        0.310715         3    ;  uncertainty k = 0.200157
        14        15        20        27     9      180.000000       -0.034774         4    ;  uncertainty k = 0.102004
        15        14        13        18     9        0.000000        3.891956         1    ;  uncertainty k = 2.526573
        15        14        13        18     9      180.000000        4.735669         2    ;  uncertainty k = 1.364246
        15        14        13        18     9        0.000000        1.841464         3    ;  uncertainty k = 0.687599
        15        14        13        18     9      180.000000        0.376448         4    ;  uncertainty k = 0.594894
        15        16        17        18     9        0.000000       -0.247895         1    ;  uncertainty k = 0.726732
        15        16        17        18     9      180.000000       17.791948         2    ;  uncertainty k = 0.335371
        15        16        17        18     9        0.000000        0.675076         3    ;  uncertainty k = 0.419223
        15        16        17        18     9      180.000000        0.996301         4    ;  uncertainty k = 0.368800
        15        16        17        41     9        0.000000       -0.353358         1    ;  uncertainty k = 0.789416
        15        16        17        41     9      180.000000       16.620934         2    ;  uncertainty k = 0.655545
        15        16        17        41     9        0.000000        1.944682         3    ;  uncertainty k = 0.309791
        15        16        17        41     9      180.000000        1.162896         4    ;  uncertainty k = 0.587297
        15        20        21        22     9        0.000000        0.184078         1    ;  uncertainty k = 0.251452
        15        20        21        22     9      180.000000        9.064982         2    ;  uncertainty k = 0.510143
        15        20        21        22     9        0.000000        1.393257         3    ;  uncertainty k = 0.168521
        15        20        21        22     9      180.000000        1.772060         4    ;  uncertainty k = 0.162457
        15        20        21        42     9        0.000000       -0.174783         1    ;  uncertainty k = 0.349607
        15        20        21        42     9      180.000000        7.187869         2    ;  uncertainty k = 0.358632
        15        20        21        42     9        0.000000        0.677750         3    ;  uncertainty k = 0.291506
        15        20        21        42     9      180.000000        1.081331         4    ;  uncertainty k = 0.227152
        15        20        27        25     9        0.000000        0.184079         1    ;  uncertainty k = 0.251450
        15        20        27        25     9      180.000000        9.064984         2    ;  uncertainty k = 0.510143
        15        20        27        25     9        0.000000        1.393256         3    ;  uncertainty k = 0.168522
        15        20        27        25     9      180.000000        1.772060         4    ;  uncertainty k = 0.162456
        15        20        27        44     9        0.000000       -0.174783         1    ;  uncertainty k = 0.349608
        15        20        27        44     9      180.000000        7.187870         2    ;  uncertainty k = 0.358633
        15        20        27        44     9        0.000000        0.677750         3    ;  uncertainty k = 0.291506
        15        20        27        44     9      180.000000        1.081331         4    ;  uncertainty k = 0.227152
        16        15        20        21     9        0.000000        0.063923         1    ;  uncertainty k = 0.802333
        16        15        20        21     9      180.000000        3.869396         2    ;  uncertainty k = 0.175768
        16        15        20        21     9        0.000000        0.641555         3    ;  uncertainty k = 0.157661
        16        15        20        21     9      180.000000       -0.162970         4    ;  uncertainty k = 0.081803
        16        15        20        27     9        0.000000        0.063923         1    ;  uncertainty k = 0.802332
        16        15        20        27     9      180.000000        3.869397         2    ;  uncertainty k = 0.175767
        16        15        20        27     9        0.000000        0.641555         3    ;  uncertainty k = 0.157661
        16        15        20        27     9      180.000000       -0.162970         4    ;  uncertainty k = 0.081803
        16        17        18        19     9        0.000000       -2.001816         1    ;  uncertainty k = 1.317032
        16        17        18        19     9      180.000000        3.389786         2    ;  uncertainty k = 0.746169
        16        17        18        19     9        0.000000       -0.174173         3    ;  uncertainty k = 0.227865
        16        17        18        19     9      180.000000        0.016096         4    ;  uncertainty k = 0.112368
        17        16        15        20     9        0.000000        0.540598         1    ;  uncertainty k = 0.803544
        17        16        15        20     9      180.000000        4.601494         2    ;  uncertainty k = 0.981891
        17        16        15        20     9        0.000000        0.716168         3    ;  uncertainty k = 0.328634
        17        16        15        20     9      180.000000        0.575741         4    ;  uncertainty k = 0.279114
        18        13        12        38     9        0.000000       -0.478630         1    ;  uncertainty k = 0.533397
        18        13        12        38     9      180.000000        1.254728         2    ;  uncertainty k = 0.272602
        18        13        12        38     9        0.000000        0.780641         3    ;  uncertainty k = 0.056035
        18        13        12        38     9      180.000000        0.412515         4    ;  uncertainty k = 0.035759
        18        13        12        39     9        0.000000       -0.478630         1    ;  uncertainty k = 0.533397
        18        13        12        39     9      180.000000        1.254728         2    ;  uncertainty k = 0.272602
        18        13        12        39     9        0.000000        0.780641         3    ;  uncertainty k = 0.056035
        18        13        12        39     9      180.000000        0.412515         4    ;  uncertainty k = 0.035759
        18        17        16        40     9        0.000000       -0.328809         1    ;  uncertainty k = 0.661921
        18        17        16        40     9      180.000000       15.838400         2    ;  uncertainty k = 0.436273
        18        17        16        40     9        0.000000        1.792267         3    ;  uncertainty k = 0.273244
        18        17        16        40     9      180.000000        1.039596         4    ;  uncertainty k = 0.351736
        19        18        17        41     9        0.000000       -3.368927         1    ;  uncertainty k = 1.838218
        19        18        17        41     9      180.000000        6.946407         2    ;  uncertainty k = 0.848337
        19        18        17        41     9        0.000000        0.461531         3    ;  uncertainty k = 0.415057
        19        18        17        41     9      180.000000       -0.155191         4    ;  uncertainty k = 0.180479
        20        15        16        40     9        0.000000       -0.583861         1    ;  uncertainty k = 1.092916
        20        15        16        40     9      180.000000        5.200620         2    ;  uncertainty k = 0.384920
        20        15        16        40     9        0.000000        1.054483         3    ;  uncertainty k = 0.197088
        20        15        16        40     9      180.000000        0.361604         4    ;  uncertainty k = 0.155457
        20        21        22        23     9        0.000000       -0.049880         1    ;  uncertainty k = 0.257803
        20        21        22        23     9      180.000000       12.651865         2    ;  uncertainty k = 0.408916
        20        21        22        23     9        0.000000        1.531328         3    ;  uncertainty k = 0.260602
        20        21        22        23     9      180.000000        1.472262         4    ;  uncertainty k = 0.165252
        20        21        22        24     9        0.000000        0.057717         1    ;  uncertainty k = 0.164909
        20        21        22        24     9      180.000000        8.885300         2    ;  uncertainty k = 0.653772
        20        21        22        24     9        0.000000       -0.076192         3    ;  uncertainty k = 0.320382
        20        21        22        24     9      180.000000        1.240042         4    ;  uncertainty k = 0.346858
        20        27        25        24     9        0.000000        0.057718         1    ;  uncertainty k = 0.164909
        20        27        25        24     9      180.000000        8.885300         2    ;  uncertainty k = 0.653771
        20        27        25        24     9        0.000000       -0.076192         3    ;  uncertainty k = 0.320383
        20        27        25        24     9      180.000000        1.240042         4    ;  uncertainty k = 0.346858
        20        27        25        26     9        0.000000       -0.049879         1    ;  uncertainty k = 0.257803
        20        27        25        26     9      180.000000       12.651865         2    ;  uncertainty k = 0.408916
        20        27        25        26     9        0.000000        1.531328         3    ;  uncertainty k = 0.260602
        20        27        25        26     9      180.000000        1.472261         4    ;  uncertainty k = 0.165252
        21        20        27        25     9        0.000000        0.022121         1    ;  uncertainty k = 0.243825
        21        20        27        25     9      180.000000       11.046753         2    ;  uncertainty k = 0.290032
        21        20        27        25     9        0.000000       -0.498760         3    ;  uncertainty k = 0.387970
        21        20        27        25     9      180.000000        1.024180         4    ;  uncertainty k = 0.289071
        21        20        27        44     9        0.000000        0.218088         1    ;  uncertainty k = 0.243952
        21        20        27        44     9      180.000000        6.917737         2    ;  uncertainty k = 0.583903
        21        20        27        44     9        0.000000        1.463818         3    ;  uncertainty k = 0.217536
        21        20        27        44     9      180.000000        1.686540         4    ;  uncertainty k = 0.256320
        21        22        24        25     9        0.000000        0.079700         1    ;  uncertainty k = 0.154156
        21        22        24        25     9      180.000000        8.889417         2    ;  uncertainty k = 0.512494
        21        22        24        25     9        0.000000       -0.106306         3    ;  uncertainty k = 0.476972
        21        22        24        25     9      180.000000        1.234736         4    ;  uncertainty k = 0.285242
        21        22        24        43     9        0.000000        0.130307         1    ;  uncertainty k = 0.144653
        21        22        24        43     9      180.000000        5.532844         2    ;  uncertainty k = 0.680369
        21        22        24        43     9        0.000000        1.265320         3    ;  uncertainty k = 0.294957
        21        22        24        43     9      180.000000        1.481410         4    ;  uncertainty k = 0.077611
        22        21        20        27     9        0.000000        0.022121         1    ;  uncertainty k = 0.243825
        22        21        20        27     9      180.000000       11.046753         2    ;  uncertainty k = 0.290033
        22        21        20        27     9        0.000000       -0.498760         3    ;  uncertainty k = 0.387970
        22        21        20        27     9      180.000000        1.024180         4    ;  uncertainty k = 0.289072
        22        24        25        26     9        0.000000       -0.032347         1    ;  uncertainty k = 0.289699
        22        24        25        26     9      180.000000       12.548672         2    ;  uncertainty k = 0.646212
        22        24        25        26     9        0.000000        1.557435         3    ;  uncertainty k = 0.311241
        22        24        25        26     9      180.000000        1.512893         4    ;  uncertainty k = 0.296058
        22        24        25        27     9        0.000000        0.079700         1    ;  uncertainty k = 0.154156
        22        24        25        27     9      180.000000        8.889415         2    ;  uncertainty k = 0.512494
        22        24        25        27     9        0.000000       -0.106306         3    ;  uncertainty k = 0.476971
        22        24        25        27     9      180.000000        1.234736         4    ;  uncertainty k = 0.285241
        23        22        21        42     9        0.000000       -0.415350         1    ;  uncertainty k = 0.228614
        23        22        21        42     9      180.000000        9.086429         2    ;  uncertainty k = 0.377300
        23        22        21        42     9        0.000000        0.802704         3    ;  uncertainty k = 0.232487
        23        22        21        42     9      180.000000        1.043252         4    ;  uncertainty k = 0.211577
        23        22        24        25     9        0.000000       -0.032345         1    ;  uncertainty k = 0.289698
        23        22        24        25     9      180.000000       12.548674         2    ;  uncertainty k = 0.646212
        23        22        24        25     9        0.000000        1.557435         3    ;  uncertainty k = 0.311241
        23        22        24        25     9      180.000000        1.512892         4    ;  uncertainty k = 0.296059
        23        22        24        43     9        0.000000       -0.234235         1    ;  uncertainty k = 0.255324
        23        22        24        43     9      180.000000        8.539480         2    ;  uncertainty k = 0.302303
        23        22        24        43     9        0.000000        0.791091         3    ;  uncertainty k = 0.302726
        23        22        24        43     9      180.000000        0.996026         4    ;  uncertainty k = 0.177952
        24        22        21        42     9        0.000000       -0.021691         1    ;  uncertainty k = 0.235351
        24        22        21        42     9      180.000000        5.842807         2    ;  uncertainty k = 0.659900
        24        22        21        42     9        0.000000        1.305046         3    ;  uncertainty k = 0.309757
        24        22        21        42     9      180.000000        1.641078         4    ;  uncertainty k = 0.167200
        24        25        27        44     9        0.000000       -0.021690         1    ;  uncertainty k = 0.235350
        24        25        27        44     9      180.000000        5.842806         2    ;  uncertainty k = 0.659901
        24        25        27        44     9        0.000000        1.305046         3    ;  uncertainty k = 0.309758
        24        25        27        44     9      180.000000        1.641078         4    ;  uncertainty k = 0.167201
        26        25        24        43     9        0.000000       -0.234235         1    ;  uncertainty k = 0.255324
        26        25        24        43     9      180.000000        8.539485         2    ;  uncertainty k = 0.302303
        26        25        24        43     9        0.000000        0.791090         3    ;  uncertainty k = 0.302726
        26        25        24        43     9      180.000000        0.996026         4    ;  uncertainty k = 0.177952
        26        25        27        44     9        0.000000       -0.415350         1    ;  uncertainty k = 0.228614
        26        25        27        44     9      180.000000        9.086428         2    ;  uncertainty k = 0.377299
        26        25        27        44     9        0.000000        0.802705         3    ;  uncertainty k = 0.232487
        26        25        27        44     9      180.000000        1.043252         4    ;  uncertainty k = 0.211577
        27        20        21        42     9        0.000000        0.218088         1    ;  uncertainty k = 0.243952
        27        20        21        42     9      180.000000        6.917737         2    ;  uncertainty k = 0.583902
        27        20        21        42     9        0.000000        1.463818         3    ;  uncertainty k = 0.217536
        27        20        21        42     9      180.000000        1.686540         4    ;  uncertainty k = 0.256320
        27        25        24        43     9        0.000000        0.130307         1    ;  uncertainty k = 0.144654
        27        25        24        43     9      180.000000        5.532843         2    ;  uncertainty k = 0.680369
        27        25        24        43     9        0.000000        1.265320         3    ;  uncertainty k = 0.294958
        27        25        24        43     9      180.000000        1.481410         4    ;  uncertainty k = 0.077611
        28         7         6        34     9        0.000000        1.300610         1    ;  uncertainty k = 0.885114
        28         7         6        34     9      180.000000        3.525254         2    ;  uncertainty k = 0.119609
        28         7         6        34     9        0.000000        0.720445         3    ;  uncertainty k = 0.178561
        28         7         6        34     9      180.000000        0.296064         4    ;  uncertainty k = 0.055572
        28         7         8        35     9        0.000000        0.113809         1    ;  uncertainty k = 0.344539
        28         7         8        35     9      180.000000        6.819611         2    ;  uncertainty k = 0.586546
        28         7         8        35     9        0.000000        1.303009         3    ;  uncertainty k = 0.321986
        28         7         8        35     9      180.000000        1.507425         4    ;  uncertainty k = 0.173884
        28        11        10        37     9        0.000000        0.160352         1    ;  uncertainty k = 0.386812
        28        11        10        37     9      180.000000        7.316654         2    ;  uncertainty k = 0.721939
        28        11        10        37     9        0.000000        1.412530         3    ;  uncertainty k = 0.351295
        28        11        10        37     9      180.000000        1.652943         4    ;  uncertainty k = 0.158232
        28        11        12        38     9        0.000000       -0.322549         1    ;  uncertainty k = 0.325145
        28        11        12        38     9      180.000000        1.883980         2    ;  uncertainty k = 0.185702
        28        11        12        38     9        0.000000        0.463714         3    ;  uncertainty k = 0.103731
        28        11        12        38     9      180.000000        0.146633         4    ;  uncertainty k = 0.049440
        28        11        12        39     9        0.000000       -0.322549         1    ;  uncertainty k = 0.325145
        28        11        12        39     9      180.000000        1.883980         2    ;  uncertainty k = 0.185702
        28        11        12        39     9        0.000000        0.463714         3    ;  uncertainty k = 0.103731
        28        11        12        39     9      180.000000        0.146633         4    ;  uncertainty k = 0.049440
        29         1         2        32     9        0.000000        0.048475         1    ;  uncertainty k = 0.207902
        29         1         2        32     9      180.000000       -0.227604         2    ;  uncertainty k = 0.280479
        29         1         2        32     9        0.000000        0.654522         3    ;  uncertainty k = 0.037147
        29         1         2        32     9      180.000000       -0.053434         4    ;  uncertainty k = 0.063146
        29         1         2        33     9        0.000000        0.048475         1    ;  uncertainty k = 0.207902
        29         1         2        33     9      180.000000       -0.227604         2    ;  uncertainty k = 0.280479
        29         1         2        33     9        0.000000        0.654522         3    ;  uncertainty k = 0.037147
        29         1         2        33     9      180.000000       -0.053434         4    ;  uncertainty k = 0.063146
        30         1         2        32     9        0.000000        0.048475         1    ;  uncertainty k = 0.207902
        30         1         2        32     9      180.000000       -0.227604         2    ;  uncertainty k = 0.280479
        30         1         2        32     9        0.000000        0.654522         3    ;  uncertainty k = 0.037147
        30         1         2        32     9      180.000000       -0.053434         4    ;  uncertainty k = 0.063146
        30         1         2        33     9        0.000000        0.048475         1    ;  uncertainty k = 0.207902
        30         1         2        33     9      180.000000       -0.227604         2    ;  uncertainty k = 0.280479
        30         1         2        33     9        0.000000        0.654522         3    ;  uncertainty k = 0.037147
        30         1         2        33     9      180.000000       -0.053434         4    ;  uncertainty k = 0.063146
        31         1         2        32     9        0.000000        0.048475         1    ;  uncertainty k = 0.207902
        31         1         2        32     9      180.000000       -0.227604         2    ;  uncertainty k = 0.280479
        31         1         2        32     9        0.000000        0.654522         3    ;  uncertainty k = 0.037147
        31         1         2        32     9      180.000000       -0.053434         4    ;  uncertainty k = 0.063146
        31         1         2        33     9        0.000000        0.048475         1    ;  uncertainty k = 0.207902
        31         1         2        33     9      180.000000       -0.227604         2    ;  uncertainty k = 0.280479
        31         1         2        33     9        0.000000        0.654522         3    ;  uncertainty k = 0.037147
        31         1         2        33     9      180.000000       -0.053434         4    ;  uncertainty k = 0.063146
        35         8         9        36     9        0.000000       -0.116451         1    ;  uncertainty k = 0.397729
        35         8         9        36     9      180.000000        7.721887         2    ;  uncertainty k = 0.347413
        35         8         9        36     9        0.000000       -0.447690         3    ;  uncertainty k = 0.295786
        35         8         9        36     9      180.000000        0.188935         4    ;  uncertainty k = 0.136467
        36         9        10        37     9        0.000000       -0.091168         1    ;  uncertainty k = 0.257354
        36         9        10        37     9      180.000000        7.328810         2    ;  uncertainty k = 0.293802
        36         9        10        37     9        0.000000       -0.402500         3    ;  uncertainty k = 0.279091
        36         9        10        37     9      180.000000        0.109432         4    ;  uncertainty k = 0.115411
        40        16        17        41     9        0.000000       -0.308549         1    ;  uncertainty k = 0.397502
        40        16        17        41     9      180.000000       12.289337         2    ;  uncertainty k = 0.583478
        40        16        17        41     9        0.000000        1.036027         3    ;  uncertainty k = 0.400452
        40        16        17        41     9      180.000000        0.764718         4    ;  uncertainty k = 0.591319

[ dihedrals ] ; impropers
;       ai        aj        ak        al funct           phase               k        pn
         4         3         5         6     4      180.000000       59.903818         2    ;  uncertainty k = 0.037859
         4         5         6         3     4      180.000000       59.903818         2    ;  uncertainty k = 0.037859
         4         6         3         5     4      180.000000       59.903818         2    ;  uncertainty k = 0.037859
         6         4         7        34     4      180.000000        0.642220         2    ;  uncertainty k = 0.747809
         6         7        34         4     4      180.000000        0.642220         2    ;  uncertainty k = 0.747809
         6        34         4         7     4      180.000000        0.642220         2    ;  uncertainty k = 0.747809
         7         6         8        28     4      180.000000       18.062483         2    ;  uncertainty k = 0.140251
         7         8        28         6     4      180.000000       18.062483         2    ;  uncertainty k = 0.140251
         7        28         6         8     4      180.000000       18.062483         2    ;  uncertainty k = 0.140251
         8         7         9        35     4      180.000000        3.102977         2    ;  uncertainty k = 0.177302
         8         9        35         7     4      180.000000        3.102977         2    ;  uncertainty k = 0.177302
         8        35         7         9     4      180.000000        3.102977         2    ;  uncertainty k = 0.177302
         9         8        10        36     4      180.000000        4.377039         2    ;  uncertainty k = 0.148395
         9        10        36         8     4      180.000000        4.377039         2    ;  uncertainty k = 0.148395
         9        36         8        10     4      180.000000        4.377039         2    ;  uncertainty k = 0.148395
        10         9        11        37     4      180.000000        3.430480         2    ;  uncertainty k = 0.178268
        10        11        37         9     4      180.000000        3.430480         2    ;  uncertainty k = 0.178268
        10        37         9        11     4      180.000000        3.430480         2    ;  uncertainty k = 0.178268
        11        10        12        28     4      180.000000       12.454093         2    ;  uncertainty k = 0.028088
        11        12        28        10     4      180.000000       12.454093         2    ;  uncertainty k = 0.028088
        11        28        10        12     4      180.000000       12.454093         2    ;  uncertainty k = 0.028088
        13        12        14        18     4      180.000000        4.921550         2    ;  uncertainty k = 0.604527
        13        14        18        12     4      180.000000        4.921550         2    ;  uncertainty k = 0.604527
        13        18        12        14     4      180.000000        4.921550         2    ;  uncertainty k = 0.604527
        15        14        16        20     4      180.000000       17.338875         2    ;  uncertainty k = 0.107858
        15        16        20        14     4      180.000000       17.338875         2    ;  uncertainty k = 0.107858
        15        20        14        16     4      180.000000       17.338875         2    ;  uncertainty k = 0.107858
        16        15        17        40     4      180.000000        6.632122         2    ;  uncertainty k = 0.364367
        16        17        40        15     4      180.000000        6.632122         2    ;  uncertainty k = 0.364367
        16        40        15        17     4      180.000000        6.632122         2    ;  uncertainty k = 0.364367
        17        16        18        41     4      180.000000        3.715532         2    ;  uncertainty k = 0.270488
        17        18        41        16     4      180.000000        3.715532         2    ;  uncertainty k = 0.270488
        17        41        16        18     4      180.000000        3.715532         2    ;  uncertainty k = 0.270488
        18        13        17        19     4      180.000000       49.481395         2    ;  uncertainty k = 0.023227
        18        17        19        13     4      180.000000       49.481395         2    ;  uncertainty k = 0.023227
        18        19        13        17     4      180.000000       49.481395         2    ;  uncertainty k = 0.023227
        20        15        21        27     4      180.000000       12.665951         2    ;  uncertainty k = 0.077152
        20        21        27        15     4      180.000000       12.665951         2    ;  uncertainty k = 0.077152
        20        27        15        21     4      180.000000       12.665951         2    ;  uncertainty k = 0.077152
        21        20        22        42     4      180.000000        2.108081         2    ;  uncertainty k = 0.256057
        21        22        42        20     4      180.000000        2.108081         2    ;  uncertainty k = 0.256057
        21        42        20        22     4      180.000000        2.108081         2    ;  uncertainty k = 0.256057
        22        21        23        24     4      180.000000       17.764897         2    ;  uncertainty k = 0.031616
        22        23        24        21     4      180.000000       17.764897         2    ;  uncertainty k = 0.031616
        22        24        21        23     4      180.000000       17.764897         2    ;  uncertainty k = 0.031616
        24        22        25        43     4      180.000000        1.216899         2    ;  uncertainty k = 0.080605
        24        25        43        22     4      180.000000        1.216899         2    ;  uncertainty k = 0.080605
        24        43        22        25     4      180.000000        1.216899         2    ;  uncertainty k = 0.080605
        25        24        26        27     4      180.000000       17.764898         2    ;  uncertainty k = 0.031616
        25        26        27        24     4      180.000000       17.764898         2    ;  uncertainty k = 0.031616
        25        27        24        26     4      180.000000       17.764898         2    ;  uncertainty k = 0.031616
        27        20        25        44     4      180.000000        2.108084         2    ;  uncertainty k = 0.256057
        27        25        44        20     4      180.000000        2.108084         2    ;  uncertainty k = 0.256057
        27        44        20        25     4      180.000000        2.108084         2    ;  uncertainty k = 0.256057
        28         7        11        45     4      180.000000        4.047646         2    ;  uncertainty k = 0.286594
        28        11        45         7     4      180.000000        4.047646         2    ;  uncertainty k = 0.286594
        28        45         7        11     4      180.000000        4.047646         2    ;  uncertainty k = 0.286594

[ pairs ]
;       ai        aj funct
         1         4     1
         2         5     1
         2         6     1
         3         7     1
         3        29     1
         3        30     1
         3        31     1
         3        34     1
         4         8     1
         4        28     1
         4        32     1
         4        33     1
         5         7     1
         5        34     1
         6         9     1
         6        11     1
         6        35     1
         6        45     1
         7        10     1
         7        12     1
         7        36     1
         8        11     1
         8        34     1
         8        37     1
         8        45     1
         9        12     1
         9        28     1
        10        13     1
        10        35     1
        10        38     1
        10        39     1
        10        45     1
        11        14     1
        11        18     1
        11        36     1
        12        15     1
        12        17     1
        12        19     1
        12        37     1
        12        45     1
        13        16     1
        13        20     1
        13        28     1
        13        41     1
        14        17     1
        14        19     1
        14        21     1
        14        27     1
        14        38     1
        14        39     1
        14        40     1
        15        18     1
        15        22     1
        15        25     1
        15        41     1
        15        42     1
        15        44     1
        16        19     1
        16        21     1
        16        27     1
        17        20     1
        18        38     1
        18        39     1
        18        40     1
        19        41     1
        20        23     1
        20        24     1
        20        26     1
        20        40     1
        21        25     1
        21        43     1
        21        44     1
        22        26     1
        22        27     1
        23        25     1
        23        42     1
        23        43     1
        24        42     1
        24        44     1
        26        43     1
        26        44     1
        27        42     1
        27        43     1
        28        34     1
        28        35     1
        28        37     1
        28        38     1
        28        39     1
        29        32     1
        29        33     1
        30        32     1
        30        33     1
        31        32     1
        31        33     1
        35        36     1
        36        37     1
        40        41     1
