; ITP file created by ByteFF-joint-25, 2026-02-17 09:10:52.156443

[ atomtypes ]
;name           bonded.type        at.num        mass        charge   ptype           sigma         epsilon
 c0bf                                   6      0.0000       0.00000       A     3.39769e-01     4.50558e-01    ;  uncertainty sigma = 0.000008, epsilon = 0.001195
 n1bf                                   7      0.0000       0.00000       A     2.58863e-01     1.06534e+01    ;  uncertainty sigma = 0.000096, epsilon = 0.001146
 c2bf                                   6      0.0000       0.00000       A     3.39769e-01     4.50558e-01    ;  uncertainty sigma = 0.000008, epsilon = 0.001195
 c3bf                                   6      0.0000       0.00000       A     3.39769e-01     4.50965e-01    ;  uncertainty sigma = 0.000013, epsilon = 0.001386
 c4bf                                   6      0.0000       0.00000       A     3.39761e-01     4.51155e-01    ;  uncertainty sigma = 0.000032, epsilon = 0.001332
 c5bf                                   6      0.0000       0.00000       A     3.39785e-01     4.50681e-01    ;  uncertainty sigma = 0.000014, epsilon = 0.000681
 o6bf                                   8      0.0000       0.00000       A     3.15618e-01     3.04185e-01    ;  uncertainty sigma = 0.000021, epsilon = 0.001469
 c7bf                                   6      0.0000       0.00000       A     3.31546e-01     4.12320e-01    ;  uncertainty sigma = 0.000011, epsilon = 0.002527
 c8bf                                   6      0.0000       0.00000       A     3.31543e-01     4.13243e-01    ;  uncertainty sigma = 0.000006, epsilon = 0.000627
 n9bf                                   7      0.0000       0.00000       A     3.38408e-01     3.93550e-01    ;  uncertainty sigma = 0.000017, epsilon = 0.000712
 c10bf                                  6      0.0000       0.00000       A     3.31469e-01     4.13138e-01    ;  uncertainty sigma = 0.000018, epsilon = 0.000709
 n11bf                                  7      0.0000       0.00000       A     3.38408e-01     3.93550e-01    ;  uncertainty sigma = 0.000017, epsilon = 0.000712
 c12bf                                  6      0.0000       0.00000       A     3.31543e-01     4.13243e-01    ;  uncertainty sigma = 0.000006, epsilon = 0.000627
 c13bf                                  6      0.0000       0.00000       A     3.31542e-01     4.13088e-01    ;  uncertainty sigma = 0.000011, epsilon = 0.000816
 c14bf                                  6      0.0000       0.00000       A     3.31518e-01     4.13405e-01    ;  uncertainty sigma = 0.000007, epsilon = 0.000656
 c15bf                                  6      0.0000       0.00000       A     3.31517e-01     4.13451e-01    ;  uncertainty sigma = 0.000002, epsilon = 0.000661
 c16bf                                  6      0.0000       0.00000       A     3.31517e-01     4.13355e-01    ;  uncertainty sigma = 0.000004, epsilon = 0.000528
 c17bf                                  6      0.0000       0.00000       A     3.31504e-01     4.13393e-01    ;  uncertainty sigma = 0.000003, epsilon = 0.000338
 c18bf                                  6      0.0000       0.00000       A     3.39766e-01     4.50446e-01    ;  uncertainty sigma = 0.000009, epsilon = 0.000438
 n19bf                                  7      0.0000       0.00000       A     3.18130e-01     6.84059e-01    ;  uncertainty sigma = 0.000031, epsilon = 0.002260
 n20bf                                  7      0.0000       0.00000       A     3.38449e-01     3.94403e-01    ;  uncertainty sigma = 0.000019, epsilon = 0.001004
 c21bf                                  6      0.0000       0.00000       A     3.31503e-01     4.13517e-01    ;  uncertainty sigma = 0.000031, epsilon = 0.001019
 c22bf                                  6      0.0000       0.00000       A     3.31517e-01     4.13271e-01    ;  uncertainty sigma = 0.000015, epsilon = 0.000991
 c23bf                                  6      0.0000       0.00000       A     3.31479e-01     4.13326e-01    ;  uncertainty sigma = 0.000018, epsilon = 0.001521
 c24bf                                  6      0.0000       0.00000       A     3.31546e-01     4.13945e-01    ;  uncertainty sigma = 0.000006, epsilon = 0.001637
 o25bf                                  8      0.0000       0.00000       A     3.04802e-01     6.12255e-01    ;  uncertainty sigma = 0.000021, epsilon = 0.001274
 c26bf                                  6      0.0000       0.00000       A     3.31523e-01     4.13373e-01    ;  uncertainty sigma = 0.000012, epsilon = 0.000634
 c27bf                                  6      0.0000       0.00000       A     3.31516e-01     4.13348e-01    ;  uncertainty sigma = 0.000006, epsilon = 0.000675
 c28bf                                  6      0.0000       0.00000       A     3.31514e-01     4.13346e-01    ;  uncertainty sigma = 0.000005, epsilon = 0.000579
 c29bf                                  6      0.0000       0.00000       A     3.31511e-01     4.13261e-01    ;  uncertainty sigma = 0.000005, epsilon = 0.000565
 c30bf                                  6      0.0000       0.00000       A     3.31527e-01     4.13572e-01    ;  uncertainty sigma = 0.000012, epsilon = 0.000836
 c31bf                                  6      0.0000       0.00000       A     3.31513e-01     4.13101e-01    ;  uncertainty sigma = 0.000008, epsilon = 0.000774
 c32bf                                  6      0.0000       0.00000       A     3.47934e-01     6.67795e-01    ;  uncertainty sigma = 0.000027, epsilon = 0.001251
 n33bf                                  7      0.0000       0.00000       A     3.27375e-01     4.59084e-01    ;  uncertainty sigma = 0.000021, epsilon = 0.000492
 c34bf                                  6      0.0000       0.00000       A     3.31508e-01     4.13193e-01    ;  uncertainty sigma = 0.000012, epsilon = 0.000741
 h35bf                                  1      0.0000       0.00000       A     1.88754e-01     8.64620e-02    ;  uncertainty sigma = 0.000044, epsilon = 0.000601
 h36bf                                  1      0.0000       0.00000       A     1.88754e-01     8.64620e-02    ;  uncertainty sigma = 0.000044, epsilon = 0.000601
 h37bf                                  1      0.0000       0.00000       A     1.88754e-01     8.64620e-02    ;  uncertainty sigma = 0.000044, epsilon = 0.000601
 h38bf                                  1      0.0000       0.00000       A     1.88754e-01     8.64620e-02    ;  uncertainty sigma = 0.000044, epsilon = 0.000601
 h39bf                                  1      0.0000       0.00000       A     1.88754e-01     8.64620e-02    ;  uncertainty sigma = 0.000044, epsilon = 0.000601
 h40bf                                  1      0.0000       0.00000       A     1.88754e-01     8.64620e-02    ;  uncertainty sigma = 0.000044, epsilon = 0.000601
 h41bf                                  1      0.0000       0.00000       A     1.88742e-01     8.62334e-02    ;  uncertainty sigma = 0.000053, epsilon = 0.001073
 h42bf                                  1      0.0000       0.00000       A     1.88742e-01     8.62334e-02    ;  uncertainty sigma = 0.000053, epsilon = 0.001073
 h43bf                                  1      0.0000       0.00000       A     2.60093e-01     8.64943e-02    ;  uncertainty sigma = 0.000047, epsilon = 0.000571
 h44bf                                  1      0.0000       0.00000       A     2.60093e-01     8.64943e-02    ;  uncertainty sigma = 0.000047, epsilon = 0.000571
 h45bf                                  1      0.0000       0.00000       A     2.42218e-01     8.69722e-02    ;  uncertainty sigma = 0.000040, epsilon = 0.000956
 h46bf                                  1      0.0000       0.00000       A     2.42218e-01     8.69722e-02    ;  uncertainty sigma = 0.000040, epsilon = 0.000956
 h47bf                                  1      0.0000       0.00000       A     2.53665e-01     6.72126e-02    ;  uncertainty sigma = 0.000035, epsilon = 0.000623
 h48bf                                  1      0.0000       0.00000       A     2.53665e-01     6.72126e-02    ;  uncertainty sigma = 0.000035, epsilon = 0.000623
 h49bf                                  1      0.0000       0.00000       A     2.62563e-01     6.70453e-02    ;  uncertainty sigma = 0.000011, epsilon = 0.000576
 h50bf                                  1      0.0000       0.00000       A     2.62563e-01     6.70149e-02    ;  uncertainty sigma = 0.000010, epsilon = 0.000410
 h51bf                                  1      0.0000       0.00000       A     2.62563e-01     6.70957e-02    ;  uncertainty sigma = 0.000006, epsilon = 0.000591
 h52bf                                  1      0.0000       0.00000       A     2.42236e-01     8.69097e-02    ;  uncertainty sigma = 0.000033, epsilon = 0.000580
 h53bf                                  1      0.0000       0.00000       A     2.42236e-01     8.69097e-02    ;  uncertainty sigma = 0.000033, epsilon = 0.000580
 h54bf                                  1      0.0000       0.00000       A     2.62549e-01     6.67404e-02    ;  uncertainty sigma = 0.000015, epsilon = 0.000444
 h55bf                                  1      0.0000       0.00000       A     2.62519e-01     6.70320e-02    ;  uncertainty sigma = 0.000024, epsilon = 0.000745
 h56bf                                  1      0.0000       0.00000       A     2.62560e-01     6.70283e-02    ;  uncertainty sigma = 0.000012, epsilon = 0.000523
 h57bf                                  1      0.0000       0.00000       A     2.62563e-01     6.70148e-02    ;  uncertainty sigma = 0.000010, epsilon = 0.000410
 h58bf                                  1      0.0000       0.00000       A     2.62572e-01     6.69859e-02    ;  uncertainty sigma = 0.000015, epsilon = 0.000486
 h59bf                                  1      0.0000       0.00000       A     2.62559e-01     6.70892e-02    ;  uncertainty sigma = 0.000012, epsilon = 0.000870
 h60bf                                  1      0.0000       0.00000       A     2.62558e-01     6.71381e-02    ;  uncertainty sigma = 0.000013, epsilon = 0.000769
 h61bf                                  1      0.0000       0.00000       A     1.10713e-01     4.17135e-02    ;  uncertainty sigma = 0.000108, epsilon = 0.000765

[ moleculetype ]
;name             nrexcl
 MOL                   3

[ atoms ]
;       nr            type      resi   res      atom      cgnr      charge          mass ; qtot
         1            c0bf         1   UNL        c0         1     0.11306       12.0110 ; qtot    0.113
         2            n1bf         1   UNL        n1         2    -0.71188       14.0070 ; qtot   -0.599
         3            c2bf         1   UNL        c2         3     0.11306       12.0110 ; qtot   -0.486
         4            c3bf         1   UNL        c3         4     0.13470       12.0110 ; qtot   -0.351
         5            c4bf         1   UNL        c4         5    -0.11271       12.0110 ; qtot   -0.464
         6            c5bf         1   UNL        c5         6     0.14642       12.0110 ; qtot   -0.317
         7            o6bf         1   UNL        o6         7    -0.32036       15.9990 ; qtot   -0.638
         8            c7bf         1   UNL        c7         8    -0.10674       12.0110 ; qtot   -0.744
         9            c8bf         1   UNL        c8         9     0.39342       12.0110 ; qtot   -0.351
        10            n9bf         1   UNL        n9        10    -0.67798       14.0070 ; qtot   -1.029
        11           c10bf         1   UNL       c10        11     0.69795       12.0110 ; qtot   -0.331
        12           n11bf         1   UNL       n11        12    -0.67798       14.0070 ; qtot   -1.009
        13           c12bf         1   UNL       c12        13     0.39342       12.0110 ; qtot   -0.616
        14           c13bf         1   UNL       c13        14    -0.15593       12.0110 ; qtot   -0.772
        15           c14bf         1   UNL       c14        15    -0.08221       12.0110 ; qtot   -0.854
        16           c15bf         1   UNL       c15        16    -0.14526       12.0110 ; qtot   -0.999
        17           c16bf         1   UNL       c16        17    -0.09108       12.0110 ; qtot   -1.090
        18           c17bf         1   UNL       c17        18    -0.12699       12.0110 ; qtot   -1.217
        19           c18bf         1   UNL       c18        19     0.15983       12.0110 ; qtot   -1.057
        20           n19bf         1   UNL       n19        20    -0.20396       14.0070 ; qtot   -1.261
        21           n20bf         1   UNL       n20        21    -0.41337       14.0070 ; qtot   -1.675
        22           c21bf         1   UNL       c21        22     0.39282       12.0110 ; qtot   -1.282
        23           c22bf         1   UNL       c22        23    -0.16877       12.0110 ; qtot   -1.451
        24           c23bf         1   UNL       c23        24    -0.21412       12.0110 ; qtot   -1.665
        25           c24bf         1   UNL       c24        25     0.67439       12.0110 ; qtot   -0.990
        26           o25bf         1   UNL       o25        26    -0.61615       15.9990 ; qtot   -1.606
        27           c26bf         1   UNL       c26        27    -0.12069       12.0110 ; qtot   -1.727
        28           c27bf         1   UNL       c27        28    -0.08042       12.0110 ; qtot   -1.808
        29           c28bf         1   UNL       c28        29    -0.13727       12.0110 ; qtot   -1.945
        30           c29bf         1   UNL       c29        30    -0.08015       12.0110 ; qtot   -2.025
        31           c30bf         1   UNL       c30        31    -0.01718       12.0110 ; qtot   -2.042
        32           c31bf         1   UNL       c31        32    -0.06869       12.0110 ; qtot   -2.111
        33           c32bf         1   UNL       c32        33     0.23145       12.0110 ; qtot   -1.879
        34           n33bf         1   UNL       n33        34    -0.35686       14.0070 ; qtot   -2.236
        35           c34bf         1   UNL       c34        35    -0.06423       12.0110 ; qtot   -2.300
        36           h35bf         1   UNL       h35        36     0.10248        1.0080 ; qtot   -2.198
        37           h36bf         1   UNL       h36        37     0.10248        1.0080 ; qtot   -2.096
        38           h37bf         1   UNL       h37        38     0.10248        1.0080 ; qtot   -1.993
        39           h38bf         1   UNL       h38        39     0.10248        1.0080 ; qtot   -1.891
        40           h39bf         1   UNL       h39        40     0.10248        1.0080 ; qtot   -1.788
        41           h40bf         1   UNL       h40        41     0.10248        1.0080 ; qtot   -1.686
        42           h41bf         1   UNL       h41        42     0.10142        1.0080 ; qtot   -1.584
        43           h42bf         1   UNL       h42        43     0.10142        1.0080 ; qtot   -1.483
        44           h43bf         1   UNL       h43        44     0.08558        1.0080 ; qtot   -1.397
        45           h44bf         1   UNL       h44        45     0.08558        1.0080 ; qtot   -1.312
        46           h45bf         1   UNL       h45        46     0.06310        1.0080 ; qtot   -1.248
        47           h46bf         1   UNL       h46        47     0.06310        1.0080 ; qtot   -1.185
        48           h47bf         1   UNL       h47        48     0.03565        1.0080 ; qtot   -1.150
        49           h48bf         1   UNL       h48        49     0.03565        1.0080 ; qtot   -1.114
        50           h49bf         1   UNL       h49        50     0.15226        1.0080 ; qtot   -0.962
        51           h50bf         1   UNL       h50        51     0.13595        1.0080 ; qtot   -0.826
        52           h51bf         1   UNL       h51        52     0.13982        1.0080 ; qtot   -0.686
        53           h52bf         1   UNL       h52        53     0.08064        1.0080 ; qtot   -0.605
        54           h53bf         1   UNL       h53        54     0.08064        1.0080 ; qtot   -0.525
        55           h54bf         1   UNL       h54        55     0.15224        1.0080 ; qtot   -0.373
        56           h55bf         1   UNL       h55        56     0.16763        1.0080 ; qtot   -0.205
        57           h56bf         1   UNL       h56        57     0.14378        1.0080 ; qtot   -0.061
        58           h57bf         1   UNL       h57        58     0.14619        1.0080 ; qtot    0.085
        59           h58bf         1   UNL       h58        59     0.14719        1.0080 ; qtot    0.232
        60           h59bf         1   UNL       h59        60     0.15869        1.0080 ; qtot    0.391
        61           h60bf         1   UNL       h60        61     0.15650        1.0080 ; qtot    0.547
        62           h61bf         1   UNL       h61        62     0.45255        1.0080 ; qtot    1.000

[ bonds ]
;       ai        aj funct               r               k
         1         2     1        0.150391   206968.363086    ;  uncertainty r = 0.000046, k = 15.575453
         1        36     1        0.108982   314172.586426    ;  uncertainty r = 0.000020, k = 1.327852
         1        37     1        0.108982   314172.586426    ;  uncertainty r = 0.000020, k = 1.327852
         1        38     1        0.108982   314172.586426    ;  uncertainty r = 0.000020, k = 1.327852
         2         3     1        0.150391   206968.363086    ;  uncertainty r = 0.000046, k = 15.575453
         2         4     1        0.151888   190701.658545    ;  uncertainty r = 0.000184, k = 18.246901
         2        62     1        0.102672   380024.211035    ;  uncertainty r = 0.000103, k = 9.662741
         3        39     1        0.108982   314172.586426    ;  uncertainty r = 0.000020, k = 1.327852
         3        40     1        0.108982   314172.586426    ;  uncertainty r = 0.000020, k = 1.327852
         3        41     1        0.108982   314172.586426    ;  uncertainty r = 0.000020, k = 1.327852
         4         5     1        0.152791   203112.897998    ;  uncertainty r = 0.000073, k = 8.586209
         4        42     1        0.109092   311623.982910    ;  uncertainty r = 0.000034, k = 1.755135
         4        43     1        0.109092   311623.982910    ;  uncertainty r = 0.000034, k = 1.755135
         5         6     1        0.152735   206765.457983    ;  uncertainty r = 0.000125, k = 9.273121
         5        44     1        0.109537   311668.008887    ;  uncertainty r = 0.000038, k = 3.411102
         5        45     1        0.109537   311668.008887    ;  uncertainty r = 0.000038, k = 3.411102
         6         7     1        0.142328   230736.619043    ;  uncertainty r = 0.000208, k = 7.039285
         6        46     1        0.109664   309138.711426    ;  uncertainty r = 0.000098, k = 3.958270
         6        47     1        0.109664   309138.711426    ;  uncertainty r = 0.000098, k = 3.958270
         7         8     1        0.136213   317844.312012    ;  uncertainty r = 0.000248, k = 6.331055
         8         9     1        0.139648   371796.128857    ;  uncertainty r = 0.000085, k = 9.706450
         8        13     1        0.139648   371796.128857    ;  uncertainty r = 0.000085, k = 9.706450
         9        10     1        0.133067   409378.913965    ;  uncertainty r = 0.000048, k = 4.249417
         9        48     1        0.109052   334640.043311    ;  uncertainty r = 0.000040, k = 3.901920
        10        11     1        0.135006   359311.265918    ;  uncertainty r = 0.000174, k = 8.718546
        11        12     1        0.135006   359311.265918    ;  uncertainty r = 0.000174, k = 8.718546
        11        14     1        0.146856   259787.021777    ;  uncertainty r = 0.000158, k = 4.145100
        12        13     1        0.133067   409378.913965    ;  uncertainty r = 0.000048, k = 4.249417
        13        49     1        0.109052   334640.043311    ;  uncertainty r = 0.000040, k = 3.901920
        14        15     1        0.139722   342720.214551    ;  uncertainty r = 0.000075, k = 2.913346
        14        35     1        0.139409   336931.871191    ;  uncertainty r = 0.000073, k = 5.943861
        15        16     1        0.139280   367550.839795    ;  uncertainty r = 0.000042, k = 4.029714
        15        50     1        0.108616   332854.999365    ;  uncertainty r = 0.000026, k = 0.969491
        16        17     1        0.139534   371200.960986    ;  uncertainty r = 0.000016, k = 1.371951
        16        51     1        0.108831   333139.329541    ;  uncertainty r = 0.000017, k = 1.252019
        17        18     1        0.139703   354765.532764    ;  uncertainty r = 0.000069, k = 2.816855
        17        52     1        0.108845   333137.746240    ;  uncertainty r = 0.000012, k = 0.688241
        18        19     1        0.151483   229275.079199    ;  uncertainty r = 0.000030, k = 5.987388
        18        35     1        0.139276   349283.149512    ;  uncertainty r = 0.000051, k = 4.888133
        19        20     1        0.146958   226285.092285    ;  uncertainty r = 0.000082, k = 7.991861
        19        53     1        0.109288   307627.655127    ;  uncertainty r = 0.000019, k = 0.761517
        19        54     1        0.109288   307627.655127    ;  uncertainty r = 0.000019, k = 0.761517
        20        21     1        0.133719   291839.975684    ;  uncertainty r = 0.000103, k = 13.619026
        20        25     1        0.139210   287082.463281    ;  uncertainty r = 0.000112, k = 8.370610
        21        22     1        0.130289   485921.751563    ;  uncertainty r = 0.000125, k = 7.398571
        22        23     1        0.143231   248898.100488    ;  uncertainty r = 0.000132, k = 12.892436
        22        27     1        0.147209   259830.485937    ;  uncertainty r = 0.000076, k = 3.054567
        23        24     1        0.134977   481508.785840    ;  uncertainty r = 0.000047, k = 10.409223
        23        55     1        0.108783   336902.886572    ;  uncertainty r = 0.000050, k = 1.619691
        24        25     1        0.145432   272577.155322    ;  uncertainty r = 0.000089, k = 4.402675
        24        56     1        0.108708   341990.721484    ;  uncertainty r = 0.000030, k = 2.410362
        25        26     1        0.124008   735950.584180    ;  uncertainty r = 0.000059, k = 6.569249
        27        28     1        0.140023   343325.750488    ;  uncertainty r = 0.000056, k = 1.895599
        27        32     1        0.139519   345222.902344    ;  uncertainty r = 0.000071, k = 1.383667
        28        29     1        0.139387   366922.243848    ;  uncertainty r = 0.000026, k = 2.833719
        28        57     1        0.108734   334090.612402    ;  uncertainty r = 0.000017, k = 0.499596
        29        30     1        0.139214   371154.355762    ;  uncertainty r = 0.000024, k = 1.187562
        29        58     1        0.108757   333316.506006    ;  uncertainty r = 0.000013, k = 0.993002
        30        31     1        0.140449   359897.546875    ;  uncertainty r = 0.000023, k = 1.366506
        30        59     1        0.108671   332748.279785    ;  uncertainty r = 0.000012, k = 0.493531
        31        32     1        0.140171   355207.452441    ;  uncertainty r = 0.000060, k = 2.408046
        31        33     1        0.143741   315919.605615    ;  uncertainty r = 0.000019, k = 3.318061
        32        60     1        0.108628   333098.087109    ;  uncertainty r = 0.000028, k = 1.127191
        33        34     1        0.116666  1127116.482813    ;  uncertainty r = 0.000023, k = 3.045850
        35        61     1        0.108682   331298.716846    ;  uncertainty r = 0.000030, k = 1.060830

[ angles ]
;       ai        aj        ak funct           theta             cth
         1         2         3     1      111.640198      714.699291    ;  uncertainty theta = 0.001271, k = 0.164693
         1         2         4     1      111.577248      649.272004    ;  uncertainty theta = 0.001912, k = 0.208394
         1         2        62     1      106.282303      462.351217    ;  uncertainty theta = 0.001772, k = 0.176947
         2         1        36     1      107.947853      470.857724    ;  uncertainty theta = 0.002394, k = 0.062057
         2         1        37     1      107.947853      470.857724    ;  uncertainty theta = 0.002394, k = 0.062057
         2         1        38     1      107.947853      470.857724    ;  uncertainty theta = 0.002394, k = 0.062057
         2         3        39     1      107.947853      470.857724    ;  uncertainty theta = 0.002394, k = 0.062057
         2         3        40     1      107.947853      470.857724    ;  uncertainty theta = 0.002394, k = 0.062057
         2         3        41     1      107.947853      470.857724    ;  uncertainty theta = 0.002394, k = 0.062057
         2         4         5     1      111.160255      676.104483    ;  uncertainty theta = 0.003484, k = 0.216006
         2         4        42     1      105.574242      464.240739    ;  uncertainty theta = 0.000949, k = 0.077057
         2         4        43     1      105.574242      464.240739    ;  uncertainty theta = 0.000949, k = 0.077057
         3         2         4     1      111.577248      649.272004    ;  uncertainty theta = 0.001912, k = 0.208394
         3         2        62     1      106.282303      462.351217    ;  uncertainty theta = 0.001772, k = 0.176947
         4         2        62     1      106.240402      446.613909    ;  uncertainty theta = 0.003169, k = 0.051615
         4         5         6     1      109.752762      544.878280    ;  uncertainty theta = 0.001840, k = 0.186333
         4         5        44     1      107.366287      401.383922    ;  uncertainty theta = 0.002481, k = 0.064733
         4         5        45     1      107.366287      401.383922    ;  uncertainty theta = 0.002481, k = 0.064733
         5         4        42     1      109.832565      402.390180    ;  uncertainty theta = 0.002078, k = 0.055178
         5         4        43     1      109.832565      402.390180    ;  uncertainty theta = 0.002078, k = 0.055178
         5         6         7     1      109.063560      579.783486    ;  uncertainty theta = 0.004581, k = 0.100947
         5         6        46     1      109.584671      399.976827    ;  uncertainty theta = 0.002071, k = 0.097344
         5         6        47     1      109.584671      399.976827    ;  uncertainty theta = 0.002071, k = 0.097344
         6         5        44     1      107.254318      403.794625    ;  uncertainty theta = 0.001311, k = 0.061725
         6         5        45     1      107.254318      403.794625    ;  uncertainty theta = 0.001311, k = 0.061725
         6         7         8     1      110.369186      504.557674    ;  uncertainty theta = 0.001577, k = 0.162674
         7         6        46     1      107.461388      430.031962    ;  uncertainty theta = 0.003150, k = 0.051924
         7         6        47     1      107.461388      430.031962    ;  uncertainty theta = 0.003150, k = 0.051924
         7         8         9     1      119.933716      402.497723    ;  uncertainty theta = 0.007672, k = 0.155632
         7         8        13     1      119.933716      402.497723    ;  uncertainty theta = 0.007672, k = 0.155632
         8         9        10     1      121.520203      688.081196    ;  uncertainty theta = 0.003014, k = 0.106237
         8         9        48     1      120.776428      255.710785    ;  uncertainty theta = 0.002542, k = 0.172781
         8        13        12     1      121.520203      688.081196    ;  uncertainty theta = 0.003014, k = 0.106237
         8        13        49     1      120.776428      255.710785    ;  uncertainty theta = 0.002542, k = 0.172781
         9         8        13     1      117.805458      352.842346    ;  uncertainty theta = 0.006505, k = 0.510123
         9        10        11     1      117.415298      372.480862    ;  uncertainty theta = 0.006332, k = 0.318624
        10         9        48     1      117.332191      329.677985    ;  uncertainty theta = 0.004794, k = 0.095269
        10        11        12     1      127.269669      797.523670    ;  uncertainty theta = 0.000954, k = 0.105380
        10        11        14     1      117.590942      445.732528    ;  uncertainty theta = 0.004282, k = 0.099810
        11        12        13     1      117.415298      372.480862    ;  uncertainty theta = 0.006332, k = 0.318624
        11        14        15     1      116.993896      401.563575    ;  uncertainty theta = 0.006089, k = 0.080842
        11        14        35     1      116.438194      397.763334    ;  uncertainty theta = 0.006185, k = 0.074266
        12        11        14     1      117.590942      445.732528    ;  uncertainty theta = 0.004282, k = 0.099810
        12        13        49     1      117.332191      329.677985    ;  uncertainty theta = 0.004794, k = 0.095269
        14        15        16     1      120.232346      524.525332    ;  uncertainty theta = 0.000782, k = 0.072775
        14        15        50     1      117.565109      261.796789    ;  uncertainty theta = 0.001353, k = 0.076979
        14        35        18     1      121.979675      528.275711    ;  uncertainty theta = 0.001822, k = 0.081800
        14        35        61     1      117.407730      263.631583    ;  uncertainty theta = 0.002520, k = 0.101620
        15        14        35     1      121.895348      436.115923    ;  uncertainty theta = 0.002603, k = 0.071743
        15        16        17     1      120.290504      506.484577    ;  uncertainty theta = 0.001272, k = 0.077873
        15        16        51     1      120.239822      284.659030    ;  uncertainty theta = 0.001522, k = 0.023723
        16        15        50     1      120.926468      288.832017    ;  uncertainty theta = 0.001396, k = 0.073928
        16        17        18     1      119.885025      524.221759    ;  uncertainty theta = 0.002065, k = 0.043778
        16        17        52     1      120.372025      293.531132    ;  uncertainty theta = 0.002545, k = 0.019543
        17        16        51     1      120.362267      284.047991    ;  uncertainty theta = 0.001711, k = 0.048927
        17        18        19     1      120.426491      424.552145    ;  uncertainty theta = 0.001183, k = 0.075232
        17        18        35     1      120.774338      455.617432    ;  uncertainty theta = 0.001449, k = 0.156970
        18        17        52     1      119.030472      270.213357    ;  uncertainty theta = 0.002268, k = 0.024349
        18        19        20     1      111.862549      642.493625    ;  uncertainty theta = 0.001364, k = 0.091264
        18        19        53     1      108.739967      417.311545    ;  uncertainty theta = 0.001880, k = 0.053917
        18        19        54     1      108.739967      417.311545    ;  uncertainty theta = 0.001880, k = 0.053917
        18        35        61     1      119.316833      276.390593    ;  uncertainty theta = 0.001305, k = 0.080105
        19        18        35     1      119.739639      404.422104    ;  uncertainty theta = 0.001445, k = 0.125283
        19        20        21     1      110.577988      500.240115    ;  uncertainty theta = 0.005833, k = 0.098935
        19        20        25     1      115.546555      389.353517    ;  uncertainty theta = 0.005911, k = 0.248842
        20        19        53     1      105.434036      444.191906    ;  uncertainty theta = 0.001612, k = 0.053315
        20        19        54     1      105.434036      444.191906    ;  uncertainty theta = 0.001612, k = 0.053315
        20        21        22     1      119.450600      508.727629    ;  uncertainty theta = 0.009321, k = 0.201407
        20        25        24     1      111.385658      354.543852    ;  uncertainty theta = 0.004876, k = 0.498398
        20        25        26     1      122.027390      653.228724    ;  uncertainty theta = 0.001797, k = 0.051888
        21        20        25     1      124.130821      552.011816    ;  uncertainty theta = 0.006513, k = 0.232378
        21        22        23     1      126.007484      532.717892    ;  uncertainty theta = 0.003400, k = 0.215105
        21        22        27     1      116.306534      445.678134    ;  uncertainty theta = 0.005685, k = 0.252426
        22        23        24     1      119.161453      481.776530    ;  uncertainty theta = 0.004785, k = 0.319756
        22        23        55     1      118.654724      262.502124    ;  uncertainty theta = 0.005379, k = 0.054973
        22        27        28     1      119.294250      392.640590    ;  uncertainty theta = 0.001890, k = 0.136995
        22        27        32     1      118.377304      398.312095    ;  uncertainty theta = 0.002136, k = 0.165419
        23        22        27     1      120.210983      387.197738    ;  uncertainty theta = 0.001472, k = 0.060395
        23        24        25     1      119.665359      523.118907    ;  uncertainty theta = 0.005349, k = 0.100266
        23        24        56     1      123.138992      265.275997    ;  uncertainty theta = 0.005028, k = 0.152927
        24        23        55     1      122.361343      282.774455    ;  uncertainty theta = 0.005531, k = 0.167097
        24        25        26     1      127.351967      536.919129    ;  uncertainty theta = 0.003562, k = 0.161864
        25        24        56     1      117.583885      254.681432    ;  uncertainty theta = 0.006644, k = 0.184684
        27        28        29     1      120.728432      531.409179    ;  uncertainty theta = 0.001088, k = 0.055646
        27        28        57     1      118.283035      265.226710    ;  uncertainty theta = 0.002384, k = 0.096901
        27        32        31     1      121.176956      527.098898    ;  uncertainty theta = 0.001539, k = 0.210044
        27        32        60     1      118.831543      266.008784    ;  uncertainty theta = 0.002520, k = 0.053619
        28        27        32     1      120.917435      435.258929    ;  uncertainty theta = 0.001988, k = 0.050253
        28        29        30     1      120.357788      513.305028    ;  uncertainty theta = 0.001195, k = 0.044943
        28        29        58     1      120.181786      285.648082    ;  uncertainty theta = 0.001415, k = 0.026175
        29        28        57     1      120.260765      291.050553    ;  uncertainty theta = 0.001952, k = 0.023667
        29        30        31     1      119.056801      528.205325    ;  uncertainty theta = 0.001455, k = 0.066558
        29        30        59     1      120.928673      284.794983    ;  uncertainty theta = 0.001593, k = 0.041022
        30        29        58     1      120.082779      285.777523    ;  uncertainty theta = 0.001663, k = 0.017613
        30        31        32     1      121.522682      453.057592    ;  uncertainty theta = 0.001015, k = 0.127242
        30        31        33     1      119.684837      375.502061    ;  uncertainty theta = 0.001761, k = 0.107158
        31        30        59     1      119.454544      281.924420    ;  uncertainty theta = 0.002619, k = 0.023302
        31        32        60     1      119.646629      285.302437    ;  uncertainty theta = 0.003448, k = 0.122219
        31        33        34     1      180.000000      234.872632    ;  uncertainty theta = 0.000000, k = 0.682644
        32        31        33     1      119.103981      372.342483    ;  uncertainty theta = 0.002619, k = 0.114759
        36         1        37     1      108.453964      318.843739    ;  uncertainty theta = 0.003157, k = 0.041407
        36         1        38     1      108.453964      318.843739    ;  uncertainty theta = 0.003157, k = 0.041407
        37         1        38     1      108.453964      318.843739    ;  uncertainty theta = 0.003157, k = 0.041407
        39         3        40     1      108.453964      318.843739    ;  uncertainty theta = 0.003157, k = 0.041407
        39         3        41     1      108.453964      318.843739    ;  uncertainty theta = 0.003157, k = 0.041407
        40         3        41     1      108.453964      318.843739    ;  uncertainty theta = 0.003157, k = 0.041407
        42         4        43     1      107.757484      320.468761    ;  uncertainty theta = 0.004006, k = 0.081407
        44         5        45     1      105.731667      324.816517    ;  uncertainty theta = 0.002306, k = 0.047817
        46         6        47     1      107.585915      334.799388    ;  uncertainty theta = 0.004048, k = 0.068197
        53        19        54     1      106.067017      312.923918    ;  uncertainty theta = 0.003423, k = 0.065436

[ dihedrals ] ; propers for gromacs 4.5 or higher, use funct 9
;       ai        aj        ak        al funct           phase               k        pn
         1         2         3        39     9        0.000000       -0.651781         1    ;  uncertainty k = 0.566291
         1         2         3        39     9      180.000000       -0.654867         2    ;  uncertainty k = 0.378370
         1         2         3        39     9        0.000000        1.225484         3    ;  uncertainty k = 0.063991
         1         2         3        39     9      180.000000       -0.019961         4    ;  uncertainty k = 0.106496
         1         2         3        40     9        0.000000       -0.651781         1    ;  uncertainty k = 0.566291
         1         2         3        40     9      180.000000       -0.654867         2    ;  uncertainty k = 0.378370
         1         2         3        40     9        0.000000        1.225484         3    ;  uncertainty k = 0.063991
         1         2         3        40     9      180.000000       -0.019961         4    ;  uncertainty k = 0.106496
         1         2         3        41     9        0.000000       -0.651781         1    ;  uncertainty k = 0.566291
         1         2         3        41     9      180.000000       -0.654867         2    ;  uncertainty k = 0.378370
         1         2         3        41     9        0.000000        1.225484         3    ;  uncertainty k = 0.063991
         1         2         3        41     9      180.000000       -0.019961         4    ;  uncertainty k = 0.106496
         1         2         4         5     9        0.000000       -1.799054         1    ;  uncertainty k = 0.617899
         1         2         4         5     9      180.000000        0.620208         2    ;  uncertainty k = 0.618510
         1         2         4         5     9        0.000000        1.171946         3    ;  uncertainty k = 0.210507
         1         2         4         5     9      180.000000       -0.141034         4    ;  uncertainty k = 0.093930
         1         2         4        42     9        0.000000       -0.460544         1    ;  uncertainty k = 0.348594
         1         2         4        42     9      180.000000       -0.392088         2    ;  uncertainty k = 0.304557
         1         2         4        42     9        0.000000        0.927329         3    ;  uncertainty k = 0.072963
         1         2         4        42     9      180.000000       -0.007234         4    ;  uncertainty k = 0.150355
         1         2         4        43     9        0.000000       -0.460544         1    ;  uncertainty k = 0.348594
         1         2         4        43     9      180.000000       -0.392088         2    ;  uncertainty k = 0.304557
         1         2         4        43     9        0.000000        0.927329         3    ;  uncertainty k = 0.072963
         1         2         4        43     9      180.000000       -0.007234         4    ;  uncertainty k = 0.150355
         2         4         5         6     9        0.000000       -3.540050         1    ;  uncertainty k = 1.374319
         2         4         5         6     9      180.000000       -2.909384         2    ;  uncertainty k = 0.503812
         2         4         5         6     9        0.000000        1.881494         3    ;  uncertainty k = 0.213958
         2         4         5         6     9      180.000000       -0.336049         4    ;  uncertainty k = 0.264436
         2         4         5        44     9        0.000000        0.513644         1    ;  uncertainty k = 0.526482
         2         4         5        44     9      180.000000       -2.443851         2    ;  uncertainty k = 0.416854
         2         4         5        44     9        0.000000        1.118914         3    ;  uncertainty k = 0.258924
         2         4         5        44     9      180.000000       -0.159079         4    ;  uncertainty k = 0.093891
         2         4         5        45     9        0.000000        0.513644         1    ;  uncertainty k = 0.526482
         2         4         5        45     9      180.000000       -2.443851         2    ;  uncertainty k = 0.416854
         2         4         5        45     9        0.000000        1.118914         3    ;  uncertainty k = 0.258924
         2         4         5        45     9      180.000000       -0.159079         4    ;  uncertainty k = 0.093891
         3         2         1        36     9        0.000000       -0.651781         1    ;  uncertainty k = 0.566291
         3         2         1        36     9      180.000000       -0.654867         2    ;  uncertainty k = 0.378370
         3         2         1        36     9        0.000000        1.225484         3    ;  uncertainty k = 0.063991
         3         2         1        36     9      180.000000       -0.019961         4    ;  uncertainty k = 0.106496
         3         2         1        37     9        0.000000       -0.651781         1    ;  uncertainty k = 0.566291
         3         2         1        37     9      180.000000       -0.654867         2    ;  uncertainty k = 0.378370
         3         2         1        37     9        0.000000        1.225484         3    ;  uncertainty k = 0.063991
         3         2         1        37     9      180.000000       -0.019961         4    ;  uncertainty k = 0.106496
         3         2         1        38     9        0.000000       -0.651781         1    ;  uncertainty k = 0.566291
         3         2         1        38     9      180.000000       -0.654867         2    ;  uncertainty k = 0.378370
         3         2         1        38     9        0.000000        1.225484         3    ;  uncertainty k = 0.063991
         3         2         1        38     9      180.000000       -0.019961         4    ;  uncertainty k = 0.106496
         3         2         4         5     9        0.000000       -1.799054         1    ;  uncertainty k = 0.617899
         3         2         4         5     9      180.000000        0.620208         2    ;  uncertainty k = 0.618510
         3         2         4         5     9        0.000000        1.171946         3    ;  uncertainty k = 0.210507
         3         2         4         5     9      180.000000       -0.141034         4    ;  uncertainty k = 0.093930
         3         2         4        42     9        0.000000       -0.460544         1    ;  uncertainty k = 0.348594
         3         2         4        42     9      180.000000       -0.392088         2    ;  uncertainty k = 0.304557
         3         2         4        42     9        0.000000        0.927329         3    ;  uncertainty k = 0.072963
         3         2         4        42     9      180.000000       -0.007234         4    ;  uncertainty k = 0.150355
         3         2         4        43     9        0.000000       -0.460544         1    ;  uncertainty k = 0.348594
         3         2         4        43     9      180.000000       -0.392088         2    ;  uncertainty k = 0.304557
         3         2         4        43     9        0.000000        0.927329         3    ;  uncertainty k = 0.072963
         3         2         4        43     9      180.000000       -0.007234         4    ;  uncertainty k = 0.150355
         4         2         1        36     9        0.000000       -0.355651         1    ;  uncertainty k = 0.629649
         4         2         1        36     9      180.000000       -1.015353         2    ;  uncertainty k = 0.338815
         4         2         1        36     9        0.000000        1.210064         3    ;  uncertainty k = 0.071384
         4         2         1        36     9      180.000000       -0.032477         4    ;  uncertainty k = 0.094871
         4         2         1        37     9        0.000000       -0.355651         1    ;  uncertainty k = 0.629649
         4         2         1        37     9      180.000000       -1.015353         2    ;  uncertainty k = 0.338815
         4         2         1        37     9        0.000000        1.210064         3    ;  uncertainty k = 0.071384
         4         2         1        37     9      180.000000       -0.032477         4    ;  uncertainty k = 0.094871
         4         2         1        38     9        0.000000       -0.355651         1    ;  uncertainty k = 0.629649
         4         2         1        38     9      180.000000       -1.015353         2    ;  uncertainty k = 0.338815
         4         2         1        38     9        0.000000        1.210064         3    ;  uncertainty k = 0.071384
         4         2         1        38     9      180.000000       -0.032477         4    ;  uncertainty k = 0.094871
         4         2         3        39     9        0.000000       -0.355651         1    ;  uncertainty k = 0.629649
         4         2         3        39     9      180.000000       -1.015353         2    ;  uncertainty k = 0.338815
         4         2         3        39     9        0.000000        1.210064         3    ;  uncertainty k = 0.071384
         4         2         3        39     9      180.000000       -0.032477         4    ;  uncertainty k = 0.094871
         4         2         3        40     9        0.000000       -0.355651         1    ;  uncertainty k = 0.629649
         4         2         3        40     9      180.000000       -1.015353         2    ;  uncertainty k = 0.338815
         4         2         3        40     9        0.000000        1.210064         3    ;  uncertainty k = 0.071384
         4         2         3        40     9      180.000000       -0.032477         4    ;  uncertainty k = 0.094871
         4         2         3        41     9        0.000000       -0.355651         1    ;  uncertainty k = 0.629649
         4         2         3        41     9      180.000000       -1.015353         2    ;  uncertainty k = 0.338815
         4         2         3        41     9        0.000000        1.210064         3    ;  uncertainty k = 0.071384
         4         2         3        41     9      180.000000       -0.032477         4    ;  uncertainty k = 0.094871
         4         5         6         7     9        0.000000       -2.507369         1    ;  uncertainty k = 0.906811
         4         5         6         7     9      180.000000       -2.778736         2    ;  uncertainty k = 0.364146
         4         5         6         7     9        0.000000        2.066319         3    ;  uncertainty k = 0.244164
         4         5         6         7     9      180.000000       -0.467468         4    ;  uncertainty k = 0.205525
         4         5         6        46     9        0.000000       -2.076334         1    ;  uncertainty k = 0.417242
         4         5         6        46     9      180.000000       -0.244316         2    ;  uncertainty k = 0.207780
         4         5         6        46     9        0.000000        0.938737         3    ;  uncertainty k = 0.133120
         4         5         6        46     9      180.000000       -0.386174         4    ;  uncertainty k = 0.161548
         4         5         6        47     9        0.000000       -2.076334         1    ;  uncertainty k = 0.417242
         4         5         6        47     9      180.000000       -0.244316         2    ;  uncertainty k = 0.207780
         4         5         6        47     9        0.000000        0.938737         3    ;  uncertainty k = 0.133120
         4         5         6        47     9      180.000000       -0.386174         4    ;  uncertainty k = 0.161548
         5         4         2        62     9        0.000000       -1.088868         1    ;  uncertainty k = 0.623505
         5         4         2        62     9      180.000000       -0.294221         2    ;  uncertainty k = 0.426561
         5         4         2        62     9        0.000000        0.443286         3    ;  uncertainty k = 0.167221
         5         4         2        62     9      180.000000       -0.139785         4    ;  uncertainty k = 0.119420
         5         6         7         8     9        0.000000       -0.930637         1    ;  uncertainty k = 0.588578
         5         6         7         8     9      180.000000       -0.376177         2    ;  uncertainty k = 0.529971
         5         6         7         8     9        0.000000        0.725160         3    ;  uncertainty k = 0.189874
         5         6         7         8     9      180.000000        0.490795         4    ;  uncertainty k = 0.086520
         6         5         4        42     9        0.000000       -1.518713         1    ;  uncertainty k = 0.680554
         6         5         4        42     9      180.000000       -0.009468         2    ;  uncertainty k = 0.299198
         6         5         4        42     9        0.000000        0.846782         3    ;  uncertainty k = 0.040972
         6         5         4        42     9      180.000000       -0.274900         4    ;  uncertainty k = 0.106808
         6         5         4        43     9        0.000000       -1.518713         1    ;  uncertainty k = 0.680554
         6         5         4        43     9      180.000000       -0.009468         2    ;  uncertainty k = 0.299198
         6         5         4        43     9        0.000000        0.846782         3    ;  uncertainty k = 0.040972
         6         5         4        43     9      180.000000       -0.274900         4    ;  uncertainty k = 0.106808
         6         7         8         9     9        0.000000        0.820936         1    ;  uncertainty k = 1.034517
         6         7         8         9     9      180.000000        5.793385         2    ;  uncertainty k = 0.146349
         6         7         8         9     9        0.000000        0.470689         3    ;  uncertainty k = 0.242082
         6         7         8         9     9      180.000000        0.189550         4    ;  uncertainty k = 0.090854
         6         7         8        13     9        0.000000        0.820936         1    ;  uncertainty k = 1.034517
         6         7         8        13     9      180.000000        5.793385         2    ;  uncertainty k = 0.146349
         6         7         8        13     9        0.000000        0.470689         3    ;  uncertainty k = 0.242082
         6         7         8        13     9      180.000000        0.189550         4    ;  uncertainty k = 0.090854
         7         6         5        44     9        0.000000        0.183873         1    ;  uncertainty k = 0.289911
         7         6         5        44     9      180.000000       -1.760728         2    ;  uncertainty k = 0.440778
         7         6         5        44     9        0.000000        1.297158         3    ;  uncertainty k = 0.166268
         7         6         5        44     9      180.000000       -0.000243         4    ;  uncertainty k = 0.043602
         7         6         5        45     9        0.000000        0.183873         1    ;  uncertainty k = 0.289911
         7         6         5        45     9      180.000000       -1.760728         2    ;  uncertainty k = 0.440778
         7         6         5        45     9        0.000000        1.297158         3    ;  uncertainty k = 0.166268
         7         6         5        45     9      180.000000       -0.000243         4    ;  uncertainty k = 0.043602
         7         8         9        10     9        0.000000       -0.043850         1    ;  uncertainty k = 0.311241
         7         8         9        10     9      180.000000       11.385626         2    ;  uncertainty k = 0.560019
         7         8         9        10     9        0.000000        0.887978         3    ;  uncertainty k = 0.306492
         7         8         9        10     9      180.000000        1.370556         4    ;  uncertainty k = 0.351743
         7         8         9        48     9        0.000000        0.068117         1    ;  uncertainty k = 0.304077
         7         8         9        48     9      180.000000        7.201543         2    ;  uncertainty k = 0.304572
         7         8         9        48     9        0.000000        0.660189         3    ;  uncertainty k = 0.161389
         7         8         9        48     9      180.000000        1.001411         4    ;  uncertainty k = 0.193036
         7         8        13        12     9        0.000000       -0.043850         1    ;  uncertainty k = 0.311241
         7         8        13        12     9      180.000000       11.385626         2    ;  uncertainty k = 0.560019
         7         8        13        12     9        0.000000        0.887978         3    ;  uncertainty k = 0.306492
         7         8        13        12     9      180.000000        1.370556         4    ;  uncertainty k = 0.351743
         7         8        13        49     9        0.000000        0.068117         1    ;  uncertainty k = 0.304077
         7         8        13        49     9      180.000000        7.201543         2    ;  uncertainty k = 0.304572
         7         8        13        49     9        0.000000        0.660189         3    ;  uncertainty k = 0.161389
         7         8        13        49     9      180.000000        1.001411         4    ;  uncertainty k = 0.193036
         8         7         6        46     9        0.000000        0.534538         1    ;  uncertainty k = 0.568456
         8         7         6        46     9      180.000000       -1.278924         2    ;  uncertainty k = 0.261563
         8         7         6        46     9        0.000000        0.631694         3    ;  uncertainty k = 0.061608
         8         7         6        46     9      180.000000        0.276100         4    ;  uncertainty k = 0.105921
         8         7         6        47     9        0.000000        0.534538         1    ;  uncertainty k = 0.568456
         8         7         6        47     9      180.000000       -1.278924         2    ;  uncertainty k = 0.261563
         8         7         6        47     9        0.000000        0.631694         3    ;  uncertainty k = 0.061608
         8         7         6        47     9      180.000000        0.276100         4    ;  uncertainty k = 0.105921
         8         9        10        11     9        0.000000       -0.201571         1    ;  uncertainty k = 0.354383
         8         9        10        11     9      180.000000       16.068276         2    ;  uncertainty k = 0.230903
         8         9        10        11     9        0.000000        0.194741         3    ;  uncertainty k = 0.593375
         8         9        10        11     9      180.000000        1.544701         4    ;  uncertainty k = 0.361394
         8        13        12        11     9        0.000000       -0.201571         1    ;  uncertainty k = 0.354383
         8        13        12        11     9      180.000000       16.068276         2    ;  uncertainty k = 0.230903
         8        13        12        11     9        0.000000        0.194741         3    ;  uncertainty k = 0.593375
         8        13        12        11     9      180.000000        1.544701         4    ;  uncertainty k = 0.361394
         9         8        13        12     9        0.000000       -0.295425         1    ;  uncertainty k = 0.430237
         9         8        13        12     9      180.000000        9.210914         2    ;  uncertainty k = 0.610380
         9         8        13        12     9        0.000000       -0.519633         3    ;  uncertainty k = 0.219368
         9         8        13        12     9      180.000000        1.148160         4    ;  uncertainty k = 0.367749
         9         8        13        49     9        0.000000       -0.499514         1    ;  uncertainty k = 0.489777
         9         8        13        49     9      180.000000        3.941066         2    ;  uncertainty k = 1.348309
         9         8        13        49     9        0.000000        0.782236         3    ;  uncertainty k = 0.096981
         9         8        13        49     9      180.000000        1.097834         4    ;  uncertainty k = 0.213078
         9        10        11        12     9        0.000000       -0.509365         1    ;  uncertainty k = 0.586661
         9        10        11        12     9      180.000000       12.107978         2    ;  uncertainty k = 0.197300
         9        10        11        12     9        0.000000        1.078750         3    ;  uncertainty k = 0.445366
         9        10        11        12     9      180.000000        0.975973         4    ;  uncertainty k = 0.095252
         9        10        11        14     9        0.000000       -0.039226         1    ;  uncertainty k = 1.013980
         9        10        11        14     9      180.000000       11.598509         2    ;  uncertainty k = 0.430460
         9        10        11        14     9        0.000000        2.081244         3    ;  uncertainty k = 0.284752
         9        10        11        14     9      180.000000        1.038847         4    ;  uncertainty k = 0.398591
        10         9         8        13     9        0.000000       -0.295425         1    ;  uncertainty k = 0.430237
        10         9         8        13     9      180.000000        9.210914         2    ;  uncertainty k = 0.610380
        10         9         8        13     9        0.000000       -0.519633         3    ;  uncertainty k = 0.219368
        10         9         8        13     9      180.000000        1.148160         4    ;  uncertainty k = 0.367749
        10        11        12        13     9        0.000000       -0.509365         1    ;  uncertainty k = 0.586661
        10        11        12        13     9      180.000000       12.107978         2    ;  uncertainty k = 0.197300
        10        11        12        13     9        0.000000        1.078750         3    ;  uncertainty k = 0.445366
        10        11        12        13     9      180.000000        0.975973         4    ;  uncertainty k = 0.095252
        10        11        14        15     9        0.000000        0.480083         1    ;  uncertainty k = 0.594424
        10        11        14        15     9      180.000000        4.691411         2    ;  uncertainty k = 0.172266
        10        11        14        15     9        0.000000        0.515016         3    ;  uncertainty k = 0.136638
        10        11        14        15     9      180.000000        0.033086         4    ;  uncertainty k = 0.042749
        10        11        14        35     9        0.000000        0.460215         1    ;  uncertainty k = 0.593511
        10        11        14        35     9      180.000000        4.674515         2    ;  uncertainty k = 0.148568
        10        11        14        35     9        0.000000        0.513355         3    ;  uncertainty k = 0.124842
        10        11        14        35     9      180.000000        0.023824         4    ;  uncertainty k = 0.044346
        11        10         9        48     9        0.000000        0.319908         1    ;  uncertainty k = 0.607510
        11        10         9        48     9      180.000000       15.431788         2    ;  uncertainty k = 0.483098
        11        10         9        48     9        0.000000        1.763308         3    ;  uncertainty k = 0.818117
        11        10         9        48     9      180.000000        1.578522         4    ;  uncertainty k = 0.329454
        11        12        13        49     9        0.000000        0.319908         1    ;  uncertainty k = 0.607510
        11        12        13        49     9      180.000000       15.431788         2    ;  uncertainty k = 0.483098
        11        12        13        49     9        0.000000        1.763308         3    ;  uncertainty k = 0.818117
        11        12        13        49     9      180.000000        1.578522         4    ;  uncertainty k = 0.329454
        11        14        15        16     9        0.000000        0.339850         1    ;  uncertainty k = 0.442812
        11        14        15        16     9      180.000000        9.060788         2    ;  uncertainty k = 0.586016
        11        14        15        16     9        0.000000        1.180519         3    ;  uncertainty k = 0.373561
        11        14        15        16     9      180.000000        1.741148         4    ;  uncertainty k = 0.148939
        11        14        15        50     9        0.000000       -0.226946         1    ;  uncertainty k = 0.381914
        11        14        15        50     9      180.000000        7.648230         2    ;  uncertainty k = 0.403961
        11        14        15        50     9        0.000000        0.669874         3    ;  uncertainty k = 0.181968
        11        14        15        50     9      180.000000        1.201641         4    ;  uncertainty k = 0.104618
        11        14        35        18     9        0.000000        0.279166         1    ;  uncertainty k = 0.321565
        11        14        35        18     9      180.000000        8.837917         2    ;  uncertainty k = 0.475965
        11        14        35        18     9        0.000000        1.187740         3    ;  uncertainty k = 0.267359
        11        14        35        18     9      180.000000        1.682796         4    ;  uncertainty k = 0.105273
        11        14        35        61     9        0.000000       -0.127594         1    ;  uncertainty k = 0.220580
        11        14        35        61     9      180.000000        7.665701         2    ;  uncertainty k = 0.373040
        11        14        35        61     9        0.000000        0.717375         3    ;  uncertainty k = 0.167858
        11        14        35        61     9      180.000000        1.266451         4    ;  uncertainty k = 0.117304
        12        11        14        15     9        0.000000        0.480083         1    ;  uncertainty k = 0.594424
        12        11        14        15     9      180.000000        4.691411         2    ;  uncertainty k = 0.172266
        12        11        14        15     9        0.000000        0.515016         3    ;  uncertainty k = 0.136638
        12        11        14        15     9      180.000000        0.033086         4    ;  uncertainty k = 0.042749
        12        11        14        35     9        0.000000        0.460215         1    ;  uncertainty k = 0.593511
        12        11        14        35     9      180.000000        4.674515         2    ;  uncertainty k = 0.148568
        12        11        14        35     9        0.000000        0.513355         3    ;  uncertainty k = 0.124842
        12        11        14        35     9      180.000000        0.023824         4    ;  uncertainty k = 0.044346
        13         8         9        48     9        0.000000       -0.499514         1    ;  uncertainty k = 0.489777
        13         8         9        48     9      180.000000        3.941066         2    ;  uncertainty k = 1.348309
        13         8         9        48     9        0.000000        0.782236         3    ;  uncertainty k = 0.096981
        13         8         9        48     9      180.000000        1.097834         4    ;  uncertainty k = 0.213078
        13        12        11        14     9        0.000000       -0.039226         1    ;  uncertainty k = 1.013980
        13        12        11        14     9      180.000000       11.598509         2    ;  uncertainty k = 0.430460
        13        12        11        14     9        0.000000        2.081244         3    ;  uncertainty k = 0.284752
        13        12        11        14     9      180.000000        1.038847         4    ;  uncertainty k = 0.398591
        14        15        16        17     9        0.000000       -0.088013         1    ;  uncertainty k = 0.116954
        14        15        16        17     9      180.000000       13.336527         2    ;  uncertainty k = 0.272806
        14        15        16        17     9        0.000000       -0.705599         3    ;  uncertainty k = 0.378680
        14        15        16        17     9      180.000000        0.796969         4    ;  uncertainty k = 0.231917
        14        15        16        51     9        0.000000       -0.041389         1    ;  uncertainty k = 0.161787
        14        15        16        51     9      180.000000        7.886651         2    ;  uncertainty k = 0.569640
        14        15        16        51     9        0.000000        1.380915         3    ;  uncertainty k = 0.236624
        14        15        16        51     9      180.000000        1.750717         4    ;  uncertainty k = 0.174637
        14        35        18        17     9        0.000000       -0.291846         1    ;  uncertainty k = 0.244096
        14        35        18        17     9      180.000000       10.704492         2    ;  uncertainty k = 0.719215
        14        35        18        17     9        0.000000       -0.107596         3    ;  uncertainty k = 0.114190
        14        35        18        17     9      180.000000        1.012333         4    ;  uncertainty k = 0.477813
        14        35        18        19     9        0.000000        0.118765         1    ;  uncertainty k = 0.282849
        14        35        18        19     9      180.000000        9.675914         2    ;  uncertainty k = 0.673834
        14        35        18        19     9        0.000000        1.284044         3    ;  uncertainty k = 0.243148
        14        35        18        19     9      180.000000        1.626378         4    ;  uncertainty k = 0.321831
        15        14        35        18     9        0.000000        0.048057         1    ;  uncertainty k = 0.220108
        15        14        35        18     9      180.000000       10.093092         2    ;  uncertainty k = 0.340528
        15        14        35        18     9        0.000000       -0.353064         3    ;  uncertainty k = 0.243860
        15        14        35        18     9      180.000000        1.031206         4    ;  uncertainty k = 0.212000
        15        14        35        61     9        0.000000        0.354885         1    ;  uncertainty k = 0.112927
        15        14        35        61     9      180.000000        7.246114         2    ;  uncertainty k = 0.602096
        15        14        35        61     9        0.000000        1.301880         3    ;  uncertainty k = 0.265984
        15        14        35        61     9      180.000000        1.658007         4    ;  uncertainty k = 0.260696
        15        16        17        18     9        0.000000       -0.198149         1    ;  uncertainty k = 0.198431
        15        16        17        18     9      180.000000       13.546945         2    ;  uncertainty k = 0.336772
        15        16        17        18     9        0.000000       -0.836209         3    ;  uncertainty k = 0.420103
        15        16        17        18     9      180.000000        0.757475         4    ;  uncertainty k = 0.245679
        15        16        17        52     9        0.000000        0.056861         1    ;  uncertainty k = 0.128735
        15        16        17        52     9      180.000000        7.661115         2    ;  uncertainty k = 0.430435
        15        16        17        52     9        0.000000        1.432914         3    ;  uncertainty k = 0.237270
        15        16        17        52     9      180.000000        1.776467         4    ;  uncertainty k = 0.116766
        16        15        14        35     9        0.000000        0.024908         1    ;  uncertainty k = 0.222943
        16        15        14        35     9      180.000000       10.946210         2    ;  uncertainty k = 0.223707
        16        15        14        35     9        0.000000       -0.601144         3    ;  uncertainty k = 0.171401
        16        15        14        35     9      180.000000        0.902860         4    ;  uncertainty k = 0.223031
        16        17        18        19     9        0.000000        0.224490         1    ;  uncertainty k = 0.225258
        16        17        18        19     9      180.000000        9.771506         2    ;  uncertainty k = 0.581586
        16        17        18        19     9        0.000000        1.297805         3    ;  uncertainty k = 0.327208
        16        17        18        19     9      180.000000        1.799937         4    ;  uncertainty k = 0.234903
        16        17        18        35     9        0.000000       -0.215688         1    ;  uncertainty k = 0.137644
        16        17        18        35     9      180.000000       11.477600         2    ;  uncertainty k = 0.433454
        16        17        18        35     9        0.000000       -0.531144         3    ;  uncertainty k = 0.269026
        16        17        18        35     9      180.000000        0.839994         4    ;  uncertainty k = 0.394476
        17        16        15        50     9        0.000000        0.032234         1    ;  uncertainty k = 0.139810
        17        16        15        50     9      180.000000        7.347840         2    ;  uncertainty k = 0.261637
        17        16        15        50     9        0.000000        1.375633         3    ;  uncertainty k = 0.194678
        17        16        15        50     9      180.000000        1.836254         4    ;  uncertainty k = 0.206650
        17        18        19        20     9        0.000000        1.872177         1    ;  uncertainty k = 0.800661
        17        18        19        20     9      180.000000        2.343492         2    ;  uncertainty k = 0.316385
        17        18        19        20     9        0.000000        0.624301         3    ;  uncertainty k = 0.152598
        17        18        19        20     9      180.000000        0.095646         4    ;  uncertainty k = 0.049875
        17        18        19        53     9        0.000000       -0.527351         1    ;  uncertainty k = 0.230407
        17        18        19        53     9      180.000000        2.024930         2    ;  uncertainty k = 0.120208
        17        18        19        53     9        0.000000        0.504962         3    ;  uncertainty k = 0.061192
        17        18        19        53     9      180.000000        0.145045         4    ;  uncertainty k = 0.047061
        17        18        19        54     9        0.000000       -0.527351         1    ;  uncertainty k = 0.230407
        17        18        19        54     9      180.000000        2.024930         2    ;  uncertainty k = 0.120208
        17        18        19        54     9        0.000000        0.504962         3    ;  uncertainty k = 0.061192
        17        18        19        54     9      180.000000        0.145045         4    ;  uncertainty k = 0.047061
        17        18        35        61     9        0.000000        0.202167         1    ;  uncertainty k = 0.173865
        17        18        35        61     9      180.000000        7.402416         2    ;  uncertainty k = 0.589117
        17        18        35        61     9        0.000000        1.310845         3    ;  uncertainty k = 0.225603
        17        18        35        61     9      180.000000        1.667004         4    ;  uncertainty k = 0.181393
        18        17        16        51     9        0.000000        0.034904         1    ;  uncertainty k = 0.206612
        18        17        16        51     9      180.000000        7.538890         2    ;  uncertainty k = 0.336444
        18        17        16        51     9        0.000000        1.380116         3    ;  uncertainty k = 0.190288
        18        17        16        51     9      180.000000        1.793403         4    ;  uncertainty k = 0.112527
        18        19        20        21     9        0.000000        0.436874         1    ;  uncertainty k = 0.691879
        18        19        20        21     9      180.000000        0.068826         2    ;  uncertainty k = 0.314386
        18        19        20        21     9        0.000000        0.773356         3    ;  uncertainty k = 0.370061
        18        19        20        21     9      180.000000        0.186066         4    ;  uncertainty k = 0.072048
        18        19        20        25     9        0.000000        1.507109         1    ;  uncertainty k = 0.389924
        18        19        20        25     9      180.000000       -0.022659         2    ;  uncertainty k = 0.137066
        18        19        20        25     9        0.000000        0.224963         3    ;  uncertainty k = 0.239203
        18        19        20        25     9      180.000000        0.248492         4    ;  uncertainty k = 0.123687
        19        18        17        52     9        0.000000        0.024907         1    ;  uncertainty k = 0.237816
        19        18        17        52     9      180.000000        7.591234         2    ;  uncertainty k = 0.209683
        19        18        17        52     9        0.000000        0.605780         3    ;  uncertainty k = 0.275316
        19        18        17        52     9      180.000000        1.047429         4    ;  uncertainty k = 0.187217
        19        18        35        61     9        0.000000       -0.028493         1    ;  uncertainty k = 0.275424
        19        18        35        61     9      180.000000        7.704184         2    ;  uncertainty k = 0.344091
        19        18        35        61     9        0.000000        0.555185         3    ;  uncertainty k = 0.312928
        19        18        35        61     9      180.000000        1.094336         4    ;  uncertainty k = 0.153018
        19        20        21        22     9        0.000000       -0.841723         1    ;  uncertainty k = 4.229626
        19        20        21        22     9      180.000000       12.726664         2    ;  uncertainty k = 0.800492
        19        20        21        22     9        0.000000        1.869817         3    ;  uncertainty k = 0.921637
        19        20        21        22     9      180.000000        0.104956         4    ;  uncertainty k = 0.375842
        19        20        25        24     9        0.000000        0.634210         1    ;  uncertainty k = 1.109144
        19        20        25        24     9      180.000000        7.729793         2    ;  uncertainty k = 0.355043
        19        20        25        24     9        0.000000        1.756335         3    ;  uncertainty k = 0.398207
        19        20        25        24     9      180.000000       -0.228898         4    ;  uncertainty k = 0.310569
        19        20        25        26     9        0.000000        0.936357         1    ;  uncertainty k = 1.270753
        19        20        25        26     9      180.000000       11.759401         2    ;  uncertainty k = 0.389288
        19        20        25        26     9        0.000000        0.652543         3    ;  uncertainty k = 0.132949
        19        20        25        26     9      180.000000       -0.183661         4    ;  uncertainty k = 0.344177
        20        19        18        35     9        0.000000        1.978359         1    ;  uncertainty k = 0.908936
        20        19        18        35     9      180.000000        2.263896         2    ;  uncertainty k = 0.392653
        20        19        18        35     9        0.000000        0.571494         3    ;  uncertainty k = 0.238358
        20        19        18        35     9      180.000000        0.100637         4    ;  uncertainty k = 0.060188
        20        21        22        23     9        0.000000        0.183578         1    ;  uncertainty k = 0.771397
        20        21        22        23     9      180.000000       24.456373         2    ;  uncertainty k = 0.187579
        20        21        22        23     9        0.000000        1.990464         3    ;  uncertainty k = 0.597466
        20        21        22        23     9      180.000000        0.718992         4    ;  uncertainty k = 0.279944
        20        21        22        27     9        0.000000       -0.103644         1    ;  uncertainty k = 0.626563
        20        21        22        27     9      180.000000       25.528343         2    ;  uncertainty k = 0.237554
        20        21        22        27     9        0.000000        2.937623         3    ;  uncertainty k = 0.130187
        20        21        22        27     9      180.000000        0.708425         4    ;  uncertainty k = 0.580747
        20        25        24        23     9        0.000000        0.419278         1    ;  uncertainty k = 2.274473
        20        25        24        23     9      180.000000        1.605236         2    ;  uncertainty k = 0.697545
        20        25        24        23     9        0.000000       -0.163994         3    ;  uncertainty k = 0.200172
        20        25        24        23     9      180.000000        0.325528         4    ;  uncertainty k = 0.077908
        20        25        24        56     9        0.000000       -1.120179         1    ;  uncertainty k = 2.456073
        20        25        24        56     9      180.000000        2.364370         2    ;  uncertainty k = 0.329357
        20        25        24        56     9        0.000000        0.459246         3    ;  uncertainty k = 0.206811
        20        25        24        56     9      180.000000        0.273913         4    ;  uncertainty k = 0.151693
        21        20        19        53     9        0.000000        0.383410         1    ;  uncertainty k = 0.534068
        21        20        19        53     9      180.000000        1.169990         2    ;  uncertainty k = 0.403949
        21        20        19        53     9        0.000000        0.582239         3    ;  uncertainty k = 0.072428
        21        20        19        53     9      180.000000        0.242244         4    ;  uncertainty k = 0.129086
        21        20        19        54     9        0.000000        0.383410         1    ;  uncertainty k = 0.534068
        21        20        19        54     9      180.000000        1.169990         2    ;  uncertainty k = 0.403949
        21        20        19        54     9        0.000000        0.582239         3    ;  uncertainty k = 0.072428
        21        20        19        54     9      180.000000        0.242244         4    ;  uncertainty k = 0.129086
        21        20        25        24     9        0.000000        2.898929         1    ;  uncertainty k = 2.397583
        21        20        25        24     9      180.000000        2.029916         2    ;  uncertainty k = 0.771883
        21        20        25        24     9        0.000000        1.223010         3    ;  uncertainty k = 0.519452
        21        20        25        24     9      180.000000        0.577304         4    ;  uncertainty k = 0.261783
        21        20        25        26     9        0.000000        2.605133         1    ;  uncertainty k = 1.172602
        21        20        25        26     9      180.000000       10.822449         2    ;  uncertainty k = 0.452983
        21        20        25        26     9        0.000000        1.231348         3    ;  uncertainty k = 0.502016
        21        20        25        26     9      180.000000       -0.281985         4    ;  uncertainty k = 0.368205
        21        22        23        24     9        0.000000        0.332927         1    ;  uncertainty k = 1.374902
        21        22        23        24     9      180.000000        4.367813         2    ;  uncertainty k = 0.787663
        21        22        23        24     9        0.000000        0.207937         3    ;  uncertainty k = 0.459080
        21        22        23        24     9      180.000000        0.601057         4    ;  uncertainty k = 0.186301
        21        22        23        55     9        0.000000       -0.995676         1    ;  uncertainty k = 0.817238
        21        22        23        55     9      180.000000        4.518457         2    ;  uncertainty k = 0.798380
        21        22        23        55     9        0.000000        0.750755         3    ;  uncertainty k = 0.441553
        21        22        23        55     9      180.000000        0.508658         4    ;  uncertainty k = 0.169760
        21        22        27        28     9        0.000000        0.450024         1    ;  uncertainty k = 0.969159
        21        22        27        28     9      180.000000        4.481246         2    ;  uncertainty k = 0.238893
        21        22        27        28     9        0.000000        0.231510         3    ;  uncertainty k = 0.269014
        21        22        27        28     9      180.000000       -0.033000         4    ;  uncertainty k = 0.107216
        21        22        27        32     9        0.000000        0.831237         1    ;  uncertainty k = 1.042168
        21        22        27        32     9      180.000000        4.421241         2    ;  uncertainty k = 0.088421
        21        22        27        32     9        0.000000        0.359943         3    ;  uncertainty k = 0.162332
        21        22        27        32     9      180.000000       -0.017074         4    ;  uncertainty k = 0.107059
        22        21        20        25     9        0.000000        3.689479         1    ;  uncertainty k = 2.497352
        22        21        20        25     9      180.000000        4.718593         2    ;  uncertainty k = 1.301297
        22        21        20        25     9        0.000000        1.829214         3    ;  uncertainty k = 0.697914
        22        21        20        25     9      180.000000        0.352681         4    ;  uncertainty k = 0.591003
        22        23        24        25     9        0.000000       -0.226611         1    ;  uncertainty k = 0.711952
        22        23        24        25     9      180.000000       17.793689         2    ;  uncertainty k = 0.299834
        22        23        24        25     9        0.000000        0.661316         3    ;  uncertainty k = 0.442288
        22        23        24        25     9      180.000000        0.994176         4    ;  uncertainty k = 0.355851
        22        23        24        56     9        0.000000       -0.368061         1    ;  uncertainty k = 0.793287
        22        23        24        56     9      180.000000       16.599941         2    ;  uncertainty k = 0.645992
        22        23        24        56     9        0.000000        1.946854         3    ;  uncertainty k = 0.318383
        22        23        24        56     9      180.000000        1.166107         4    ;  uncertainty k = 0.576711
        22        27        28        29     9        0.000000        0.139722         1    ;  uncertainty k = 0.238434
        22        27        28        29     9      180.000000        9.391649         2    ;  uncertainty k = 0.440157
        22        27        28        29     9        0.000000        1.295369         3    ;  uncertainty k = 0.189112
        22        27        28        29     9      180.000000        1.674447         4    ;  uncertainty k = 0.231371
        22        27        28        57     9        0.000000       -0.031086         1    ;  uncertainty k = 0.413277
        22        27        28        57     9      180.000000        7.342513         2    ;  uncertainty k = 0.480428
        22        27        28        57     9        0.000000        0.672131         3    ;  uncertainty k = 0.217925
        22        27        28        57     9      180.000000        1.109318         4    ;  uncertainty k = 0.195987
        22        27        32        31     9        0.000000        0.015392         1    ;  uncertainty k = 0.247469
        22        27        32        31     9      180.000000        9.478615         2    ;  uncertainty k = 0.560197
        22        27        32        31     9        0.000000        1.276693         3    ;  uncertainty k = 0.096054
        22        27        32        31     9      180.000000        1.725698         4    ;  uncertainty k = 0.203576
        22        27        32        60     9        0.000000        0.097422         1    ;  uncertainty k = 0.521560
        22        27        32        60     9      180.000000        7.608776         2    ;  uncertainty k = 0.470786
        22        27        32        60     9        0.000000        0.721451         3    ;  uncertainty k = 0.263816
        22        27        32        60     9      180.000000        1.189966         4    ;  uncertainty k = 0.211660
        23        22        27        28     9        0.000000       -0.132028         1    ;  uncertainty k = 0.620574
        23        22        27        28     9      180.000000        3.996165         2    ;  uncertainty k = 0.207999
        23        22        27        28     9        0.000000        0.691203         3    ;  uncertainty k = 0.235478
        23        22        27        28     9      180.000000       -0.174521         4    ;  uncertainty k = 0.094532
        23        22        27        32     9        0.000000       -0.150046         1    ;  uncertainty k = 0.687249
        23        22        27        32     9      180.000000        3.972332         2    ;  uncertainty k = 0.208131
        23        22        27        32     9        0.000000        0.617904         3    ;  uncertainty k = 0.137440
        23        22        27        32     9      180.000000       -0.161033         4    ;  uncertainty k = 0.081562
        23        24        25        26     9        0.000000       -2.001816         1    ;  uncertainty k = 1.317032
        23        24        25        26     9      180.000000        3.389786         2    ;  uncertainty k = 0.746169
        23        24        25        26     9        0.000000       -0.174173         3    ;  uncertainty k = 0.227865
        23        24        25        26     9      180.000000        0.016096         4    ;  uncertainty k = 0.112368
        24        23        22        27     9        0.000000        0.456531         1    ;  uncertainty k = 0.879608
        24        23        22        27     9      180.000000        4.650709         2    ;  uncertainty k = 0.970400
        24        23        22        27     9        0.000000        0.700521         3    ;  uncertainty k = 0.353871
        24        23        22        27     9      180.000000        0.562543         4    ;  uncertainty k = 0.325359
        25        20        19        53     9        0.000000       -0.473768         1    ;  uncertainty k = 0.528512
        25        20        19        53     9      180.000000        1.255511         2    ;  uncertainty k = 0.273074
        25        20        19        53     9        0.000000        0.779238         3    ;  uncertainty k = 0.054623
        25        20        19        53     9      180.000000        0.411931         4    ;  uncertainty k = 0.034525
        25        20        19        54     9        0.000000       -0.473768         1    ;  uncertainty k = 0.528512
        25        20        19        54     9      180.000000        1.255511         2    ;  uncertainty k = 0.273074
        25        20        19        54     9        0.000000        0.779238         3    ;  uncertainty k = 0.054623
        25        20        19        54     9      180.000000        0.411931         4    ;  uncertainty k = 0.034525
        25        24        23        55     9        0.000000       -0.328809         1    ;  uncertainty k = 0.661921
        25        24        23        55     9      180.000000       15.838400         2    ;  uncertainty k = 0.436273
        25        24        23        55     9        0.000000        1.792267         3    ;  uncertainty k = 0.273244
        25        24        23        55     9      180.000000        1.039596         4    ;  uncertainty k = 0.351736
        26        25        24        56     9        0.000000       -3.368927         1    ;  uncertainty k = 1.838218
        26        25        24        56     9      180.000000        6.946407         2    ;  uncertainty k = 0.848337
        26        25        24        56     9        0.000000        0.461531         3    ;  uncertainty k = 0.415057
        26        25        24        56     9      180.000000       -0.155191         4    ;  uncertainty k = 0.180479
        27        22        23        55     9        0.000000       -0.756843         1    ;  uncertainty k = 0.933435
        27        22        23        55     9      180.000000        5.249261         2    ;  uncertainty k = 0.446025
        27        22        23        55     9        0.000000        1.040735         3    ;  uncertainty k = 0.191588
        27        22        23        55     9      180.000000        0.377706         4    ;  uncertainty k = 0.178387
        27        28        29        30     9        0.000000       -0.049203         1    ;  uncertainty k = 0.163556
        27        28        29        30     9      180.000000       13.686624         2    ;  uncertainty k = 0.375868
        27        28        29        30     9        0.000000       -0.763032         3    ;  uncertainty k = 0.333531
        27        28        29        30     9      180.000000        0.699279         4    ;  uncertainty k = 0.301188
        27        28        29        58     9        0.000000        0.092120         1    ;  uncertainty k = 0.147463
        27        28        29        58     9      180.000000        7.738785         2    ;  uncertainty k = 0.435915
        27        28        29        58     9        0.000000        1.464006         3    ;  uncertainty k = 0.192246
        27        28        29        58     9      180.000000        1.863952         4    ;  uncertainty k = 0.082876
        27        32        31        30     9        0.000000        0.026290         1    ;  uncertainty k = 0.163718
        27        32        31        30     9      180.000000       10.780341         2    ;  uncertainty k = 0.535460
        27        32        31        30     9        0.000000       -0.553721         3    ;  uncertainty k = 0.298857
        27        32        31        30     9      180.000000        1.007541         4    ;  uncertainty k = 0.374931
        27        32        31        33     9        0.000000        0.158263         1    ;  uncertainty k = 0.128544
        27        32        31        33     9      180.000000       10.701148         2    ;  uncertainty k = 0.404543
        27        32        31        33     9        0.000000        1.289757         3    ;  uncertainty k = 0.239427
        27        32        31        33     9      180.000000        1.577319         4    ;  uncertainty k = 0.195413
        28        27        32        31     9        0.000000       -0.088161         1    ;  uncertainty k = 0.275861
        28        27        32        31     9      180.000000       11.403858         2    ;  uncertainty k = 0.293421
        28        27        32        31     9        0.000000       -0.190115         3    ;  uncertainty k = 0.257035
        28        27        32        31     9      180.000000        1.014693         4    ;  uncertainty k = 0.277823
        28        27        32        60     9        0.000000        0.195105         1    ;  uncertainty k = 0.123804
        28        27        32        60     9      180.000000        7.312792         2    ;  uncertainty k = 0.486605
        28        27        32        60     9        0.000000        1.334755         3    ;  uncertainty k = 0.135466
        28        27        32        60     9      180.000000        1.624675         4    ;  uncertainty k = 0.204584
        28        29        30        31     9        0.000000       -0.162375         1    ;  uncertainty k = 0.127361
        28        29        30        31     9      180.000000       14.375993         2    ;  uncertainty k = 0.235445
        28        29        30        31     9        0.000000       -0.845739         3    ;  uncertainty k = 0.412730
        28        29        30        31     9      180.000000        0.712699         4    ;  uncertainty k = 0.185358
        28        29        30        59     9        0.000000        0.062263         1    ;  uncertainty k = 0.071516
        28        29        30        59     9      180.000000        7.544120         2    ;  uncertainty k = 0.342884
        28        29        30        59     9        0.000000        1.407576         3    ;  uncertainty k = 0.184411
        28        29        30        59     9      180.000000        1.750792         4    ;  uncertainty k = 0.062066
        29        28        27        32     9        0.000000        0.064792         1    ;  uncertainty k = 0.137895
        29        28        27        32     9      180.000000       10.697740         2    ;  uncertainty k = 0.350667
        29        28        27        32     9        0.000000       -0.484690         3    ;  uncertainty k = 0.257405
        29        28        27        32     9      180.000000        0.939268         4    ;  uncertainty k = 0.268725
        29        30        31        32     9        0.000000       -0.046891         1    ;  uncertainty k = 0.148969
        29        30        31        32     9      180.000000       11.402565         2    ;  uncertainty k = 0.388986
        29        30        31        32     9        0.000000       -0.802294         3    ;  uncertainty k = 0.386159
        29        30        31        32     9      180.000000        0.851168         4    ;  uncertainty k = 0.306482
        29        30        31        33     9        0.000000        0.196048         1    ;  uncertainty k = 0.151232
        29        30        31        33     9      180.000000       10.173629         2    ;  uncertainty k = 0.441274
        29        30        31        33     9        0.000000        1.269732         3    ;  uncertainty k = 0.268430
        29        30        31        33     9      180.000000        1.597183         4    ;  uncertainty k = 0.173239
        30        29        28        57     9        0.000000        0.040009         1    ;  uncertainty k = 0.127743
        30        29        28        57     9      180.000000        7.549360         2    ;  uncertainty k = 0.281911
        30        29        28        57     9        0.000000        1.439907         3    ;  uncertainty k = 0.224819
        30        29        28        57     9      180.000000        1.850183         4    ;  uncertainty k = 0.149466
        30        31        32        60     9        0.000000        0.153167         1    ;  uncertainty k = 0.327138
        30        31        32        60     9      180.000000        7.014317         2    ;  uncertainty k = 0.561901
        30        31        32        60     9        0.000000        1.332491         3    ;  uncertainty k = 0.267777
        30        31        32        60     9      180.000000        1.619938         4    ;  uncertainty k = 0.119490
        30        31        33        34     9        0.000000        0.000000         1    ;  uncertainty k = 0.000000
        30        31        33        34     9      180.000000        0.000000         2    ;  uncertainty k = 0.000000
        30        31        33        34     9        0.000000        0.000000         3    ;  uncertainty k = 0.000000
        30        31        33        34     9      180.000000        0.000000         4    ;  uncertainty k = 0.000000
        31        30        29        58     9        0.000000        0.035706         1    ;  uncertainty k = 0.160038
        31        30        29        58     9      180.000000        8.241760         2    ;  uncertainty k = 0.493552
        31        30        29        58     9        0.000000        1.350728         3    ;  uncertainty k = 0.294397
        31        30        29        58     9      180.000000        1.737960         4    ;  uncertainty k = 0.138864
        32        27        28        57     9        0.000000        0.203726         1    ;  uncertainty k = 0.142454
        32        27        28        57     9      180.000000        6.874536         2    ;  uncertainty k = 0.468715
        32        27        28        57     9        0.000000        1.375969         3    ;  uncertainty k = 0.157999
        32        27        28        57     9      180.000000        1.642494         4    ;  uncertainty k = 0.249858
        32        31        30        59     9        0.000000        0.186346         1    ;  uncertainty k = 0.437953
        32        31        30        59     9      180.000000        6.718599         2    ;  uncertainty k = 0.518043
        32        31        30        59     9        0.000000        1.387209         3    ;  uncertainty k = 0.305000
        32        31        30        59     9      180.000000        1.607519         4    ;  uncertainty k = 0.112945
        32        31        33        34     9        0.000000        0.000000         1    ;  uncertainty k = 0.000000
        32        31        33        34     9      180.000000        0.000000         2    ;  uncertainty k = 0.000000
        32        31        33        34     9        0.000000        0.000000         3    ;  uncertainty k = 0.000000
        32        31        33        34     9      180.000000        0.000000         4    ;  uncertainty k = 0.000000
        33        31        30        59     9        0.000000       -0.347397         1    ;  uncertainty k = 0.499937
        33        31        30        59     9      180.000000        7.212459         2    ;  uncertainty k = 0.171136
        33        31        30        59     9        0.000000        0.556733         3    ;  uncertainty k = 0.082526
        33        31        30        59     9      180.000000        1.010123         4    ;  uncertainty k = 0.159681
        33        31        32        60     9        0.000000       -0.241041         1    ;  uncertainty k = 0.290800
        33        31        32        60     9      180.000000        7.609150         2    ;  uncertainty k = 0.185744
        33        31        32        60     9        0.000000        0.564403         3    ;  uncertainty k = 0.131949
        33        31        32        60     9      180.000000        1.095746         4    ;  uncertainty k = 0.165903
        35        14        15        50     9        0.000000        0.242999         1    ;  uncertainty k = 0.116871
        35        14        15        50     9      180.000000        7.003599         2    ;  uncertainty k = 0.458506
        35        14        15        50     9        0.000000        1.292743         3    ;  uncertainty k = 0.255453
        35        14        15        50     9      180.000000        1.631587         4    ;  uncertainty k = 0.270966
        35        18        17        52     9        0.000000        0.259376         1    ;  uncertainty k = 0.177207
        35        18        17        52     9      180.000000        7.185689         2    ;  uncertainty k = 0.664902
        35        18        17        52     9        0.000000        1.407610         3    ;  uncertainty k = 0.323470
        35        18        17        52     9      180.000000        1.653410         4    ;  uncertainty k = 0.179617
        35        18        19        53     9        0.000000       -0.467501         1    ;  uncertainty k = 0.342458
        35        18        19        53     9      180.000000        1.866854         2    ;  uncertainty k = 0.132943
        35        18        19        53     9        0.000000        0.468388         3    ;  uncertainty k = 0.097662
        35        18        19        53     9      180.000000        0.149866         4    ;  uncertainty k = 0.032014
        35        18        19        54     9        0.000000       -0.467501         1    ;  uncertainty k = 0.342458
        35        18        19        54     9      180.000000        1.866854         2    ;  uncertainty k = 0.132943
        35        18        19        54     9        0.000000        0.468388         3    ;  uncertainty k = 0.097662
        35        18        19        54     9      180.000000        0.149866         4    ;  uncertainty k = 0.032014
        36         1         2        62     9        0.000000        0.051179         1    ;  uncertainty k = 0.508164
        36         1         2        62     9      180.000000       -0.572991         2    ;  uncertainty k = 0.412864
        36         1         2        62     9        0.000000        0.376089         3    ;  uncertainty k = 0.057152
        36         1         2        62     9      180.000000        0.081725         4    ;  uncertainty k = 0.106528
        37         1         2        62     9        0.000000        0.051179         1    ;  uncertainty k = 0.508164
        37         1         2        62     9      180.000000       -0.572991         2    ;  uncertainty k = 0.412864
        37         1         2        62     9        0.000000        0.376089         3    ;  uncertainty k = 0.057152
        37         1         2        62     9      180.000000        0.081725         4    ;  uncertainty k = 0.106528
        38         1         2        62     9        0.000000        0.051179         1    ;  uncertainty k = 0.508164
        38         1         2        62     9      180.000000       -0.572991         2    ;  uncertainty k = 0.412864
        38         1         2        62     9        0.000000        0.376089         3    ;  uncertainty k = 0.057152
        38         1         2        62     9      180.000000        0.081725         4    ;  uncertainty k = 0.106528
        39         3         2        62     9        0.000000        0.051179         1    ;  uncertainty k = 0.508164
        39         3         2        62     9      180.000000       -0.572991         2    ;  uncertainty k = 0.412864
        39         3         2        62     9        0.000000        0.376089         3    ;  uncertainty k = 0.057152
        39         3         2        62     9      180.000000        0.081725         4    ;  uncertainty k = 0.106528
        40         3         2        62     9        0.000000        0.051179         1    ;  uncertainty k = 0.508164
        40         3         2        62     9      180.000000       -0.572991         2    ;  uncertainty k = 0.412864
        40         3         2        62     9        0.000000        0.376089         3    ;  uncertainty k = 0.057152
        40         3         2        62     9      180.000000        0.081725         4    ;  uncertainty k = 0.106528
        41         3         2        62     9        0.000000        0.051179         1    ;  uncertainty k = 0.508164
        41         3         2        62     9      180.000000       -0.572991         2    ;  uncertainty k = 0.412864
        41         3         2        62     9        0.000000        0.376089         3    ;  uncertainty k = 0.057152
        41         3         2        62     9      180.000000        0.081725         4    ;  uncertainty k = 0.106528
        42         4         2        62     9        0.000000        0.900144         1    ;  uncertainty k = 0.580618
        42         4         2        62     9      180.000000       -0.586376         2    ;  uncertainty k = 0.270793
        42         4         2        62     9        0.000000       -0.005709         3    ;  uncertainty k = 0.197915
        42         4         2        62     9      180.000000       -0.037529         4    ;  uncertainty k = 0.093442
        42         4         5        44     9        0.000000        0.482526         1    ;  uncertainty k = 0.350610
        42         4         5        44     9      180.000000       -0.037011         2    ;  uncertainty k = 0.360522
        42         4         5        44     9        0.000000        0.148871         3    ;  uncertainty k = 0.108990
        42         4         5        44     9      180.000000        0.025944         4    ;  uncertainty k = 0.068041
        42         4         5        45     9        0.000000        0.482526         1    ;  uncertainty k = 0.350610
        42         4         5        45     9      180.000000       -0.037011         2    ;  uncertainty k = 0.360522
        42         4         5        45     9        0.000000        0.148871         3    ;  uncertainty k = 0.108990
        42         4         5        45     9      180.000000        0.025944         4    ;  uncertainty k = 0.068041
        43         4         2        62     9        0.000000        0.900144         1    ;  uncertainty k = 0.580618
        43         4         2        62     9      180.000000       -0.586376         2    ;  uncertainty k = 0.270793
        43         4         2        62     9        0.000000       -0.005709         3    ;  uncertainty k = 0.197915
        43         4         2        62     9      180.000000       -0.037529         4    ;  uncertainty k = 0.093442
        43         4         5        44     9        0.000000        0.482526         1    ;  uncertainty k = 0.350610
        43         4         5        44     9      180.000000       -0.037011         2    ;  uncertainty k = 0.360522
        43         4         5        44     9        0.000000        0.148871         3    ;  uncertainty k = 0.108990
        43         4         5        44     9      180.000000        0.025944         4    ;  uncertainty k = 0.068041
        43         4         5        45     9        0.000000        0.482526         1    ;  uncertainty k = 0.350610
        43         4         5        45     9      180.000000       -0.037011         2    ;  uncertainty k = 0.360522
        43         4         5        45     9        0.000000        0.148871         3    ;  uncertainty k = 0.108990
        43         4         5        45     9      180.000000        0.025944         4    ;  uncertainty k = 0.068041
        44         5         6        46     9        0.000000        0.473335         1    ;  uncertainty k = 0.235192
        44         5         6        46     9      180.000000       -0.199413         2    ;  uncertainty k = 0.275067
        44         5         6        46     9        0.000000        0.227242         3    ;  uncertainty k = 0.089021
        44         5         6        46     9      180.000000        0.031542         4    ;  uncertainty k = 0.022016
        44         5         6        47     9        0.000000        0.473335         1    ;  uncertainty k = 0.235192
        44         5         6        47     9      180.000000       -0.199413         2    ;  uncertainty k = 0.275067
        44         5         6        47     9        0.000000        0.227242         3    ;  uncertainty k = 0.089021
        44         5         6        47     9      180.000000        0.031542         4    ;  uncertainty k = 0.022016
        45         5         6        46     9        0.000000        0.473335         1    ;  uncertainty k = 0.235192
        45         5         6        46     9      180.000000       -0.199413         2    ;  uncertainty k = 0.275067
        45         5         6        46     9        0.000000        0.227242         3    ;  uncertainty k = 0.089021
        45         5         6        46     9      180.000000        0.031542         4    ;  uncertainty k = 0.022016
        45         5         6        47     9        0.000000        0.473335         1    ;  uncertainty k = 0.235192
        45         5         6        47     9      180.000000       -0.199413         2    ;  uncertainty k = 0.275067
        45         5         6        47     9        0.000000        0.227242         3    ;  uncertainty k = 0.089021
        45         5         6        47     9      180.000000        0.031542         4    ;  uncertainty k = 0.022016
        50        15        16        51     9        0.000000       -0.114476         1    ;  uncertainty k = 0.217567
        50        15        16        51     9      180.000000        7.749076         2    ;  uncertainty k = 0.386441
        50        15        16        51     9        0.000000       -0.417170         3    ;  uncertainty k = 0.284412
        50        15        16        51     9      180.000000        0.165522         4    ;  uncertainty k = 0.153515
        51        16        17        52     9        0.000000       -0.204013         1    ;  uncertainty k = 0.108871
        51        16        17        52     9      180.000000        7.603273         2    ;  uncertainty k = 0.277408
        51        16        17        52     9        0.000000       -0.440239         3    ;  uncertainty k = 0.271537
        51        16        17        52     9      180.000000        0.118647         4    ;  uncertainty k = 0.133308
        55        23        24        56     9        0.000000       -0.308549         1    ;  uncertainty k = 0.397502
        55        23        24        56     9      180.000000       12.289337         2    ;  uncertainty k = 0.583478
        55        23        24        56     9        0.000000        1.036027         3    ;  uncertainty k = 0.400452
        55        23        24        56     9      180.000000        0.764718         4    ;  uncertainty k = 0.591319
        57        28        29        58     9        0.000000       -0.142399         1    ;  uncertainty k = 0.199278
        57        28        29        58     9      180.000000        8.031573         2    ;  uncertainty k = 0.296573
        57        28        29        58     9        0.000000       -0.405730         3    ;  uncertainty k = 0.243463
        57        28        29        58     9      180.000000        0.178288         4    ;  uncertainty k = 0.169733
        58        29        30        59     9        0.000000       -0.170044         1    ;  uncertainty k = 0.151694
        58        29        30        59     9      180.000000        7.931560         2    ;  uncertainty k = 0.498078
        58        29        30        59     9        0.000000       -0.392734         3    ;  uncertainty k = 0.250814
        58        29        30        59     9      180.000000        0.104340         4    ;  uncertainty k = 0.185206

[ dihedrals ] ; impropers
;       ai        aj        ak        al funct           phase               k        pn
         8         7         9        13     4      180.000000       16.180895         2    ;  uncertainty k = 0.260885
         8         9        13         7     4      180.000000       16.180895         2    ;  uncertainty k = 0.260885
         8        13         7         9     4      180.000000       16.180895         2    ;  uncertainty k = 0.260885
         9         8        10        48     4      180.000000       13.812368         2    ;  uncertainty k = 0.109184
         9        10        48         8     4      180.000000       13.812368         2    ;  uncertainty k = 0.109184
         9        48         8        10     4      180.000000       13.812368         2    ;  uncertainty k = 0.109184
        11        10        12        14     4      180.000000       34.296173         2    ;  uncertainty k = 0.051725
        11        12        14        10     4      180.000000       34.296173         2    ;  uncertainty k = 0.051725
        11        14        10        12     4      180.000000       34.296173         2    ;  uncertainty k = 0.051725
        13         8        12        49     4      180.000000       13.812368         2    ;  uncertainty k = 0.109184
        13        12        49         8     4      180.000000       13.812368         2    ;  uncertainty k = 0.109184
        13        49         8        12     4      180.000000       13.812368         2    ;  uncertainty k = 0.109184
        14        11        15        35     4      180.000000        9.567886         2    ;  uncertainty k = 0.137648
        14        15        35        11     4      180.000000        9.567886         2    ;  uncertainty k = 0.137648
        14        35        11        15     4      180.000000        9.567886         2    ;  uncertainty k = 0.137648
        15        14        16        50     4      180.000000        4.639722         2    ;  uncertainty k = 0.104777
        15        16        50        14     4      180.000000        4.639722         2    ;  uncertainty k = 0.104777
        15        50        14        16     4      180.000000        4.639722         2    ;  uncertainty k = 0.104777
        16        15        17        51     4      180.000000        3.987254         2    ;  uncertainty k = 0.165460
        16        17        51        15     4      180.000000        3.987254         2    ;  uncertainty k = 0.165460
        16        51        15        17     4      180.000000        3.987254         2    ;  uncertainty k = 0.165460
        17        16        18        52     4      180.000000        4.730527         2    ;  uncertainty k = 0.200294
        17        18        52        16     4      180.000000        4.730527         2    ;  uncertainty k = 0.200294
        17        52        16        18     4      180.000000        4.730527         2    ;  uncertainty k = 0.200294
        18        17        19        35     4      180.000000       11.595324         2    ;  uncertainty k = 0.103518
        18        19        35        17     4      180.000000       11.595324         2    ;  uncertainty k = 0.103518
        18        35        17        19     4      180.000000       11.595324         2    ;  uncertainty k = 0.103518
        20        19        21        25     4      180.000000        4.907151         2    ;  uncertainty k = 0.611201
        20        21        25        19     4      180.000000        4.907151         2    ;  uncertainty k = 0.611201
        20        25        19        21     4      180.000000        4.907151         2    ;  uncertainty k = 0.611201
        22        21        23        27     4      180.000000       18.081278         2    ;  uncertainty k = 0.102546
        22        23        27        21     4      180.000000       18.081278         2    ;  uncertainty k = 0.102546
        22        27        21        23     4      180.000000       18.081278         2    ;  uncertainty k = 0.102546
        23        22        24        55     4      180.000000        6.587585         2    ;  uncertainty k = 0.347155
        23        24        55        22     4      180.000000        6.587585         2    ;  uncertainty k = 0.347155
        23        55        22        24     4      180.000000        6.587585         2    ;  uncertainty k = 0.347155
        24        23        25        56     4      180.000000        3.715532         2    ;  uncertainty k = 0.270488
        24        25        56        23     4      180.000000        3.715532         2    ;  uncertainty k = 0.270488
        24        56        23        25     4      180.000000        3.715532         2    ;  uncertainty k = 0.270488
        25        20        24        26     4      180.000000       49.481395         2    ;  uncertainty k = 0.023227
        25        24        26        20     4      180.000000       49.481395         2    ;  uncertainty k = 0.023227
        25        26        20        24     4      180.000000       49.481395         2    ;  uncertainty k = 0.023227
        27        22        28        32     4      180.000000       11.255808         2    ;  uncertainty k = 0.090473
        27        28        32        22     4      180.000000       11.255808         2    ;  uncertainty k = 0.090473
        27        32        22        28     4      180.000000       11.255808         2    ;  uncertainty k = 0.090473
        28        27        29        57     4      180.000000        5.237686         2    ;  uncertainty k = 0.184987
        28        29        57        27     4      180.000000        5.237686         2    ;  uncertainty k = 0.184987
        28        57        27        29     4      180.000000        5.237686         2    ;  uncertainty k = 0.184987
        29        28        30        58     4      180.000000        3.830731         2    ;  uncertainty k = 0.180188
        29        30        58        28     4      180.000000        3.830731         2    ;  uncertainty k = 0.180188
        29        58        28        30     4      180.000000        3.830731         2    ;  uncertainty k = 0.180188
        30        29        31        59     4      180.000000        4.720882         2    ;  uncertainty k = 0.228280
        30        31        59        29     4      180.000000        4.720882         2    ;  uncertainty k = 0.228280
        30        59        29        31     4      180.000000        4.720882         2    ;  uncertainty k = 0.228280
        31        30        32        33     4      180.000000       10.250147         2    ;  uncertainty k = 0.195667
        31        32        33        30     4      180.000000       10.250147         2    ;  uncertainty k = 0.195667
        31        33        30        32     4      180.000000       10.250147         2    ;  uncertainty k = 0.195667
        32        27        31        60     4      180.000000        4.749886         2    ;  uncertainty k = 0.233907
        32        31        60        27     4      180.000000        4.749886         2    ;  uncertainty k = 0.233907
        32        60        27        31     4      180.000000        4.749886         2    ;  uncertainty k = 0.233907
        35        14        18        61     4      180.000000        5.120075         2    ;  uncertainty k = 0.187807
        35        18        61        14     4      180.000000        5.120075         2    ;  uncertainty k = 0.187807
        35        61        14        18     4      180.000000        5.120075         2    ;  uncertainty k = 0.187807

[ pairs ]
;       ai        aj funct
         1         5     1
         1        39     1
         1        40     1
         1        41     1
         1        42     1
         1        43     1
         2         6     1
         2        44     1
         2        45     1
         3         5     1
         3        36     1
         3        37     1
         3        38     1
         3        42     1
         3        43     1
         4         7     1
         4        36     1
         4        37     1
         4        38     1
         4        39     1
         4        40     1
         4        41     1
         4        46     1
         4        47     1
         5         8     1
         5        62     1
         6         9     1
         6        13     1
         6        42     1
         6        43     1
         7        10     1
         7        12     1
         7        44     1
         7        45     1
         7        48     1
         7        49     1
         8        11     1
         8        46     1
         8        47     1
         9        12     1
         9        14     1
         9        49     1
        10        13     1
        10        15     1
        10        35     1
        11        16     1
        11        18     1
        11        48     1
        11        49     1
        11        50     1
        11        61     1
        12        15     1
        12        35     1
        13        14     1
        13        48     1
        14        17     1
        14        19     1
        14        51     1
        15        18     1
        15        52     1
        15        61     1
        16        19     1
        16        35     1
        17        20     1
        17        50     1
        17        53     1
        17        54     1
        17        61     1
        18        21     1
        18        25     1
        18        51     1
        19        22     1
        19        24     1
        19        26     1
        19        52     1
        19        61     1
        20        23     1
        20        27     1
        20        35     1
        20        56     1
        21        24     1
        21        26     1
        21        28     1
        21        32     1
        21        53     1
        21        54     1
        21        55     1
        22        25     1
        22        29     1
        22        31     1
        22        56     1
        22        57     1
        22        60     1
        23        26     1
        23        28     1
        23        32     1
        24        27     1
        25        53     1
        25        54     1
        25        55     1
        26        56     1
        27        30     1
        27        33     1
        27        55     1
        27        58     1
        28        31     1
        28        59     1
        28        60     1
        29        32     1
        29        33     1
        30        34     1
        30        57     1
        30        60     1
        31        58     1
        32        34     1
        32        57     1
        32        59     1
        33        59     1
        33        60     1
        35        50     1
        35        52     1
        35        53     1
        35        54     1
        36        62     1
        37        62     1
        38        62     1
        39        62     1
        40        62     1
        41        62     1
        42        44     1
        42        45     1
        42        62     1
        43        44     1
        43        45     1
        43        62     1
        44        46     1
        44        47     1
        45        46     1
        45        47     1
        50        51     1
        51        52     1
        55        56     1
        57        58     1
        58        59     1
