; ITP file created by ByteFF-joint-25, 2026-02-17 09:11:10.652401

[ atomtypes ]
;name           bonded.type        at.num        mass        charge   ptype           sigma         epsilon
 c0bf                                   6      0.0000       0.00000       A     3.39763e-01     4.50925e-01    ;  uncertainty sigma = 0.000007, epsilon = 0.000407
 c1bf                                   6      0.0000       0.00000       A     3.31530e-01     4.13213e-01    ;  uncertainty sigma = 0.000007, epsilon = 0.000968
 o2bf                                   8      0.0000       0.00000       A     3.15620e-01     3.03281e-01    ;  uncertainty sigma = 0.000025, epsilon = 0.000498
 c3bf                                   6      0.0000       0.00000       A     3.31524e-01     4.12942e-01    ;  uncertainty sigma = 0.000017, epsilon = 0.000649
 n4bf                                   7      0.0000       0.00000       A     3.38400e-01     3.93697e-01    ;  uncertainty sigma = 0.000013, epsilon = 0.000666
 c5bf                                   6      0.0000       0.00000       A     3.31519e-01     4.13691e-01    ;  uncertainty sigma = 0.000009, epsilon = 0.000725
 c6bf                                   6      0.0000       0.00000       A     3.31530e-01     4.13283e-01    ;  uncertainty sigma = 0.000007, epsilon = 0.000978
 c7bf                                   6      0.0000       0.00000       A     3.31522e-01     4.13345e-01    ;  uncertainty sigma = 0.000005, epsilon = 0.000671
 c8bf                                   6      0.0000       0.00000       A     3.31516e-01     4.13455e-01    ;  uncertainty sigma = 0.000002, epsilon = 0.000651
 c9bf                                   6      0.0000       0.00000       A     3.31517e-01     4.13357e-01    ;  uncertainty sigma = 0.000003, epsilon = 0.000532
 c10bf                                  6      0.0000       0.00000       A     3.31505e-01     4.13395e-01    ;  uncertainty sigma = 0.000003, epsilon = 0.000359
 c11bf                                  6      0.0000       0.00000       A     3.39766e-01     4.50445e-01    ;  uncertainty sigma = 0.000009, epsilon = 0.000437
 n12bf                                  7      0.0000       0.00000       A     3.18130e-01     6.84059e-01    ;  uncertainty sigma = 0.000031, epsilon = 0.002260
 n13bf                                  7      0.0000       0.00000       A     3.38449e-01     3.94403e-01    ;  uncertainty sigma = 0.000019, epsilon = 0.001004
 c14bf                                  6      0.0000       0.00000       A     3.31498e-01     4.13397e-01    ;  uncertainty sigma = 0.000033, epsilon = 0.001041
 c15bf                                  6      0.0000       0.00000       A     3.31517e-01     4.13271e-01    ;  uncertainty sigma = 0.000015, epsilon = 0.000991
 c16bf                                  6      0.0000       0.00000       A     3.31479e-01     4.13326e-01    ;  uncertainty sigma = 0.000018, epsilon = 0.001521
 c17bf                                  6      0.0000       0.00000       A     3.31546e-01     4.13945e-01    ;  uncertainty sigma = 0.000006, epsilon = 0.001637
 o18bf                                  8      0.0000       0.00000       A     3.04802e-01     6.12255e-01    ;  uncertainty sigma = 0.000021, epsilon = 0.001274
 c19bf                                  6      0.0000       0.00000       A     3.31515e-01     4.13249e-01    ;  uncertainty sigma = 0.000015, epsilon = 0.000665
 c20bf                                  6      0.0000       0.00000       A     3.31520e-01     4.13570e-01    ;  uncertainty sigma = 0.000012, epsilon = 0.000687
 c21bf                                  6      0.0000       0.00000       A     3.31510e-01     4.13332e-01    ;  uncertainty sigma = 0.000009, epsilon = 0.000445
 f22bf                                  9      0.0000       0.00000       A     3.03433e-01     3.47910e-01    ;  uncertainty sigma = 0.000006, epsilon = 0.000761
 c23bf                                  6      0.0000       0.00000       A     3.31522e-01     4.13593e-01    ;  uncertainty sigma = 0.000007, epsilon = 0.000737
 c24bf                                  6      0.0000       0.00000       A     3.31510e-01     4.13332e-01    ;  uncertainty sigma = 0.000009, epsilon = 0.000445
 f25bf                                  9      0.0000       0.00000       A     3.03433e-01     3.47910e-01    ;  uncertainty sigma = 0.000006, epsilon = 0.000762
 c26bf                                  6      0.0000       0.00000       A     3.31520e-01     4.13570e-01    ;  uncertainty sigma = 0.000012, epsilon = 0.000687
 c27bf                                  6      0.0000       0.00000       A     3.31516e-01     4.13248e-01    ;  uncertainty sigma = 0.000010, epsilon = 0.000734
 h28bf                                  1      0.0000       0.00000       A     2.60024e-01     8.66974e-02    ;  uncertainty sigma = 0.000007, epsilon = 0.000364
 h29bf                                  1      0.0000       0.00000       A     2.60024e-01     8.66974e-02    ;  uncertainty sigma = 0.000007, epsilon = 0.000364
 h30bf                                  1      0.0000       0.00000       A     2.60024e-01     8.66974e-02    ;  uncertainty sigma = 0.000007, epsilon = 0.000364
 h31bf                                  1      0.0000       0.00000       A     2.53566e-01     6.69458e-02    ;  uncertainty sigma = 0.000022, epsilon = 0.000482
 h32bf                                  1      0.0000       0.00000       A     2.62561e-01     6.70650e-02    ;  uncertainty sigma = 0.000011, epsilon = 0.000509
 h33bf                                  1      0.0000       0.00000       A     2.62563e-01     6.70163e-02    ;  uncertainty sigma = 0.000010, epsilon = 0.000415
 h34bf                                  1      0.0000       0.00000       A     2.62563e-01     6.70957e-02    ;  uncertainty sigma = 0.000006, epsilon = 0.000591
 h35bf                                  1      0.0000       0.00000       A     2.42236e-01     8.69097e-02    ;  uncertainty sigma = 0.000033, epsilon = 0.000580
 h36bf                                  1      0.0000       0.00000       A     2.42236e-01     8.69097e-02    ;  uncertainty sigma = 0.000033, epsilon = 0.000580
 h37bf                                  1      0.0000       0.00000       A     2.62549e-01     6.67404e-02    ;  uncertainty sigma = 0.000015, epsilon = 0.000444
 h38bf                                  1      0.0000       0.00000       A     2.62519e-01     6.70320e-02    ;  uncertainty sigma = 0.000024, epsilon = 0.000745
 h39bf                                  1      0.0000       0.00000       A     2.62551e-01     6.70389e-02    ;  uncertainty sigma = 0.000014, epsilon = 0.000667
 h40bf                                  1      0.0000       0.00000       A     2.62567e-01     6.73684e-02    ;  uncertainty sigma = 0.000010, epsilon = 0.000382
 h41bf                                  1      0.0000       0.00000       A     2.62551e-01     6.70389e-02    ;  uncertainty sigma = 0.000014, epsilon = 0.000667
 h42bf                                  1      0.0000       0.00000       A     2.62561e-01     6.71022e-02    ;  uncertainty sigma = 0.000009, epsilon = 0.000727

[ moleculetype ]
;name             nrexcl
 MOL                   3

[ atoms ]
;       nr            type      resi   res      atom      cgnr      charge          mass ; qtot
         1            c0bf         1   UNL        c0         1    -0.11893       12.0110 ; qtot   -0.119
         2            c1bf         1   UNL        c1         2     0.15856       12.0110 ; qtot    0.040
         3            o2bf         1   UNL        o2         3    -0.37031       15.9990 ; qtot   -0.331
         4            c3bf         1   UNL        c3         4     0.54584       12.0110 ; qtot    0.215
         5            n4bf         1   UNL        n4         5    -0.66743       14.0070 ; qtot   -0.452
         6            c5bf         1   UNL        c5         6     0.22422       12.0110 ; qtot   -0.228
         7            c6bf         1   UNL        c6         7    -0.13555       12.0110 ; qtot   -0.364
         8            c7bf         1   UNL        c7         8    -0.08709       12.0110 ; qtot   -0.451
         9            c8bf         1   UNL        c8         9    -0.13995       12.0110 ; qtot   -0.591
        10            c9bf         1   UNL        c9        10    -0.08946       12.0110 ; qtot   -0.680
        11           c10bf         1   UNL       c10        11    -0.12314       12.0110 ; qtot   -0.803
        12           c11bf         1   UNL       c11        12     0.15960       12.0110 ; qtot   -0.644
        13           n12bf         1   UNL       n12        13    -0.20398       14.0070 ; qtot   -0.848
        14           n13bf         1   UNL       n13        14    -0.40752       14.0070 ; qtot   -1.255
        15           c14bf         1   UNL       c14        15     0.39145       12.0110 ; qtot   -0.864
        16           c15bf         1   UNL       c15        16    -0.16644       12.0110 ; qtot   -1.030
        17           c16bf         1   UNL       c16        17    -0.21412       12.0110 ; qtot   -1.244
        18           c17bf         1   UNL       c17        18     0.67439       12.0110 ; qtot   -0.570
        19           o18bf         1   UNL       o18        19    -0.61615       15.9990 ; qtot   -1.186
        20           c19bf         1   UNL       c19        20    -0.06971       12.0110 ; qtot   -1.256
        21           c20bf         1   UNL       c20        21    -0.15743       12.0110 ; qtot   -1.413
        22           c21bf         1   UNL       c21        22     0.15364       12.0110 ; qtot   -1.260
        23           f22bf         1   UNL       f22        23    -0.13656       18.9980 ; qtot   -1.396
        24           c23bf         1   UNL       c23        24    -0.19537       12.0110 ; qtot   -1.591
        25           c24bf         1   UNL       c24        25     0.15364       12.0110 ; qtot   -1.438
        26           f25bf         1   UNL       f25        26    -0.13656       18.9980 ; qtot   -1.574
        27           c26bf         1   UNL       c26        27    -0.15743       12.0110 ; qtot   -1.732
        28           c27bf         1   UNL       c27        28    -0.06838       12.0110 ; qtot   -1.800
        29           h28bf         1   UNL       h28        29     0.06025        1.0080 ; qtot   -1.740
        30           h29bf         1   UNL       h29        30     0.06025        1.0080 ; qtot   -1.680
        31           h30bf         1   UNL       h30        31     0.06025        1.0080 ; qtot   -1.619
        32           h31bf         1   UNL       h31        32     0.04924        1.0080 ; qtot   -1.570
        33           h32bf         1   UNL       h32        33     0.15086        1.0080 ; qtot   -1.419
        34           h33bf         1   UNL       h33        34     0.13755        1.0080 ; qtot   -1.282
        35           h34bf         1   UNL       h34        35     0.13990        1.0080 ; qtot   -1.142
        36           h35bf         1   UNL       h35        36     0.08066        1.0080 ; qtot   -1.061
        37           h36bf         1   UNL       h36        37     0.08066        1.0080 ; qtot   -0.981
        38           h37bf         1   UNL       h37        38     0.15224        1.0080 ; qtot   -0.828
        39           h38bf         1   UNL       h38        39     0.16763        1.0080 ; qtot   -0.661
        40           h39bf         1   UNL       h39        40     0.16641        1.0080 ; qtot   -0.494
        41           h40bf         1   UNL       h40        41     0.17223        1.0080 ; qtot   -0.322
        42           h41bf         1   UNL       h41        42     0.16641        1.0080 ; qtot   -0.156
        43           h42bf         1   UNL       h42        43     0.15563        1.0080 ; qtot   -0.000

[ bonds ]
;       ai        aj funct               r               k
         1         2     1        0.148829   245923.231543    ;  uncertainty r = 0.000026, k = 4.666522
         1        29     1        0.109482   310634.317773    ;  uncertainty r = 0.000011, k = 1.142753
         1        30     1        0.109482   310634.317773    ;  uncertainty r = 0.000011, k = 1.142753
         1        31     1        0.109482   310634.317773    ;  uncertainty r = 0.000011, k = 1.142753
         2         3     1        0.138210   325235.951709    ;  uncertainty r = 0.000061, k = 11.746819
         2         6     1        0.136439   438748.939160    ;  uncertainty r = 0.000039, k = 7.439012
         3         4     1        0.137563   270274.729541    ;  uncertainty r = 0.000103, k = 13.099393
         4         5     1        0.130938   438265.368457    ;  uncertainty r = 0.000141, k = 10.053836
         4         7     1        0.144928   266573.993799    ;  uncertainty r = 0.000067, k = 7.928090
         5         6     1        0.138949   321023.273535    ;  uncertainty r = 0.000059, k = 10.908134
         6        32     1        0.108323   338120.266113    ;  uncertainty r = 0.000017, k = 2.994307
         7         8     1        0.139846   346593.198096    ;  uncertainty r = 0.000031, k = 3.953355
         7        28     1        0.139586   341914.671973    ;  uncertainty r = 0.000067, k = 6.603313
         8         9     1        0.139198   367702.785596    ;  uncertainty r = 0.000036, k = 2.342502
         8        33     1        0.108654   332880.945068    ;  uncertainty r = 0.000021, k = 0.871288
         9        10     1        0.139552   370961.780420    ;  uncertainty r = 0.000015, k = 0.904223
         9        34     1        0.108818   333262.699316    ;  uncertainty r = 0.000016, k = 1.208099
        10        11     1        0.139726   354486.131250    ;  uncertainty r = 0.000065, k = 2.690406
        10        35     1        0.108844   333129.599902    ;  uncertainty r = 0.000013, k = 0.702691
        11        12     1        0.151487   229228.320752    ;  uncertainty r = 0.000032, k = 6.059545
        11        28     1        0.139199   349518.090918    ;  uncertainty r = 0.000065, k = 4.500745
        12        13     1        0.146956   226312.927734    ;  uncertainty r = 0.000082, k = 7.993260
        12        36     1        0.109288   307624.258691    ;  uncertainty r = 0.000019, k = 0.768082
        12        37     1        0.109288   307624.258691    ;  uncertainty r = 0.000019, k = 0.768082
        13        14     1        0.133719   291839.975684    ;  uncertainty r = 0.000103, k = 13.619026
        13        18     1        0.139210   287082.463281    ;  uncertainty r = 0.000112, k = 8.370610
        14        15     1        0.130260   486820.964258    ;  uncertainty r = 0.000104, k = 8.324314
        15        16     1        0.143148   246844.814746    ;  uncertainty r = 0.000136, k = 10.011203
        15        20     1        0.147088   262485.477051    ;  uncertainty r = 0.000091, k = 9.142570
        16        17     1        0.134977   481508.785840    ;  uncertainty r = 0.000047, k = 10.409223
        16        38     1        0.108783   336902.886572    ;  uncertainty r = 0.000050, k = 1.619691
        17        18     1        0.145432   272577.129785    ;  uncertainty r = 0.000089, k = 4.402721
        17        39     1        0.108708   341990.721484    ;  uncertainty r = 0.000030, k = 2.410372
        18        19     1        0.124008   735950.379883    ;  uncertainty r = 0.000059, k = 6.569265
        20        21     1        0.139863   351792.144971    ;  uncertainty r = 0.000071, k = 3.727366
        20        27     1        0.139863   351792.144971    ;  uncertainty r = 0.000071, k = 3.727335
        21        22     1        0.138801   355605.524902    ;  uncertainty r = 0.000040, k = 2.002096
        21        40     1        0.108712   335835.333252    ;  uncertainty r = 0.000032, k = 0.851157
        22        23     1        0.135275   339582.852979    ;  uncertainty r = 0.000035, k = 2.432568
        22        24     1        0.139032   365693.244922    ;  uncertainty r = 0.000026, k = 3.713255
        24        25     1        0.139032   365693.193848    ;  uncertainty r = 0.000026, k = 3.713232
        24        41     1        0.108762   339358.024268    ;  uncertainty r = 0.000015, k = 0.997650
        25        26     1        0.135275   339582.852979    ;  uncertainty r = 0.000035, k = 2.432590
        25        27     1        0.138801   355605.524902    ;  uncertainty r = 0.000040, k = 2.002129
        27        42     1        0.108712   335835.307715    ;  uncertainty r = 0.000032, k = 0.851177
        28        43     1        0.108702   331272.209326    ;  uncertainty r = 0.000030, k = 1.156906

[ angles ]
;       ai        aj        ak funct           theta             cth
         1         2         3     1      117.174179      434.136924    ;  uncertainty theta = 0.001406, k = 0.096628
         1         2         6     1      134.489746      308.338346    ;  uncertainty theta = 0.002040, k = 0.110774
         2         1        29     1      109.261436      412.090195    ;  uncertainty theta = 0.000916, k = 0.024870
         2         1        30     1      109.261436      412.090195    ;  uncertainty theta = 0.000916, k = 0.024870
         2         1        31     1      109.261436      412.090195    ;  uncertainty theta = 0.000916, k = 0.024870
         2         3         4     1      107.559753     1072.989405    ;  uncertainty theta = 0.001852, k = 0.081494
         2         6         5     1      109.277672      894.425381    ;  uncertainty theta = 0.002789, k = 0.135362
         2         6        32     1      125.348610      243.185503    ;  uncertainty theta = 0.003359, k = 0.093627
         3         2         6     1      108.465378      664.025494    ;  uncertainty theta = 0.001189, k = 0.193878
         3         4         5     1      114.621201      799.449807    ;  uncertainty theta = 0.003779, k = 0.095537
         3         4         7     1      115.033020      416.068270    ;  uncertainty theta = 0.005183, k = 0.190752
         4         5         6     1      105.432419      796.420020    ;  uncertainty theta = 0.004935, k = 0.180990
         4         7         8     1      118.273460      403.294513    ;  uncertainty theta = 0.002372, k = 0.138398
         4         7        28     1      117.786888      402.507363    ;  uncertainty theta = 0.002468, k = 0.062643
         5         4         7     1      129.198074      373.696620    ;  uncertainty theta = 0.005304, k = 0.136652
         5         6        32     1      120.067467      283.829138    ;  uncertainty theta = 0.003112, k = 0.171207
         7         8         9     1      119.861740      529.060275    ;  uncertainty theta = 0.001357, k = 0.011515
         7         8        33     1      118.202881      268.210961    ;  uncertainty theta = 0.000887, k = 0.035251
         7        28        11     1      121.656456      533.428685    ;  uncertainty theta = 0.001969, k = 0.100462
         7        28        43     1      118.031693      271.734380    ;  uncertainty theta = 0.001532, k = 0.105589
         8         7        28     1      121.899353      420.010370    ;  uncertainty theta = 0.000977, k = 0.202685
         8         9        10     1      120.297180      507.160193    ;  uncertainty theta = 0.001509, k = 0.058644
         8         9        34     1      120.078148      284.497540    ;  uncertainty theta = 0.001883, k = 0.028991
         9         8        33     1      120.924088      288.478935    ;  uncertainty theta = 0.001624, k = 0.042486
         9        10        11     1      119.959190      524.591824    ;  uncertainty theta = 0.001238, k = 0.034462
         9        10        35     1      120.329895      293.615884    ;  uncertainty theta = 0.002654, k = 0.021143
        10         9        34     1      120.346451      284.261577    ;  uncertainty theta = 0.001842, k = 0.052679
        10        11        12     1      120.438194      424.385228    ;  uncertainty theta = 0.001185, k = 0.076463
        10        11        28     1      120.715981      455.640703    ;  uncertainty theta = 0.001764, k = 0.151932
        11        10        35     1      118.999535      269.954762    ;  uncertainty theta = 0.002362, k = 0.026085
        11        12        13     1      111.843971      641.763392    ;  uncertainty theta = 0.001438, k = 0.089006
        11        12        36     1      108.709084      417.021092    ;  uncertainty theta = 0.001796, k = 0.051834
        11        12        37     1      108.709084      417.021092    ;  uncertainty theta = 0.001796, k = 0.051834
        11        28        43     1      119.297935      275.305042    ;  uncertainty theta = 0.001018, k = 0.088251
        12        11        28     1      119.669701      405.857864    ;  uncertainty theta = 0.001706, k = 0.116552
        12        13        14     1      110.577248      500.232199    ;  uncertainty theta = 0.005826, k = 0.099148
        12        13        18     1      115.544518      389.337684    ;  uncertainty theta = 0.005902, k = 0.248675
        13        12        36     1      105.434692      444.216134    ;  uncertainty theta = 0.001608, k = 0.052914
        13        12        37     1      105.434692      444.216134    ;  uncertainty theta = 0.001608, k = 0.052914
        13        14        15     1      119.599083      506.750546    ;  uncertainty theta = 0.009383, k = 0.233462
        13        18        17     1      111.385658      354.543852    ;  uncertainty theta = 0.004876, k = 0.498398
        13        18        19     1      122.027390      653.228724    ;  uncertainty theta = 0.001797, k = 0.051888
        14        13        18     1      124.130821      552.011816    ;  uncertainty theta = 0.006513, k = 0.232378
        14        15        16     1      126.192650      534.970839    ;  uncertainty theta = 0.003715, k = 0.203915
        14        15        20     1      116.228676      442.181529    ;  uncertainty theta = 0.006577, k = 0.257504
        15        16        17     1      119.137741      483.732417    ;  uncertainty theta = 0.004425, k = 0.316234
        15        16        38     1      118.496231      262.252068    ;  uncertainty theta = 0.005672, k = 0.058663
        15        20        21     1      118.724350      391.877126    ;  uncertainty theta = 0.002727, k = 0.206133
        15        20        27     1      118.724350      391.877094    ;  uncertainty theta = 0.002727, k = 0.206133
        16        15        20     1      120.406021      386.651563    ;  uncertainty theta = 0.002392, k = 0.102654
        16        17        18     1      119.665359      523.118907    ;  uncertainty theta = 0.005349, k = 0.100266
        16        17        39     1      123.138992      265.275997    ;  uncertainty theta = 0.005028, k = 0.152927
        17        16        38     1      122.361343      282.774455    ;  uncertainty theta = 0.005531, k = 0.167097
        17        18        19     1      127.351967      536.919129    ;  uncertainty theta = 0.003562, k = 0.161864
        18        17        39     1      117.583885      254.681432    ;  uncertainty theta = 0.006644, k = 0.184684
        20        21        22     1      118.720169      498.330993    ;  uncertainty theta = 0.002325, k = 0.126937
        20        21        40     1      120.100601      263.055497    ;  uncertainty theta = 0.002410, k = 0.043472
        20        27        25     1      118.720169      498.330993    ;  uncertainty theta = 0.002325, k = 0.126937
        20        27        42     1      120.100601      263.055497    ;  uncertainty theta = 0.002410, k = 0.043473
        21        20        27     1      122.382584      431.454570    ;  uncertainty theta = 0.000960, k = 0.097327
        21        22        23     1      118.785866      507.579768    ;  uncertainty theta = 0.002109, k = 0.057206
        21        22        24     1      123.859070      366.023038    ;  uncertainty theta = 0.005134, k = 0.176821
        22        21        40     1      120.887062      288.478009    ;  uncertainty theta = 0.000717, k = 0.013022
        22        24        25     1      115.525330      473.107958    ;  uncertainty theta = 0.002651, k = 0.198626
        22        24        41     1      122.239304      279.302525    ;  uncertainty theta = 0.002821, k = 0.053520
        23        22        24     1      118.429832      503.503534    ;  uncertainty theta = 0.002161, k = 0.048154
        24        25        26     1      118.429825      503.503502    ;  uncertainty theta = 0.002161, k = 0.048153
        24        25        27     1      123.859070      366.023069    ;  uncertainty theta = 0.005134, k = 0.176822
        25        24        41     1      122.239304      279.302525    ;  uncertainty theta = 0.002821, k = 0.053520
        25        27        42     1      120.887062      288.478041    ;  uncertainty theta = 0.000717, k = 0.013022
        26        25        27     1      118.785866      507.579768    ;  uncertainty theta = 0.002109, k = 0.057206
        29         1        30     1      106.863113      312.464856    ;  uncertainty theta = 0.001091, k = 0.028769
        29         1        31     1      106.863113      312.464888    ;  uncertainty theta = 0.001091, k = 0.028770
        30         1        31     1      106.863113      312.464888    ;  uncertainty theta = 0.001091, k = 0.028770
        36        12        37     1      106.066360      312.941538    ;  uncertainty theta = 0.003423, k = 0.065195

[ dihedrals ] ; propers for gromacs 4.5 or higher, use funct 9
;       ai        aj        ak        al funct           phase               k        pn
         1         2         3         4     9        0.000000        0.808551         1    ;  uncertainty k = 1.070370
         1         2         3         4     9      180.000000        7.542313         2    ;  uncertainty k = 0.549194
         1         2         3         4     9        0.000000        2.039030         3    ;  uncertainty k = 0.315515
         1         2         3         4     9      180.000000        0.474442         4    ;  uncertainty k = 0.179597
         1         2         6         5     9        0.000000        0.575826         1    ;  uncertainty k = 0.744952
         1         2         6         5     9      180.000000       15.919432         2    ;  uncertainty k = 0.717481
         1         2         6         5     9        0.000000        2.015917         3    ;  uncertainty k = 0.567749
         1         2         6         5     9      180.000000        0.855283         4    ;  uncertainty k = 0.332458
         1         2         6        32     9        0.000000        0.324780         1    ;  uncertainty k = 0.298112
         1         2         6        32     9      180.000000        5.363555         2    ;  uncertainty k = 0.863782
         1         2         6        32     9        0.000000        1.030115         3    ;  uncertainty k = 0.513207
         1         2         6        32     9      180.000000        0.386624         4    ;  uncertainty k = 0.110455
         2         3         4         5     9        0.000000       -0.443856         1    ;  uncertainty k = 0.942835
         2         3         4         5     9      180.000000       17.136011         2    ;  uncertainty k = 0.875260
         2         3         4         5     9        0.000000       -7.422951         3    ;  uncertainty k = 1.945586
         2         3         4         5     9      180.000000        1.329072         4    ;  uncertainty k = 0.363386
         2         3         4         7     9        0.000000       -0.016056         1    ;  uncertainty k = 1.242230
         2         3         4         7     9      180.000000        7.818622         2    ;  uncertainty k = 0.525867
         2         3         4         7     9        0.000000        1.274165         3    ;  uncertainty k = 0.313009
         2         3         4         7     9      180.000000        0.427025         4    ;  uncertainty k = 0.245217
         2         6         5         4     9        0.000000        0.001903         1    ;  uncertainty k = 0.477769
         2         6         5         4     9      180.000000       15.179986         2    ;  uncertainty k = 0.813822
         2         6         5         4     9        0.000000       -6.524043         3    ;  uncertainty k = 1.050655
         2         6         5         4     9      180.000000        2.144852         4    ;  uncertainty k = 0.519659
         3         2         1        29     9        0.000000        0.215664         1    ;  uncertainty k = 0.498968
         3         2         1        29     9      180.000000       -0.288985         2    ;  uncertainty k = 0.210087
         3         2         1        29     9        0.000000        0.831681         3    ;  uncertainty k = 0.026817
         3         2         1        29     9      180.000000        0.222336         4    ;  uncertainty k = 0.065926
         3         2         1        30     9        0.000000        0.215664         1    ;  uncertainty k = 0.498968
         3         2         1        30     9      180.000000       -0.288985         2    ;  uncertainty k = 0.210087
         3         2         1        30     9        0.000000        0.831681         3    ;  uncertainty k = 0.026817
         3         2         1        30     9      180.000000        0.222336         4    ;  uncertainty k = 0.065926
         3         2         1        31     9        0.000000        0.215664         1    ;  uncertainty k = 0.498968
         3         2         1        31     9      180.000000       -0.288985         2    ;  uncertainty k = 0.210087
         3         2         1        31     9        0.000000        0.831681         3    ;  uncertainty k = 0.026817
         3         2         1        31     9      180.000000        0.222336         4    ;  uncertainty k = 0.065926
         3         2         6         5     9        0.000000       -0.249059         1    ;  uncertainty k = 0.571790
         3         2         6         5     9      180.000000       23.737984         2    ;  uncertainty k = 0.660928
         3         2         6         5     9        0.000000      -10.905123         3    ;  uncertainty k = 1.695987
         3         2         6         5     9      180.000000        1.472409         4    ;  uncertainty k = 0.799909
         3         2         6        32     9        0.000000        0.371359         1    ;  uncertainty k = 0.803724
         3         2         6        32     9      180.000000       15.325793         2    ;  uncertainty k = 0.541450
         3         2         6        32     9        0.000000        1.881968         3    ;  uncertainty k = 0.386438
         3         2         6        32     9      180.000000        0.788371         4    ;  uncertainty k = 0.460016
         3         4         5         6     9        0.000000       -0.097878         1    ;  uncertainty k = 0.415694
         3         4         5         6     9      180.000000       24.052280         2    ;  uncertainty k = 0.573210
         3         4         5         6     9        0.000000       -7.210053         3    ;  uncertainty k = 1.379538
         3         4         5         6     9      180.000000        2.165840         4    ;  uncertainty k = 0.387755
         3         4         7         8     9        0.000000        0.142762         1    ;  uncertainty k = 0.503528
         3         4         7         8     9      180.000000        4.047932         2    ;  uncertainty k = 0.260265
         3         4         7         8     9        0.000000        0.651997         3    ;  uncertainty k = 0.105109
         3         4         7         8     9      180.000000        0.168184         4    ;  uncertainty k = 0.108385
         3         4         7        28     9        0.000000        0.142509         1    ;  uncertainty k = 0.607231
         3         4         7        28     9      180.000000        3.990445         2    ;  uncertainty k = 0.291402
         3         4         7        28     9        0.000000        0.590620         3    ;  uncertainty k = 0.146230
         3         4         7        28     9      180.000000        0.152000         4    ;  uncertainty k = 0.076836
         4         3         2         6     9        0.000000       -0.040917         1    ;  uncertainty k = 0.704886
         4         3         2         6     9      180.000000       12.042431         2    ;  uncertainty k = 0.611810
         4         3         2         6     9        0.000000       -7.000969         3    ;  uncertainty k = 1.320869
         4         3         2         6     9      180.000000        1.509946         4    ;  uncertainty k = 0.138415
         4         5         6        32     9        0.000000        1.110107         1    ;  uncertainty k = 1.057990
         4         5         6        32     9      180.000000       11.138962         2    ;  uncertainty k = 0.750657
         4         5         6        32     9        0.000000        1.235558         3    ;  uncertainty k = 0.784979
         4         5         6        32     9      180.000000        0.804383         4    ;  uncertainty k = 0.447927
         4         7         8         9     9        0.000000        0.167332         1    ;  uncertainty k = 0.389199
         4         7         8         9     9      180.000000        9.281592         2    ;  uncertainty k = 0.593239
         4         7         8         9     9        0.000000        1.155620         3    ;  uncertainty k = 0.277003
         4         7         8         9     9      180.000000        1.686454         4    ;  uncertainty k = 0.229572
         4         7         8        33     9        0.000000       -0.224767         1    ;  uncertainty k = 0.111249
         4         7         8        33     9      180.000000        7.694794         2    ;  uncertainty k = 0.428504
         4         7         8        33     9        0.000000        0.733593         3    ;  uncertainty k = 0.298331
         4         7         8        33     9      180.000000        1.162526         4    ;  uncertainty k = 0.138241
         4         7        28        11     9        0.000000        0.280419         1    ;  uncertainty k = 0.277380
         4         7        28        11     9      180.000000        8.890983         2    ;  uncertainty k = 0.554118
         4         7        28        11     9        0.000000        1.165089         3    ;  uncertainty k = 0.171517
         4         7        28        11     9      180.000000        1.701232         4    ;  uncertainty k = 0.158691
         4         7        28        43     9        0.000000       -0.110767         1    ;  uncertainty k = 0.169887
         4         7        28        43     9      180.000000        7.870450         2    ;  uncertainty k = 0.488661
         4         7        28        43     9        0.000000        0.753082         3    ;  uncertainty k = 0.245994
         4         7        28        43     9      180.000000        1.191596         4    ;  uncertainty k = 0.089837
         5         4         7         8     9        0.000000        0.199470         1    ;  uncertainty k = 0.740343
         5         4         7         8     9      180.000000        3.658980         2    ;  uncertainty k = 0.212292
         5         4         7         8     9        0.000000        0.697484         3    ;  uncertainty k = 0.122631
         5         4         7         8     9      180.000000       -0.033477         4    ;  uncertainty k = 0.106403
         5         4         7        28     9        0.000000        0.319773         1    ;  uncertainty k = 0.930714
         5         4         7        28     9      180.000000        3.660126         2    ;  uncertainty k = 0.220921
         5         4         7        28     9        0.000000        0.646007         3    ;  uncertainty k = 0.120732
         5         4         7        28     9      180.000000       -0.039285         4    ;  uncertainty k = 0.101433
         6         2         1        29     9        0.000000        0.521001         1    ;  uncertainty k = 0.307214
         6         2         1        29     9      180.000000        0.365759         2    ;  uncertainty k = 0.252908
         6         2         1        29     9        0.000000       -0.083273         3    ;  uncertainty k = 0.080366
         6         2         1        29     9      180.000000       -0.002153         4    ;  uncertainty k = 0.112938
         6         2         1        30     9        0.000000        0.521001         1    ;  uncertainty k = 0.307214
         6         2         1        30     9      180.000000        0.365759         2    ;  uncertainty k = 0.252908
         6         2         1        30     9        0.000000       -0.083273         3    ;  uncertainty k = 0.080366
         6         2         1        30     9      180.000000       -0.002153         4    ;  uncertainty k = 0.112938
         6         2         1        31     9        0.000000        0.521001         1    ;  uncertainty k = 0.307214
         6         2         1        31     9      180.000000        0.365759         2    ;  uncertainty k = 0.252908
         6         2         1        31     9        0.000000       -0.083273         3    ;  uncertainty k = 0.080366
         6         2         1        31     9      180.000000       -0.002153         4    ;  uncertainty k = 0.112938
         6         5         4         7     9        0.000000        0.149862         1    ;  uncertainty k = 1.057700
         6         5         4         7     9      180.000000       17.995207         2    ;  uncertainty k = 0.233271
         6         5         4         7     9        0.000000        1.645161         3    ;  uncertainty k = 0.228728
         6         5         4         7     9      180.000000        1.125106         4    ;  uncertainty k = 0.174134
         7         8         9        10     9        0.000000       -0.142892         1    ;  uncertainty k = 0.100496
         7         8         9        10     9      180.000000       13.855927         2    ;  uncertainty k = 0.225647
         7         8         9        10     9        0.000000       -0.795830         3    ;  uncertainty k = 0.304916
         7         8         9        10     9      180.000000        0.723698         4    ;  uncertainty k = 0.246320
         7         8         9        34     9        0.000000        0.030133         1    ;  uncertainty k = 0.069636
         7         8         9        34     9      180.000000        8.004095         2    ;  uncertainty k = 0.477897
         7         8         9        34     9        0.000000        1.391391         3    ;  uncertainty k = 0.305471
         7         8         9        34     9      180.000000        1.803126         4    ;  uncertainty k = 0.167011
         7        28        11        10     9        0.000000       -0.362455         1    ;  uncertainty k = 0.179437
         7        28        11        10     9      180.000000       11.203933         2    ;  uncertainty k = 0.521919
         7        28        11        10     9        0.000000       -0.115406         3    ;  uncertainty k = 0.258976
         7        28        11        10     9      180.000000        0.971791         4    ;  uncertainty k = 0.480907
         7        28        11        12     9        0.000000        0.193520         1    ;  uncertainty k = 0.233777
         7        28        11        12     9      180.000000        9.789699         2    ;  uncertainty k = 0.549158
         7        28        11        12     9        0.000000        1.338886         3    ;  uncertainty k = 0.216851
         7        28        11        12     9      180.000000        1.668990         4    ;  uncertainty k = 0.298400
         8         7        28        11     9        0.000000        0.045926         1    ;  uncertainty k = 0.138635
         8         7        28        11     9      180.000000       10.111867         2    ;  uncertainty k = 0.263149
         8         7        28        11     9        0.000000       -0.377226         3    ;  uncertainty k = 0.253869
         8         7        28        11     9      180.000000        1.039396         4    ;  uncertainty k = 0.268550
         8         7        28        43     9        0.000000        0.337596         1    ;  uncertainty k = 0.125165
         8         7        28        43     9      180.000000        7.120955         2    ;  uncertainty k = 0.656808
         8         7        28        43     9        0.000000        1.403912         3    ;  uncertainty k = 0.263770
         8         7        28        43     9      180.000000        1.683694         4    ;  uncertainty k = 0.217341
         8         9        10        11     9        0.000000       -0.169274         1    ;  uncertainty k = 0.181754
         8         9        10        11     9      180.000000       13.496817         2    ;  uncertainty k = 0.349691
         8         9        10        11     9        0.000000       -0.800134         3    ;  uncertainty k = 0.389844
         8         9        10        11     9      180.000000        0.755834         4    ;  uncertainty k = 0.252208
         8         9        10        35     9        0.000000        0.033419         1    ;  uncertainty k = 0.111340
         8         9        10        35     9      180.000000        7.713006         2    ;  uncertainty k = 0.427811
         8         9        10        35     9        0.000000        1.426237         3    ;  uncertainty k = 0.237275
         8         9        10        35     9      180.000000        1.779631         4    ;  uncertainty k = 0.116288
         9         8         7        28     9        0.000000       -0.070064         1    ;  uncertainty k = 0.245586
         9         8         7        28     9      180.000000       10.879047         2    ;  uncertainty k = 0.221186
         9         8         7        28     9        0.000000       -0.633441         3    ;  uncertainty k = 0.281549
         9         8         7        28     9      180.000000        0.899900         4    ;  uncertainty k = 0.267121
         9        10        11        12     9        0.000000        0.236349         1    ;  uncertainty k = 0.240526
         9        10        11        12     9      180.000000        9.831266         2    ;  uncertainty k = 0.572339
         9        10        11        12     9        0.000000        1.305236         3    ;  uncertainty k = 0.328107
         9        10        11        12     9      180.000000        1.790989         4    ;  uncertainty k = 0.230920
         9        10        11        28     9        0.000000       -0.190658         1    ;  uncertainty k = 0.128989
         9        10        11        28     9      180.000000       11.438053         2    ;  uncertainty k = 0.445268
         9        10        11        28     9        0.000000       -0.500457         3    ;  uncertainty k = 0.267252
         9        10        11        28     9      180.000000        0.845878         4    ;  uncertainty k = 0.404097
        10         9         8        33     9        0.000000        0.033520         1    ;  uncertainty k = 0.120448
        10         9         8        33     9      180.000000        7.481193         2    ;  uncertainty k = 0.241386
        10         9         8        33     9        0.000000        1.386030         3    ;  uncertainty k = 0.190163
        10         9         8        33     9      180.000000        1.846713         4    ;  uncertainty k = 0.196847
        10        11        12        13     9        0.000000        1.867444         1    ;  uncertainty k = 0.783168
        10        11        12        13     9      180.000000        2.383998         2    ;  uncertainty k = 0.336197
        10        11        12        13     9        0.000000        0.619474         3    ;  uncertainty k = 0.149588
        10        11        12        13     9      180.000000        0.095437         4    ;  uncertainty k = 0.050595
        10        11        12        36     9        0.000000       -0.532479         1    ;  uncertainty k = 0.215628
        10        11        12        36     9      180.000000        2.037363         2    ;  uncertainty k = 0.118879
        10        11        12        36     9        0.000000        0.504591         3    ;  uncertainty k = 0.056648
        10        11        12        36     9      180.000000        0.145838         4    ;  uncertainty k = 0.045479
        10        11        12        37     9        0.000000       -0.532479         1    ;  uncertainty k = 0.215628
        10        11        12        37     9      180.000000        2.037363         2    ;  uncertainty k = 0.118879
        10        11        12        37     9        0.000000        0.504591         3    ;  uncertainty k = 0.056648
        10        11        12        37     9      180.000000        0.145838         4    ;  uncertainty k = 0.045479
        10        11        28        43     9        0.000000        0.199522         1    ;  uncertainty k = 0.180483
        10        11        28        43     9      180.000000        7.489643         2    ;  uncertainty k = 0.590563
        10        11        28        43     9        0.000000        1.349485         3    ;  uncertainty k = 0.231434
        10        11        28        43     9      180.000000        1.694939         4    ;  uncertainty k = 0.170909
        11        10         9        34     9        0.000000        0.034063         1    ;  uncertainty k = 0.205738
        11        10         9        34     9      180.000000        7.565343         2    ;  uncertainty k = 0.325261
        11        10         9        34     9        0.000000        1.381079         3    ;  uncertainty k = 0.184266
        11        10         9        34     9      180.000000        1.785692         4    ;  uncertainty k = 0.107773
        11        12        13        14     9        0.000000        0.440745         1    ;  uncertainty k = 0.708466
        11        12        13        14     9      180.000000        0.061937         2    ;  uncertainty k = 0.324434
        11        12        13        14     9        0.000000        0.769977         3    ;  uncertainty k = 0.366759
        11        12        13        14     9      180.000000        0.183150         4    ;  uncertainty k = 0.066161
        11        12        13        18     9        0.000000        1.490876         1    ;  uncertainty k = 0.403054
        11        12        13        18     9      180.000000       -0.048825         2    ;  uncertainty k = 0.159023
        11        12        13        18     9        0.000000        0.236870         3    ;  uncertainty k = 0.241089
        11        12        13        18     9      180.000000        0.247408         4    ;  uncertainty k = 0.126256
        12        11        10        35     9        0.000000        0.023719         1    ;  uncertainty k = 0.247130
        12        11        10        35     9      180.000000        7.615890         2    ;  uncertainty k = 0.202367
        12        11        10        35     9        0.000000        0.613339         3    ;  uncertainty k = 0.268932
        12        11        10        35     9      180.000000        1.047645         4    ;  uncertainty k = 0.187238
        12        11        28        43     9        0.000000        0.006430         1    ;  uncertainty k = 0.218588
        12        11        28        43     9      180.000000        7.808112         2    ;  uncertainty k = 0.331302
        12        11        28        43     9        0.000000        0.562953         3    ;  uncertainty k = 0.330233
        12        11        28        43     9      180.000000        1.085568         4    ;  uncertainty k = 0.169522
        12        13        14        15     9        0.000000       -0.896071         1    ;  uncertainty k = 4.127420
        12        13        14        15     9      180.000000       12.848550         2    ;  uncertainty k = 0.830289
        12        13        14        15     9        0.000000        1.812857         3    ;  uncertainty k = 0.971748
        12        13        14        15     9      180.000000        0.130899         4    ;  uncertainty k = 0.444620
        12        13        18        17     9        0.000000        0.633860         1    ;  uncertainty k = 1.108312
        12        13        18        17     9      180.000000        7.728876         2    ;  uncertainty k = 0.354944
        12        13        18        17     9        0.000000        1.756833         3    ;  uncertainty k = 0.398229
        12        13        18        17     9      180.000000       -0.228865         4    ;  uncertainty k = 0.310355
        12        13        18        19     9        0.000000        0.937716         1    ;  uncertainty k = 1.270707
        12        13        18        19     9      180.000000       11.758630         2    ;  uncertainty k = 0.388798
        12        13        18        19     9        0.000000        0.652776         3    ;  uncertainty k = 0.132590
        12        13        18        19     9      180.000000       -0.183371         4    ;  uncertainty k = 0.344050
        13        12        11        28     9        0.000000        1.967867         1    ;  uncertainty k = 0.911951
        13        12        11        28     9      180.000000        2.348314         2    ;  uncertainty k = 0.410151
        13        12        11        28     9        0.000000        0.557246         3    ;  uncertainty k = 0.241198
        13        12        11        28     9      180.000000        0.091428         4    ;  uncertainty k = 0.061001
        13        14        15        16     9        0.000000        0.188393         1    ;  uncertainty k = 0.780216
        13        14        15        16     9      180.000000       24.687753         2    ;  uncertainty k = 0.176803
        13        14        15        16     9        0.000000        1.985802         3    ;  uncertainty k = 0.563904
        13        14        15        16     9      180.000000        0.690133         4    ;  uncertainty k = 0.279420
        13        14        15        20     9        0.000000       -0.043172         1    ;  uncertainty k = 0.548350
        13        14        15        20     9      180.000000       25.753064         2    ;  uncertainty k = 0.233339
        13        14        15        20     9        0.000000        2.942378         3    ;  uncertainty k = 0.125640
        13        14        15        20     9      180.000000        0.686554         4    ;  uncertainty k = 0.574272
        13        18        17        16     9        0.000000        0.419278         1    ;  uncertainty k = 2.274473
        13        18        17        16     9      180.000000        1.605236         2    ;  uncertainty k = 0.697545
        13        18        17        16     9        0.000000       -0.163994         3    ;  uncertainty k = 0.200172
        13        18        17        16     9      180.000000        0.325528         4    ;  uncertainty k = 0.077908
        13        18        17        39     9        0.000000       -1.120179         1    ;  uncertainty k = 2.456073
        13        18        17        39     9      180.000000        2.364370         2    ;  uncertainty k = 0.329357
        13        18        17        39     9        0.000000        0.459246         3    ;  uncertainty k = 0.206811
        13        18        17        39     9      180.000000        0.273913         4    ;  uncertainty k = 0.151693
        14        13        12        36     9        0.000000        0.384448         1    ;  uncertainty k = 0.533469
        14        13        12        36     9      180.000000        1.169938         2    ;  uncertainty k = 0.403681
        14        13        12        36     9        0.000000        0.582237         3    ;  uncertainty k = 0.072383
        14        13        12        36     9      180.000000        0.242295         4    ;  uncertainty k = 0.129100
        14        13        12        37     9        0.000000        0.384448         1    ;  uncertainty k = 0.533469
        14        13        12        37     9      180.000000        1.169938         2    ;  uncertainty k = 0.403681
        14        13        12        37     9        0.000000        0.582237         3    ;  uncertainty k = 0.072383
        14        13        12        37     9      180.000000        0.242295         4    ;  uncertainty k = 0.129100
        14        13        18        17     9        0.000000        2.898929         1    ;  uncertainty k = 2.397583
        14        13        18        17     9      180.000000        2.029916         2    ;  uncertainty k = 0.771883
        14        13        18        17     9        0.000000        1.223010         3    ;  uncertainty k = 0.519452
        14        13        18        17     9      180.000000        0.577304         4    ;  uncertainty k = 0.261783
        14        13        18        19     9        0.000000        2.605133         1    ;  uncertainty k = 1.172602
        14        13        18        19     9      180.000000       10.822449         2    ;  uncertainty k = 0.452983
        14        13        18        19     9        0.000000        1.231348         3    ;  uncertainty k = 0.502016
        14        13        18        19     9      180.000000       -0.281985         4    ;  uncertainty k = 0.368205
        14        15        16        17     9        0.000000        0.352014         1    ;  uncertainty k = 1.410780
        14        15        16        17     9      180.000000        4.437856         2    ;  uncertainty k = 0.753046
        14        15        16        17     9        0.000000        0.213422         3    ;  uncertainty k = 0.453700
        14        15        16        17     9      180.000000        0.599744         4    ;  uncertainty k = 0.185202
        14        15        16        38     9        0.000000       -0.968928         1    ;  uncertainty k = 0.799755
        14        15        16        38     9      180.000000        4.602265         2    ;  uncertainty k = 0.838958
        14        15        16        38     9        0.000000        0.753727         3    ;  uncertainty k = 0.438991
        14        15        16        38     9      180.000000        0.503348         4    ;  uncertainty k = 0.169976
        14        15        20        21     9        0.000000        0.577113         1    ;  uncertainty k = 0.839214
        14        15        20        21     9      180.000000        4.374001         2    ;  uncertainty k = 0.259899
        14        15        20        21     9        0.000000        0.310715         3    ;  uncertainty k = 0.200156
        14        15        20        21     9      180.000000       -0.034774         4    ;  uncertainty k = 0.102004
        14        15        20        27     9        0.000000        0.577112         1    ;  uncertainty k = 0.839214
        14        15        20        27     9      180.000000        4.374001         2    ;  uncertainty k = 0.259898
        14        15        20        27     9        0.000000        0.310715         3    ;  uncertainty k = 0.200157
        14        15        20        27     9      180.000000       -0.034774         4    ;  uncertainty k = 0.102004
        15        14        13        18     9        0.000000        3.891956         1    ;  uncertainty k = 2.526573
        15        14        13        18     9      180.000000        4.735669         2    ;  uncertainty k = 1.364246
        15        14        13        18     9        0.000000        1.841464         3    ;  uncertainty k = 0.687599
        15        14        13        18     9      180.000000        0.376448         4    ;  uncertainty k = 0.594894
        15        16        17        18     9        0.000000       -0.247895         1    ;  uncertainty k = 0.726732
        15        16        17        18     9      180.000000       17.791948         2    ;  uncertainty k = 0.335371
        15        16        17        18     9        0.000000        0.675076         3    ;  uncertainty k = 0.419223
        15        16        17        18     9      180.000000        0.996301         4    ;  uncertainty k = 0.368800
        15        16        17        39     9        0.000000       -0.353358         1    ;  uncertainty k = 0.789416
        15        16        17        39     9      180.000000       16.620934         2    ;  uncertainty k = 0.655545
        15        16        17        39     9        0.000000        1.944682         3    ;  uncertainty k = 0.309791
        15        16        17        39     9      180.000000        1.162896         4    ;  uncertainty k = 0.587297
        15        20        21        22     9        0.000000        0.184078         1    ;  uncertainty k = 0.251452
        15        20        21        22     9      180.000000        9.064982         2    ;  uncertainty k = 0.510143
        15        20        21        22     9        0.000000        1.393257         3    ;  uncertainty k = 0.168521
        15        20        21        22     9      180.000000        1.772060         4    ;  uncertainty k = 0.162457
        15        20        21        40     9        0.000000       -0.174783         1    ;  uncertainty k = 0.349607
        15        20        21        40     9      180.000000        7.187869         2    ;  uncertainty k = 0.358632
        15        20        21        40     9        0.000000        0.677750         3    ;  uncertainty k = 0.291506
        15        20        21        40     9      180.000000        1.081331         4    ;  uncertainty k = 0.227152
        15        20        27        25     9        0.000000        0.184079         1    ;  uncertainty k = 0.251450
        15        20        27        25     9      180.000000        9.064984         2    ;  uncertainty k = 0.510143
        15        20        27        25     9        0.000000        1.393256         3    ;  uncertainty k = 0.168522
        15        20        27        25     9      180.000000        1.772060         4    ;  uncertainty k = 0.162456
        15        20        27        42     9        0.000000       -0.174783         1    ;  uncertainty k = 0.349608
        15        20        27        42     9      180.000000        7.187870         2    ;  uncertainty k = 0.358633
        15        20        27        42     9        0.000000        0.677750         3    ;  uncertainty k = 0.291506
        15        20        27        42     9      180.000000        1.081331         4    ;  uncertainty k = 0.227152
        16        15        20        21     9        0.000000        0.063923         1    ;  uncertainty k = 0.802333
        16        15        20        21     9      180.000000        3.869396         2    ;  uncertainty k = 0.175768
        16        15        20        21     9        0.000000        0.641555         3    ;  uncertainty k = 0.157661
        16        15        20        21     9      180.000000       -0.162970         4    ;  uncertainty k = 0.081803
        16        15        20        27     9        0.000000        0.063923         1    ;  uncertainty k = 0.802332
        16        15        20        27     9      180.000000        3.869397         2    ;  uncertainty k = 0.175767
        16        15        20        27     9        0.000000        0.641555         3    ;  uncertainty k = 0.157661
        16        15        20        27     9      180.000000       -0.162970         4    ;  uncertainty k = 0.081803
        16        17        18        19     9        0.000000       -2.001816         1    ;  uncertainty k = 1.317032
        16        17        18        19     9      180.000000        3.389786         2    ;  uncertainty k = 0.746169
        16        17        18        19     9        0.000000       -0.174173         3    ;  uncertainty k = 0.227865
        16        17        18        19     9      180.000000        0.016096         4    ;  uncertainty k = 0.112368
        17        16        15        20     9        0.000000        0.540598         1    ;  uncertainty k = 0.803544
        17        16        15        20     9      180.000000        4.601494         2    ;  uncertainty k = 0.981891
        17        16        15        20     9        0.000000        0.716168         3    ;  uncertainty k = 0.328634
        17        16        15        20     9      180.000000        0.575741         4    ;  uncertainty k = 0.279114
        18        13        12        36     9        0.000000       -0.473323         1    ;  uncertainty k = 0.528826
        18        13        12        36     9      180.000000        1.255553         2    ;  uncertainty k = 0.272888
        18        13        12        36     9        0.000000        0.779300         3    ;  uncertainty k = 0.054471
        18        13        12        36     9      180.000000        0.412020         4    ;  uncertainty k = 0.034766
        18        13        12        37     9        0.000000       -0.473323         1    ;  uncertainty k = 0.528826
        18        13        12        37     9      180.000000        1.255553         2    ;  uncertainty k = 0.272888
        18        13        12        37     9        0.000000        0.779300         3    ;  uncertainty k = 0.054471
        18        13        12        37     9      180.000000        0.412020         4    ;  uncertainty k = 0.034766
        18        17        16        38     9        0.000000       -0.328809         1    ;  uncertainty k = 0.661921
        18        17        16        38     9      180.000000       15.838400         2    ;  uncertainty k = 0.436273
        18        17        16        38     9        0.000000        1.792267         3    ;  uncertainty k = 0.273244
        18        17        16        38     9      180.000000        1.039596         4    ;  uncertainty k = 0.351736
        19        18        17        39     9        0.000000       -3.368927         1    ;  uncertainty k = 1.838218
        19        18        17        39     9      180.000000        6.946407         2    ;  uncertainty k = 0.848337
        19        18        17        39     9        0.000000        0.461531         3    ;  uncertainty k = 0.415057
        19        18        17        39     9      180.000000       -0.155191         4    ;  uncertainty k = 0.180479
        20        15        16        38     9        0.000000       -0.583861         1    ;  uncertainty k = 1.092916
        20        15        16        38     9      180.000000        5.200620         2    ;  uncertainty k = 0.384920
        20        15        16        38     9        0.000000        1.054483         3    ;  uncertainty k = 0.197088
        20        15        16        38     9      180.000000        0.361604         4    ;  uncertainty k = 0.155457
        20        21        22        23     9        0.000000       -0.049881         1    ;  uncertainty k = 0.257803
        20        21        22        23     9      180.000000       12.651864         2    ;  uncertainty k = 0.408915
        20        21        22        23     9        0.000000        1.531328         3    ;  uncertainty k = 0.260602
        20        21        22        23     9      180.000000        1.472262         4    ;  uncertainty k = 0.165252
        20        21        22        24     9        0.000000        0.057717         1    ;  uncertainty k = 0.164909
        20        21        22        24     9      180.000000        8.885300         2    ;  uncertainty k = 0.653772
        20        21        22        24     9        0.000000       -0.076192         3    ;  uncertainty k = 0.320382
        20        21        22        24     9      180.000000        1.240042         4    ;  uncertainty k = 0.346858
        20        27        25        24     9        0.000000        0.057718         1    ;  uncertainty k = 0.164909
        20        27        25        24     9      180.000000        8.885300         2    ;  uncertainty k = 0.653771
        20        27        25        24     9        0.000000       -0.076192         3    ;  uncertainty k = 0.320383
        20        27        25        24     9      180.000000        1.240042         4    ;  uncertainty k = 0.346858
        20        27        25        26     9        0.000000       -0.049879         1    ;  uncertainty k = 0.257803
        20        27        25        26     9      180.000000       12.651865         2    ;  uncertainty k = 0.408916
        20        27        25        26     9        0.000000        1.531328         3    ;  uncertainty k = 0.260602
        20        27        25        26     9      180.000000        1.472261         4    ;  uncertainty k = 0.165252
        21        20        27        25     9        0.000000        0.022121         1    ;  uncertainty k = 0.243825
        21        20        27        25     9      180.000000       11.046753         2    ;  uncertainty k = 0.290032
        21        20        27        25     9        0.000000       -0.498760         3    ;  uncertainty k = 0.387970
        21        20        27        25     9      180.000000        1.024180         4    ;  uncertainty k = 0.289071
        21        20        27        42     9        0.000000        0.218088         1    ;  uncertainty k = 0.243952
        21        20        27        42     9      180.000000        6.917737         2    ;  uncertainty k = 0.583903
        21        20        27        42     9        0.000000        1.463818         3    ;  uncertainty k = 0.217536
        21        20        27        42     9      180.000000        1.686540         4    ;  uncertainty k = 0.256320
        21        22        24        25     9        0.000000        0.079700         1    ;  uncertainty k = 0.154156
        21        22        24        25     9      180.000000        8.889417         2    ;  uncertainty k = 0.512494
        21        22        24        25     9        0.000000       -0.106306         3    ;  uncertainty k = 0.476972
        21        22        24        25     9      180.000000        1.234736         4    ;  uncertainty k = 0.285242
        21        22        24        41     9        0.000000        0.130307         1    ;  uncertainty k = 0.144653
        21        22        24        41     9      180.000000        5.532844         2    ;  uncertainty k = 0.680369
        21        22        24        41     9        0.000000        1.265320         3    ;  uncertainty k = 0.294957
        21        22        24        41     9      180.000000        1.481410         4    ;  uncertainty k = 0.077611
        22        21        20        27     9        0.000000        0.022121         1    ;  uncertainty k = 0.243825
        22        21        20        27     9      180.000000       11.046753         2    ;  uncertainty k = 0.290033
        22        21        20        27     9        0.000000       -0.498760         3    ;  uncertainty k = 0.387970
        22        21        20        27     9      180.000000        1.024180         4    ;  uncertainty k = 0.289072
        22        24        25        26     9        0.000000       -0.032347         1    ;  uncertainty k = 0.289699
        22        24        25        26     9      180.000000       12.548672         2    ;  uncertainty k = 0.646212
        22        24        25        26     9        0.000000        1.557435         3    ;  uncertainty k = 0.311241
        22        24        25        26     9      180.000000        1.512893         4    ;  uncertainty k = 0.296058
        22        24        25        27     9        0.000000        0.079700         1    ;  uncertainty k = 0.154156
        22        24        25        27     9      180.000000        8.889415         2    ;  uncertainty k = 0.512494
        22        24        25        27     9        0.000000       -0.106306         3    ;  uncertainty k = 0.476971
        22        24        25        27     9      180.000000        1.234736         4    ;  uncertainty k = 0.285241
        23        22        21        40     9        0.000000       -0.415350         1    ;  uncertainty k = 0.228614
        23        22        21        40     9      180.000000        9.086426         2    ;  uncertainty k = 0.377298
        23        22        21        40     9        0.000000        0.802704         3    ;  uncertainty k = 0.232488
        23        22        21        40     9      180.000000        1.043251         4    ;  uncertainty k = 0.211577
        23        22        24        25     9        0.000000       -0.032345         1    ;  uncertainty k = 0.289699
        23        22        24        25     9      180.000000       12.548672         2    ;  uncertainty k = 0.646212
        23        22        24        25     9        0.000000        1.557435         3    ;  uncertainty k = 0.311241
        23        22        24        25     9      180.000000        1.512892         4    ;  uncertainty k = 0.296059
        23        22        24        41     9        0.000000       -0.234235         1    ;  uncertainty k = 0.255322
        23        22        24        41     9      180.000000        8.539482         2    ;  uncertainty k = 0.302304
        23        22        24        41     9        0.000000        0.791090         3    ;  uncertainty k = 0.302726
        23        22        24        41     9      180.000000        0.996026         4    ;  uncertainty k = 0.177952
        24        22        21        40     9        0.000000       -0.021691         1    ;  uncertainty k = 0.235351
        24        22        21        40     9      180.000000        5.842807         2    ;  uncertainty k = 0.659900
        24        22        21        40     9        0.000000        1.305046         3    ;  uncertainty k = 0.309757
        24        22        21        40     9      180.000000        1.641078         4    ;  uncertainty k = 0.167200
        24        25        27        42     9        0.000000       -0.021690         1    ;  uncertainty k = 0.235350
        24        25        27        42     9      180.000000        5.842806         2    ;  uncertainty k = 0.659901
        24        25        27        42     9        0.000000        1.305046         3    ;  uncertainty k = 0.309758
        24        25        27        42     9      180.000000        1.641078         4    ;  uncertainty k = 0.167201
        26        25        24        41     9        0.000000       -0.234235         1    ;  uncertainty k = 0.255324
        26        25        24        41     9      180.000000        8.539485         2    ;  uncertainty k = 0.302303
        26        25        24        41     9        0.000000        0.791090         3    ;  uncertainty k = 0.302726
        26        25        24        41     9      180.000000        0.996026         4    ;  uncertainty k = 0.177952
        26        25        27        42     9        0.000000       -0.415350         1    ;  uncertainty k = 0.228614
        26        25        27        42     9      180.000000        9.086428         2    ;  uncertainty k = 0.377299
        26        25        27        42     9        0.000000        0.802705         3    ;  uncertainty k = 0.232487
        26        25        27        42     9      180.000000        1.043252         4    ;  uncertainty k = 0.211577
        27        20        21        40     9        0.000000        0.218088         1    ;  uncertainty k = 0.243952
        27        20        21        40     9      180.000000        6.917737         2    ;  uncertainty k = 0.583902
        27        20        21        40     9        0.000000        1.463818         3    ;  uncertainty k = 0.217536
        27        20        21        40     9      180.000000        1.686540         4    ;  uncertainty k = 0.256320
        27        25        24        41     9        0.000000        0.130307         1    ;  uncertainty k = 0.144654
        27        25        24        41     9      180.000000        5.532843         2    ;  uncertainty k = 0.680369
        27        25        24        41     9        0.000000        1.265320         3    ;  uncertainty k = 0.294958
        27        25        24        41     9      180.000000        1.481410         4    ;  uncertainty k = 0.077611
        28         7         8        33     9        0.000000        0.241813         1    ;  uncertainty k = 0.193662
        28         7         8        33     9      180.000000        6.875070         2    ;  uncertainty k = 0.571656
        28         7         8        33     9        0.000000        1.380847         3    ;  uncertainty k = 0.248037
        28         7         8        33     9      180.000000        1.650746         4    ;  uncertainty k = 0.244521
        28        11        10        35     9        0.000000        0.222901         1    ;  uncertainty k = 0.194515
        28        11        10        35     9      180.000000        7.226884         2    ;  uncertainty k = 0.683938
        28        11        10        35     9        0.000000        1.405183         3    ;  uncertainty k = 0.349533
        28        11        10        35     9      180.000000        1.638512         4    ;  uncertainty k = 0.179976
        28        11        12        36     9        0.000000       -0.444239         1    ;  uncertainty k = 0.323529
        28        11        12        36     9      180.000000        1.899463         2    ;  uncertainty k = 0.139340
        28        11        12        36     9        0.000000        0.459753         3    ;  uncertainty k = 0.085264
        28        11        12        36     9      180.000000        0.145288         4    ;  uncertainty k = 0.032890
        28        11        12        37     9        0.000000       -0.444239         1    ;  uncertainty k = 0.323529
        28        11        12        37     9      180.000000        1.899463         2    ;  uncertainty k = 0.139340
        28        11        12        37     9        0.000000        0.459753         3    ;  uncertainty k = 0.085264
        28        11        12        37     9      180.000000        0.145288         4    ;  uncertainty k = 0.032890
        33         8         9        34     9        0.000000       -0.045566         1    ;  uncertainty k = 0.124192
        33         8         9        34     9      180.000000        7.811326         2    ;  uncertainty k = 0.439993
        33         8         9        34     9        0.000000       -0.445892         3    ;  uncertainty k = 0.258647
        33         8         9        34     9      180.000000        0.120101         4    ;  uncertainty k = 0.141229
        34         9        10        35     9        0.000000       -0.194865         1    ;  uncertainty k = 0.108883
        34         9        10        35     9      180.000000        7.621325         2    ;  uncertainty k = 0.288852
        34         9        10        35     9        0.000000       -0.436963         3    ;  uncertainty k = 0.275557
        34         9        10        35     9      180.000000        0.121300         4    ;  uncertainty k = 0.130094
        38        16        17        39     9        0.000000       -0.308549         1    ;  uncertainty k = 0.397502
        38        16        17        39     9      180.000000       12.289337         2    ;  uncertainty k = 0.583478
        38        16        17        39     9        0.000000        1.036027         3    ;  uncertainty k = 0.400452
        38        16        17        39     9      180.000000        0.764718         4    ;  uncertainty k = 0.591319

[ dihedrals ] ; impropers
;       ai        aj        ak        al funct           phase               k        pn
         2         1         3         6     4      180.000000        5.426392         2    ;  uncertainty k = 0.251876
         2         3         6         1     4      180.000000        5.426392         2    ;  uncertainty k = 0.251876
         2         6         1         3     4      180.000000        5.426392         2    ;  uncertainty k = 0.251876
         4         3         5         7     4      180.000000       11.848737         2    ;  uncertainty k = 0.083512
         4         5         7         3     4      180.000000       11.848737         2    ;  uncertainty k = 0.083512
         4         7         3         5     4      180.000000       11.848737         2    ;  uncertainty k = 0.083512
         6         2         5        32     4      180.000000        0.830453         2    ;  uncertainty k = 0.498594
         6         5        32         2     4      180.000000        0.830453         2    ;  uncertainty k = 0.498594
         6        32         2         5     4      180.000000        0.830453         2    ;  uncertainty k = 0.498594
         7         4         8        28     4      180.000000        9.578216         2    ;  uncertainty k = 0.114955
         7         8        28         4     4      180.000000        9.578216         2    ;  uncertainty k = 0.114955
         7        28         4         8     4      180.000000        9.578216         2    ;  uncertainty k = 0.114955
         8         7         9        33     4      180.000000        4.488106         2    ;  uncertainty k = 0.139338
         8         9        33         7     4      180.000000        4.488106         2    ;  uncertainty k = 0.139338
         8        33         7         9     4      180.000000        4.488106         2    ;  uncertainty k = 0.139338
         9         8        10        34     4      180.000000        4.063597         2    ;  uncertainty k = 0.172781
         9        10        34         8     4      180.000000        4.063597         2    ;  uncertainty k = 0.172781
         9        34         8        10     4      180.000000        4.063597         2    ;  uncertainty k = 0.172781
        10         9        11        35     4      180.000000        4.813746         2    ;  uncertainty k = 0.187877
        10        11        35         9     4      180.000000        4.813746         2    ;  uncertainty k = 0.187877
        10        35         9        11     4      180.000000        4.813746         2    ;  uncertainty k = 0.187877
        11        10        12        28     4      180.000000       11.792365         2    ;  uncertainty k = 0.102870
        11        12        28        10     4      180.000000       11.792365         2    ;  uncertainty k = 0.102870
        11        28        10        12     4      180.000000       11.792365         2    ;  uncertainty k = 0.102870
        13        12        14        18     4      180.000000        4.907194         2    ;  uncertainty k = 0.610506
        13        14        18        12     4      180.000000        4.907194         2    ;  uncertainty k = 0.610506
        13        18        12        14     4      180.000000        4.907194         2    ;  uncertainty k = 0.610506
        15        14        16        20     4      180.000000       17.338875         2    ;  uncertainty k = 0.107858
        15        16        20        14     4      180.000000       17.338875         2    ;  uncertainty k = 0.107858
        15        20        14        16     4      180.000000       17.338875         2    ;  uncertainty k = 0.107858
        16        15        17        38     4      180.000000        6.632123         2    ;  uncertainty k = 0.364368
        16        17        38        15     4      180.000000        6.632123         2    ;  uncertainty k = 0.364368
        16        38        15        17     4      180.000000        6.632123         2    ;  uncertainty k = 0.364368
        17        16        18        39     4      180.000000        3.715532         2    ;  uncertainty k = 0.270488
        17        18        39        16     4      180.000000        3.715532         2    ;  uncertainty k = 0.270488
        17        39        16        18     4      180.000000        3.715532         2    ;  uncertainty k = 0.270488
        18        13        17        19     4      180.000000       49.481395         2    ;  uncertainty k = 0.023227
        18        17        19        13     4      180.000000       49.481395         2    ;  uncertainty k = 0.023227
        18        19        13        17     4      180.000000       49.481395         2    ;  uncertainty k = 0.023227
        20        15        21        27     4      180.000000       12.665951         2    ;  uncertainty k = 0.077152
        20        21        27        15     4      180.000000       12.665951         2    ;  uncertainty k = 0.077152
        20        27        15        21     4      180.000000       12.665951         2    ;  uncertainty k = 0.077152
        21        20        22        40     4      180.000000        2.108081         2    ;  uncertainty k = 0.256057
        21        22        40        20     4      180.000000        2.108081         2    ;  uncertainty k = 0.256057
        21        40        20        22     4      180.000000        2.108081         2    ;  uncertainty k = 0.256057
        22        21        23        24     4      180.000000       17.764894         2    ;  uncertainty k = 0.031615
        22        23        24        21     4      180.000000       17.764894         2    ;  uncertainty k = 0.031615
        22        24        21        23     4      180.000000       17.764894         2    ;  uncertainty k = 0.031615
        24        22        25        41     4      180.000000        1.216899         2    ;  uncertainty k = 0.080605
        24        25        41        22     4      180.000000        1.216899         2    ;  uncertainty k = 0.080605
        24        41        22        25     4      180.000000        1.216899         2    ;  uncertainty k = 0.080605
        25        24        26        27     4      180.000000       17.764895         2    ;  uncertainty k = 0.031616
        25        26        27        24     4      180.000000       17.764895         2    ;  uncertainty k = 0.031616
        25        27        24        26     4      180.000000       17.764895         2    ;  uncertainty k = 0.031616
        27        20        25        42     4      180.000000        2.108084         2    ;  uncertainty k = 0.256058
        27        25        42        20     4      180.000000        2.108084         2    ;  uncertainty k = 0.256058
        27        42        20        25     4      180.000000        2.108084         2    ;  uncertainty k = 0.256058
        28         7        11        43     4      180.000000        4.929493         2    ;  uncertainty k = 0.186369
        28        11        43         7     4      180.000000        4.929493         2    ;  uncertainty k = 0.186369
        28        43         7        11     4      180.000000        4.929493         2    ;  uncertainty k = 0.186369

[ pairs ]
;       ai        aj funct
         1         4     1
         1         5     1
         1        32     1
         2         7     1
         3         8     1
         3        28     1
         3        29     1
         3        30     1
         3        31     1
         3        32     1
         4         9     1
         4        11     1
         4        32     1
         4        33     1
         4        43     1
         5         8     1
         5        28     1
         6         7     1
         6        29     1
         6        30     1
         6        31     1
         7        10     1
         7        12     1
         7        34     1
         8        11     1
         8        35     1
         8        43     1
         9        12     1
         9        28     1
        10        13     1
        10        33     1
        10        36     1
        10        37     1
        10        43     1
        11        14     1
        11        18     1
        11        34     1
        12        15     1
        12        17     1
        12        19     1
        12        35     1
        12        43     1
        13        16     1
        13        20     1
        13        28     1
        13        39     1
        14        17     1
        14        19     1
        14        21     1
        14        27     1
        14        36     1
        14        37     1
        14        38     1
        15        18     1
        15        22     1
        15        25     1
        15        39     1
        15        40     1
        15        42     1
        16        19     1
        16        21     1
        16        27     1
        17        20     1
        18        36     1
        18        37     1
        18        38     1
        19        39     1
        20        23     1
        20        24     1
        20        26     1
        20        38     1
        21        25     1
        21        41     1
        21        42     1
        22        26     1
        22        27     1
        23        25     1
        23        40     1
        23        41     1
        24        40     1
        24        42     1
        26        41     1
        26        42     1
        27        40     1
        27        41     1
        28        33     1
        28        35     1
        28        36     1
        28        37     1
        33        34     1
        34        35     1
        38        39     1
