; ITP file created by ByteFF-joint-25, 2026-02-17 09:09:27.746392

[ atomtypes ]
;name           bonded.type        at.num        mass        charge   ptype           sigma         epsilon
 c0bf                                   6      0.0000       0.00000       A     3.39769e-01     4.50558e-01    ;  uncertainty sigma = 0.000008, epsilon = 0.001195
 n1bf                                   7      0.0000       0.00000       A     2.58863e-01     1.06534e+01    ;  uncertainty sigma = 0.000096, epsilon = 0.001146
 c2bf                                   6      0.0000       0.00000       A     3.39769e-01     4.50558e-01    ;  uncertainty sigma = 0.000008, epsilon = 0.001195
 c3bf                                   6      0.0000       0.00000       A     3.39769e-01     4.50965e-01    ;  uncertainty sigma = 0.000013, epsilon = 0.001386
 c4bf                                   6      0.0000       0.00000       A     3.39761e-01     4.51155e-01    ;  uncertainty sigma = 0.000032, epsilon = 0.001332
 c5bf                                   6      0.0000       0.00000       A     3.39785e-01     4.50681e-01    ;  uncertainty sigma = 0.000014, epsilon = 0.000681
 o6bf                                   8      0.0000       0.00000       A     3.15618e-01     3.04185e-01    ;  uncertainty sigma = 0.000021, epsilon = 0.001469
 c7bf                                   6      0.0000       0.00000       A     3.31546e-01     4.12320e-01    ;  uncertainty sigma = 0.000011, epsilon = 0.002527
 c8bf                                   6      0.0000       0.00000       A     3.31543e-01     4.13243e-01    ;  uncertainty sigma = 0.000006, epsilon = 0.000627
 n9bf                                   7      0.0000       0.00000       A     3.38408e-01     3.93550e-01    ;  uncertainty sigma = 0.000017, epsilon = 0.000712
 c10bf                                  6      0.0000       0.00000       A     3.31469e-01     4.13138e-01    ;  uncertainty sigma = 0.000018, epsilon = 0.000709
 n11bf                                  7      0.0000       0.00000       A     3.38408e-01     3.93550e-01    ;  uncertainty sigma = 0.000017, epsilon = 0.000712
 c12bf                                  6      0.0000       0.00000       A     3.31543e-01     4.13243e-01    ;  uncertainty sigma = 0.000006, epsilon = 0.000627
 c13bf                                  6      0.0000       0.00000       A     3.31542e-01     4.13088e-01    ;  uncertainty sigma = 0.000011, epsilon = 0.000816
 c14bf                                  6      0.0000       0.00000       A     3.31518e-01     4.13405e-01    ;  uncertainty sigma = 0.000007, epsilon = 0.000656
 c15bf                                  6      0.0000       0.00000       A     3.31517e-01     4.13451e-01    ;  uncertainty sigma = 0.000002, epsilon = 0.000661
 c16bf                                  6      0.0000       0.00000       A     3.31517e-01     4.13355e-01    ;  uncertainty sigma = 0.000004, epsilon = 0.000528
 c17bf                                  6      0.0000       0.00000       A     3.31504e-01     4.13393e-01    ;  uncertainty sigma = 0.000003, epsilon = 0.000338
 c18bf                                  6      0.0000       0.00000       A     3.39766e-01     4.50446e-01    ;  uncertainty sigma = 0.000009, epsilon = 0.000438
 n19bf                                  7      0.0000       0.00000       A     3.18130e-01     6.84059e-01    ;  uncertainty sigma = 0.000031, epsilon = 0.002260
 n20bf                                  7      0.0000       0.00000       A     3.38449e-01     3.94403e-01    ;  uncertainty sigma = 0.000019, epsilon = 0.001004
 c21bf                                  6      0.0000       0.00000       A     3.31499e-01     4.13462e-01    ;  uncertainty sigma = 0.000032, epsilon = 0.001034
 c22bf                                  6      0.0000       0.00000       A     3.31517e-01     4.13271e-01    ;  uncertainty sigma = 0.000015, epsilon = 0.000991
 c23bf                                  6      0.0000       0.00000       A     3.31479e-01     4.13326e-01    ;  uncertainty sigma = 0.000018, epsilon = 0.001521
 c24bf                                  6      0.0000       0.00000       A     3.31546e-01     4.13945e-01    ;  uncertainty sigma = 0.000006, epsilon = 0.001637
 o25bf                                  8      0.0000       0.00000       A     3.04802e-01     6.12255e-01    ;  uncertainty sigma = 0.000021, epsilon = 0.001274
 c26bf                                  6      0.0000       0.00000       A     3.31518e-01     4.13222e-01    ;  uncertainty sigma = 0.000014, epsilon = 0.000557
 c27bf                                  6      0.0000       0.00000       A     3.31511e-01     4.13349e-01    ;  uncertainty sigma = 0.000007, epsilon = 0.000649
 c28bf                                  6      0.0000       0.00000       A     3.31521e-01     4.13437e-01    ;  uncertainty sigma = 0.000003, epsilon = 0.000682
 c29bf                                  6      0.0000       0.00000       A     3.31519e-01     4.13373e-01    ;  uncertainty sigma = 0.000004, epsilon = 0.000632
 c30bf                                  6      0.0000       0.00000       A     3.31513e-01     4.13306e-01    ;  uncertainty sigma = 0.000009, epsilon = 0.000485
 f31bf                                  9      0.0000       0.00000       A     3.03438e-01     3.47923e-01    ;  uncertainty sigma = 0.000010, epsilon = 0.000792
 c32bf                                  6      0.0000       0.00000       A     3.31521e-01     4.13586e-01    ;  uncertainty sigma = 0.000012, epsilon = 0.000704
 c33bf                                  6      0.0000       0.00000       A     3.31508e-01     4.13193e-01    ;  uncertainty sigma = 0.000012, epsilon = 0.000741
 h34bf                                  1      0.0000       0.00000       A     1.88754e-01     8.64620e-02    ;  uncertainty sigma = 0.000044, epsilon = 0.000601
 h35bf                                  1      0.0000       0.00000       A     1.88754e-01     8.64620e-02    ;  uncertainty sigma = 0.000044, epsilon = 0.000601
 h36bf                                  1      0.0000       0.00000       A     1.88754e-01     8.64620e-02    ;  uncertainty sigma = 0.000044, epsilon = 0.000601
 h37bf                                  1      0.0000       0.00000       A     1.88754e-01     8.64620e-02    ;  uncertainty sigma = 0.000044, epsilon = 0.000601
 h38bf                                  1      0.0000       0.00000       A     1.88754e-01     8.64620e-02    ;  uncertainty sigma = 0.000044, epsilon = 0.000601
 h39bf                                  1      0.0000       0.00000       A     1.88754e-01     8.64620e-02    ;  uncertainty sigma = 0.000044, epsilon = 0.000601
 h40bf                                  1      0.0000       0.00000       A     1.88742e-01     8.62334e-02    ;  uncertainty sigma = 0.000053, epsilon = 0.001073
 h41bf                                  1      0.0000       0.00000       A     1.88742e-01     8.62334e-02    ;  uncertainty sigma = 0.000053, epsilon = 0.001073
 h42bf                                  1      0.0000       0.00000       A     2.60093e-01     8.64943e-02    ;  uncertainty sigma = 0.000047, epsilon = 0.000571
 h43bf                                  1      0.0000       0.00000       A     2.60093e-01     8.64943e-02    ;  uncertainty sigma = 0.000047, epsilon = 0.000571
 h44bf                                  1      0.0000       0.00000       A     2.42218e-01     8.69722e-02    ;  uncertainty sigma = 0.000040, epsilon = 0.000956
 h45bf                                  1      0.0000       0.00000       A     2.42218e-01     8.69722e-02    ;  uncertainty sigma = 0.000040, epsilon = 0.000956
 h46bf                                  1      0.0000       0.00000       A     2.53665e-01     6.72126e-02    ;  uncertainty sigma = 0.000035, epsilon = 0.000623
 h47bf                                  1      0.0000       0.00000       A     2.53665e-01     6.72126e-02    ;  uncertainty sigma = 0.000035, epsilon = 0.000623
 h48bf                                  1      0.0000       0.00000       A     2.62563e-01     6.70453e-02    ;  uncertainty sigma = 0.000011, epsilon = 0.000576
 h49bf                                  1      0.0000       0.00000       A     2.62563e-01     6.70149e-02    ;  uncertainty sigma = 0.000010, epsilon = 0.000410
 h50bf                                  1      0.0000       0.00000       A     2.62563e-01     6.70957e-02    ;  uncertainty sigma = 0.000006, epsilon = 0.000591
 h51bf                                  1      0.0000       0.00000       A     2.42236e-01     8.69097e-02    ;  uncertainty sigma = 0.000033, epsilon = 0.000580
 h52bf                                  1      0.0000       0.00000       A     2.42236e-01     8.69097e-02    ;  uncertainty sigma = 0.000033, epsilon = 0.000580
 h53bf                                  1      0.0000       0.00000       A     2.62549e-01     6.67404e-02    ;  uncertainty sigma = 0.000015, epsilon = 0.000444
 h54bf                                  1      0.0000       0.00000       A     2.62519e-01     6.70320e-02    ;  uncertainty sigma = 0.000024, epsilon = 0.000745
 h55bf                                  1      0.0000       0.00000       A     2.62560e-01     6.70283e-02    ;  uncertainty sigma = 0.000012, epsilon = 0.000523
 h56bf                                  1      0.0000       0.00000       A     2.62566e-01     6.69675e-02    ;  uncertainty sigma = 0.000009, epsilon = 0.000498
 h57bf                                  1      0.0000       0.00000       A     2.62565e-01     6.71044e-02    ;  uncertainty sigma = 0.000012, epsilon = 0.000451
 h58bf                                  1      0.0000       0.00000       A     2.62551e-01     6.70389e-02    ;  uncertainty sigma = 0.000014, epsilon = 0.000667
 h59bf                                  1      0.0000       0.00000       A     2.62558e-01     6.71381e-02    ;  uncertainty sigma = 0.000013, epsilon = 0.000769
 h60bf                                  1      0.0000       0.00000       A     1.10713e-01     4.17134e-02    ;  uncertainty sigma = 0.000108, epsilon = 0.000765

[ moleculetype ]
;name             nrexcl
 MOL                   3

[ atoms ]
;       nr            type      resi   res      atom      cgnr      charge          mass ; qtot
         1            c0bf         1   UNL        c0         1     0.11306       12.0110 ; qtot    0.113
         2            n1bf         1   UNL        n1         2    -0.71188       14.0070 ; qtot   -0.599
         3            c2bf         1   UNL        c2         3     0.11306       12.0110 ; qtot   -0.486
         4            c3bf         1   UNL        c3         4     0.13470       12.0110 ; qtot   -0.351
         5            c4bf         1   UNL        c4         5    -0.11271       12.0110 ; qtot   -0.464
         6            c5bf         1   UNL        c5         6     0.14642       12.0110 ; qtot   -0.317
         7            o6bf         1   UNL        o6         7    -0.32036       15.9990 ; qtot   -0.638
         8            c7bf         1   UNL        c7         8    -0.10674       12.0110 ; qtot   -0.744
         9            c8bf         1   UNL        c8         9     0.39342       12.0110 ; qtot   -0.351
        10            n9bf         1   UNL        n9        10    -0.67798       14.0070 ; qtot   -1.029
        11           c10bf         1   UNL       c10        11     0.69795       12.0110 ; qtot   -0.331
        12           n11bf         1   UNL       n11        12    -0.67798       14.0070 ; qtot   -1.009
        13           c12bf         1   UNL       c12        13     0.39342       12.0110 ; qtot   -0.616
        14           c13bf         1   UNL       c13        14    -0.15593       12.0110 ; qtot   -0.772
        15           c14bf         1   UNL       c14        15    -0.08221       12.0110 ; qtot   -0.854
        16           c15bf         1   UNL       c15        16    -0.14526       12.0110 ; qtot   -0.999
        17           c16bf         1   UNL       c16        17    -0.09108       12.0110 ; qtot   -1.090
        18           c17bf         1   UNL       c17        18    -0.12699       12.0110 ; qtot   -1.217
        19           c18bf         1   UNL       c18        19     0.15983       12.0110 ; qtot   -1.057
        20           n19bf         1   UNL       n19        20    -0.20396       14.0070 ; qtot   -1.261
        21           n20bf         1   UNL       n20        21    -0.41047       14.0070 ; qtot   -1.672
        22           c21bf         1   UNL       c21        22     0.39443       12.0110 ; qtot   -1.277
        23           c22bf         1   UNL       c22        23    -0.16766       12.0110 ; qtot   -1.445
        24           c23bf         1   UNL       c23        24    -0.21412       12.0110 ; qtot   -1.659
        25           c24bf         1   UNL       c24        25     0.67439       12.0110 ; qtot   -0.985
        26           o25bf         1   UNL       o25        26    -0.61615       15.9990 ; qtot   -1.601
        27           c26bf         1   UNL       c26        27    -0.10025       12.0110 ; qtot   -1.701
        28           c27bf         1   UNL       c27        28    -0.11978       12.0110 ; qtot   -1.821
        29           c28bf         1   UNL       c28        29    -0.10836       12.0110 ; qtot   -1.929
        30           c29bf         1   UNL       c29        30    -0.15139       12.0110 ; qtot   -2.081
        31           c30bf         1   UNL       c30        31     0.12238       12.0110 ; qtot   -1.958
        32           f31bf         1   UNL       f31        32    -0.14509       18.9980 ; qtot   -2.103
        33           c32bf         1   UNL       c32        33    -0.14202       12.0110 ; qtot   -2.245
        34           c33bf         1   UNL       c33        34    -0.06423       12.0110 ; qtot   -2.310
        35           h34bf         1   UNL       h34        35     0.10248        1.0080 ; qtot   -2.207
        36           h35bf         1   UNL       h35        36     0.10248        1.0080 ; qtot   -2.105
        37           h36bf         1   UNL       h36        37     0.10248        1.0080 ; qtot   -2.002
        38           h37bf         1   UNL       h37        38     0.10248        1.0080 ; qtot   -1.900
        39           h38bf         1   UNL       h38        39     0.10248        1.0080 ; qtot   -1.797
        40           h39bf         1   UNL       h39        40     0.10248        1.0080 ; qtot   -1.695
        41           h40bf         1   UNL       h40        41     0.10142        1.0080 ; qtot   -1.593
        42           h41bf         1   UNL       h41        42     0.10142        1.0080 ; qtot   -1.492
        43           h42bf         1   UNL       h42        43     0.08558        1.0080 ; qtot   -1.406
        44           h43bf         1   UNL       h43        44     0.08558        1.0080 ; qtot   -1.321
        45           h44bf         1   UNL       h44        45     0.06310        1.0080 ; qtot   -1.258
        46           h45bf         1   UNL       h45        46     0.06310        1.0080 ; qtot   -1.194
        47           h46bf         1   UNL       h46        47     0.03565        1.0080 ; qtot   -1.159
        48           h47bf         1   UNL       h47        48     0.03565        1.0080 ; qtot   -1.123
        49           h48bf         1   UNL       h48        49     0.15226        1.0080 ; qtot   -0.971
        50           h49bf         1   UNL       h49        50     0.13595        1.0080 ; qtot   -0.835
        51           h50bf         1   UNL       h50        51     0.13982        1.0080 ; qtot   -0.695
        52           h51bf         1   UNL       h51        52     0.08064        1.0080 ; qtot   -0.614
        53           h52bf         1   UNL       h52        53     0.08064        1.0080 ; qtot   -0.534
        54           h53bf         1   UNL       h53        54     0.15224        1.0080 ; qtot   -0.382
        55           h54bf         1   UNL       h54        55     0.16763        1.0080 ; qtot   -0.214
        56           h55bf         1   UNL       h55        56     0.14797        1.0080 ; qtot   -0.066
        57           h56bf         1   UNL       h56        57     0.14132        1.0080 ; qtot    0.075
        58           h57bf         1   UNL       h57        58     0.15369        1.0080 ; qtot    0.229
        59           h58bf         1   UNL       h58        59     0.16197        1.0080 ; qtot    0.391
        60           h59bf         1   UNL       h59        60     0.15650        1.0080 ; qtot    0.547
        61           h60bf         1   UNL       h60        61     0.45253        1.0080 ; qtot    1.000

[ bonds ]
;       ai        aj funct               r               k
         1         2     1        0.150391   206968.363086    ;  uncertainty r = 0.000046, k = 15.575453
         1        35     1        0.108982   314172.586426    ;  uncertainty r = 0.000020, k = 1.327852
         1        36     1        0.108982   314172.586426    ;  uncertainty r = 0.000020, k = 1.327852
         1        37     1        0.108982   314172.586426    ;  uncertainty r = 0.000020, k = 1.327852
         2         3     1        0.150391   206968.363086    ;  uncertainty r = 0.000046, k = 15.575453
         2         4     1        0.151888   190701.658545    ;  uncertainty r = 0.000184, k = 18.246901
         2        61     1        0.102672   380024.211035    ;  uncertainty r = 0.000103, k = 9.662741
         3        38     1        0.108982   314172.586426    ;  uncertainty r = 0.000020, k = 1.327852
         3        39     1        0.108982   314172.586426    ;  uncertainty r = 0.000020, k = 1.327852
         3        40     1        0.108982   314172.586426    ;  uncertainty r = 0.000020, k = 1.327852
         4         5     1        0.152791   203112.897998    ;  uncertainty r = 0.000073, k = 8.586209
         4        41     1        0.109092   311623.982910    ;  uncertainty r = 0.000034, k = 1.755135
         4        42     1        0.109092   311623.982910    ;  uncertainty r = 0.000034, k = 1.755135
         5         6     1        0.152735   206765.457983    ;  uncertainty r = 0.000125, k = 9.273121
         5        43     1        0.109537   311668.008887    ;  uncertainty r = 0.000038, k = 3.411102
         5        44     1        0.109537   311668.008887    ;  uncertainty r = 0.000038, k = 3.411102
         6         7     1        0.142328   230736.619043    ;  uncertainty r = 0.000208, k = 7.039285
         6        45     1        0.109664   309138.711426    ;  uncertainty r = 0.000098, k = 3.958270
         6        46     1        0.109664   309138.711426    ;  uncertainty r = 0.000098, k = 3.958270
         7         8     1        0.136213   317844.312012    ;  uncertainty r = 0.000248, k = 6.331055
         8         9     1        0.139648   371796.128857    ;  uncertainty r = 0.000085, k = 9.706450
         8        13     1        0.139648   371796.128857    ;  uncertainty r = 0.000085, k = 9.706450
         9        10     1        0.133067   409378.913965    ;  uncertainty r = 0.000048, k = 4.249417
         9        47     1        0.109052   334640.043311    ;  uncertainty r = 0.000040, k = 3.901920
        10        11     1        0.135006   359311.265918    ;  uncertainty r = 0.000174, k = 8.718546
        11        12     1        0.135006   359311.265918    ;  uncertainty r = 0.000174, k = 8.718546
        11        14     1        0.146856   259787.021777    ;  uncertainty r = 0.000158, k = 4.145100
        12        13     1        0.133067   409378.913965    ;  uncertainty r = 0.000048, k = 4.249417
        13        48     1        0.109052   334640.043311    ;  uncertainty r = 0.000040, k = 3.901920
        14        15     1        0.139722   342720.214551    ;  uncertainty r = 0.000075, k = 2.913346
        14        34     1        0.139409   336931.871191    ;  uncertainty r = 0.000073, k = 5.943861
        15        16     1        0.139280   367550.839795    ;  uncertainty r = 0.000042, k = 4.029714
        15        49     1        0.108616   332854.948291    ;  uncertainty r = 0.000026, k = 0.969500
        16        17     1        0.139534   371200.960986    ;  uncertainty r = 0.000016, k = 1.371951
        16        50     1        0.108831   333139.329541    ;  uncertainty r = 0.000017, k = 1.252019
        17        18     1        0.139703   354765.532764    ;  uncertainty r = 0.000069, k = 2.816855
        17        51     1        0.108845   333137.746240    ;  uncertainty r = 0.000012, k = 0.688241
        18        19     1        0.151483   229275.079199    ;  uncertainty r = 0.000030, k = 5.987388
        18        34     1        0.139276   349283.149512    ;  uncertainty r = 0.000051, k = 4.888133
        19        20     1        0.146958   226285.092285    ;  uncertainty r = 0.000082, k = 7.991861
        19        52     1        0.109288   307627.655127    ;  uncertainty r = 0.000019, k = 0.761517
        19        53     1        0.109288   307627.655127    ;  uncertainty r = 0.000019, k = 0.761517
        20        21     1        0.133719   291839.975684    ;  uncertainty r = 0.000103, k = 13.619026
        20        25     1        0.139210   287082.463281    ;  uncertainty r = 0.000112, k = 8.370610
        21        22     1        0.130272   486604.562793    ;  uncertainty r = 0.000113, k = 8.057670
        22        23     1        0.143190   247935.223779    ;  uncertainty r = 0.000134, k = 11.587131
        22        27     1        0.147199   262358.838525    ;  uncertainty r = 0.000083, k = 9.032682
        23        24     1        0.134977   481508.785840    ;  uncertainty r = 0.000047, k = 10.409223
        23        54     1        0.108783   336902.886572    ;  uncertainty r = 0.000050, k = 1.619665
        24        25     1        0.145432   272577.155322    ;  uncertainty r = 0.000089, k = 4.402675
        24        55     1        0.108708   341990.721484    ;  uncertainty r = 0.000030, k = 2.410362
        25        26     1        0.124008   735950.584180    ;  uncertainty r = 0.000059, k = 6.569249
        27        28     1        0.140034   344415.240186    ;  uncertainty r = 0.000056, k = 2.589193
        27        33     1        0.139948   352891.798437    ;  uncertainty r = 0.000047, k = 4.051043
        28        29     1        0.139401   364598.009375    ;  uncertainty r = 0.000027, k = 1.782761
        28        56     1        0.108716   334132.697559    ;  uncertainty r = 0.000021, k = 1.007297
        29        30     1        0.139511   377137.904785    ;  uncertainty r = 0.000021, k = 1.613676
        29        57     1        0.108756   333007.813428    ;  uncertainty r = 0.000009, k = 1.313888
        30        31     1        0.139011   360330.094434    ;  uncertainty r = 0.000020, k = 2.975576
        30        58     1        0.108779   336730.689844    ;  uncertainty r = 0.000011, k = 0.599658
        31        32     1        0.135715   338807.214355    ;  uncertainty r = 0.000032, k = 1.467231
        31        33     1        0.138767   356507.444531    ;  uncertainty r = 0.000039, k = 0.728973
        33        59     1        0.108732   336003.265283    ;  uncertainty r = 0.000030, k = 0.687983
        34        60     1        0.108682   331298.716846    ;  uncertainty r = 0.000030, k = 1.060830

[ angles ]
;       ai        aj        ak funct           theta             cth
         1         2         3     1      111.640198      714.699291    ;  uncertainty theta = 0.001271, k = 0.164693
         1         2         4     1      111.577248      649.272004    ;  uncertainty theta = 0.001912, k = 0.208394
         1         2        61     1      106.282303      462.351217    ;  uncertainty theta = 0.001772, k = 0.176947
         2         1        35     1      107.947853      470.857724    ;  uncertainty theta = 0.002394, k = 0.062057
         2         1        36     1      107.947853      470.857724    ;  uncertainty theta = 0.002394, k = 0.062057
         2         1        37     1      107.947853      470.857724    ;  uncertainty theta = 0.002394, k = 0.062057
         2         3        38     1      107.947853      470.857724    ;  uncertainty theta = 0.002394, k = 0.062057
         2         3        39     1      107.947853      470.857724    ;  uncertainty theta = 0.002394, k = 0.062057
         2         3        40     1      107.947853      470.857724    ;  uncertainty theta = 0.002394, k = 0.062057
         2         4         5     1      111.160255      676.104483    ;  uncertainty theta = 0.003484, k = 0.216006
         2         4        41     1      105.574242      464.240739    ;  uncertainty theta = 0.000949, k = 0.077057
         2         4        42     1      105.574242      464.240739    ;  uncertainty theta = 0.000949, k = 0.077057
         3         2         4     1      111.577248      649.272004    ;  uncertainty theta = 0.001912, k = 0.208394
         3         2        61     1      106.282303      462.351217    ;  uncertainty theta = 0.001772, k = 0.176947
         4         2        61     1      106.240402      446.613909    ;  uncertainty theta = 0.003169, k = 0.051615
         4         5         6     1      109.752762      544.878280    ;  uncertainty theta = 0.001840, k = 0.186333
         4         5        43     1      107.366287      401.383922    ;  uncertainty theta = 0.002481, k = 0.064733
         4         5        44     1      107.366287      401.383922    ;  uncertainty theta = 0.002481, k = 0.064733
         5         4        41     1      109.832565      402.390180    ;  uncertainty theta = 0.002078, k = 0.055178
         5         4        42     1      109.832565      402.390180    ;  uncertainty theta = 0.002078, k = 0.055178
         5         6         7     1      109.063560      579.783486    ;  uncertainty theta = 0.004581, k = 0.100947
         5         6        45     1      109.584671      399.976827    ;  uncertainty theta = 0.002071, k = 0.097344
         5         6        46     1      109.584671      399.976827    ;  uncertainty theta = 0.002071, k = 0.097344
         6         5        43     1      107.254318      403.794625    ;  uncertainty theta = 0.001311, k = 0.061725
         6         5        44     1      107.254318      403.794625    ;  uncertainty theta = 0.001311, k = 0.061725
         6         7         8     1      110.369186      504.557674    ;  uncertainty theta = 0.001577, k = 0.162674
         7         6        45     1      107.461388      430.031962    ;  uncertainty theta = 0.003150, k = 0.051924
         7         6        46     1      107.461388      430.031962    ;  uncertainty theta = 0.003150, k = 0.051924
         7         8         9     1      119.933716      402.497723    ;  uncertainty theta = 0.007672, k = 0.155632
         7         8        13     1      119.933716      402.497723    ;  uncertainty theta = 0.007672, k = 0.155632
         8         9        10     1      121.520203      688.081196    ;  uncertainty theta = 0.003014, k = 0.106237
         8         9        47     1      120.776428      255.710785    ;  uncertainty theta = 0.002542, k = 0.172781
         8        13        12     1      121.520203      688.081196    ;  uncertainty theta = 0.003014, k = 0.106237
         8        13        48     1      120.776428      255.710785    ;  uncertainty theta = 0.002542, k = 0.172781
         9         8        13     1      117.805458      352.842346    ;  uncertainty theta = 0.006505, k = 0.510123
         9        10        11     1      117.415298      372.480862    ;  uncertainty theta = 0.006332, k = 0.318624
        10         9        47     1      117.332191      329.677985    ;  uncertainty theta = 0.004794, k = 0.095269
        10        11        12     1      127.269669      797.523670    ;  uncertainty theta = 0.000954, k = 0.105380
        10        11        14     1      117.590942      445.732528    ;  uncertainty theta = 0.004282, k = 0.099810
        11        12        13     1      117.415298      372.480862    ;  uncertainty theta = 0.006332, k = 0.318624
        11        14        15     1      116.993896      401.563575    ;  uncertainty theta = 0.006089, k = 0.080842
        11        14        34     1      116.438194      397.763334    ;  uncertainty theta = 0.006185, k = 0.074266
        12        11        14     1      117.590942      445.732528    ;  uncertainty theta = 0.004282, k = 0.099810
        12        13        48     1      117.332191      329.677985    ;  uncertainty theta = 0.004794, k = 0.095269
        14        15        16     1      120.232346      524.525332    ;  uncertainty theta = 0.000782, k = 0.072775
        14        15        49     1      117.565109      261.796789    ;  uncertainty theta = 0.001353, k = 0.076979
        14        34        18     1      121.979675      528.275711    ;  uncertainty theta = 0.001822, k = 0.081800
        14        34        60     1      117.407730      263.631583    ;  uncertainty theta = 0.002520, k = 0.101620
        15        14        34     1      121.895348      436.115923    ;  uncertainty theta = 0.002603, k = 0.071743
        15        16        17     1      120.290504      506.484577    ;  uncertainty theta = 0.001272, k = 0.077873
        15        16        50     1      120.239822      284.659030    ;  uncertainty theta = 0.001522, k = 0.023723
        16        15        49     1      120.926468      288.832017    ;  uncertainty theta = 0.001396, k = 0.073928
        16        17        18     1      119.885025      524.221759    ;  uncertainty theta = 0.002065, k = 0.043778
        16        17        51     1      120.372025      293.531132    ;  uncertainty theta = 0.002545, k = 0.019543
        17        16        50     1      120.362267      284.047991    ;  uncertainty theta = 0.001711, k = 0.048927
        17        18        19     1      120.426491      424.552145    ;  uncertainty theta = 0.001183, k = 0.075232
        17        18        34     1      120.774338      455.617432    ;  uncertainty theta = 0.001449, k = 0.156970
        18        17        51     1      119.030472      270.213357    ;  uncertainty theta = 0.002268, k = 0.024349
        18        19        20     1      111.862549      642.493625    ;  uncertainty theta = 0.001364, k = 0.091264
        18        19        52     1      108.739967      417.311545    ;  uncertainty theta = 0.001880, k = 0.053917
        18        19        53     1      108.739967      417.311545    ;  uncertainty theta = 0.001880, k = 0.053917
        18        34        60     1      119.316833      276.390593    ;  uncertainty theta = 0.001305, k = 0.080105
        19        18        34     1      119.739639      404.422104    ;  uncertainty theta = 0.001445, k = 0.125283
        19        20        21     1      110.577988      500.240115    ;  uncertainty theta = 0.005833, k = 0.098935
        19        20        25     1      115.546555      389.353517    ;  uncertainty theta = 0.005911, k = 0.248842
        20        19        52     1      105.434036      444.191906    ;  uncertainty theta = 0.001612, k = 0.053315
        20        19        53     1      105.434036      444.191906    ;  uncertainty theta = 0.001612, k = 0.053315
        20        21        22     1      119.525940      508.037201    ;  uncertainty theta = 0.009287, k = 0.216499
        20        25        24     1      111.385658      354.543852    ;  uncertainty theta = 0.004876, k = 0.498398
        20        25        26     1      122.027390      653.228724    ;  uncertainty theta = 0.001797, k = 0.051888
        21        20        25     1      124.130821      552.011816    ;  uncertainty theta = 0.006513, k = 0.232378
        21        22        23     1      126.102310      534.027243    ;  uncertainty theta = 0.003572, k = 0.209755
        21        22        27     1      116.532936      443.491551    ;  uncertainty theta = 0.005893, k = 0.260966
        22        23        24     1      119.150719      482.900673    ;  uncertainty theta = 0.004618, k = 0.317622
        22        23        54     1      118.570328      262.350051    ;  uncertainty theta = 0.005505, k = 0.057904
        22        27        28     1      119.288780      393.438561    ;  uncertainty theta = 0.001814, k = 0.146713
        22        27        33     1      118.550217      392.273047    ;  uncertainty theta = 0.002342, k = 0.190255
        23        22        27     1      120.529175      388.648023    ;  uncertainty theta = 0.001694, k = 0.110525
        23        24        25     1      119.665359      523.118907    ;  uncertainty theta = 0.005349, k = 0.100266
        23        24        55     1      123.138992      265.275997    ;  uncertainty theta = 0.005028, k = 0.152927
        24        23        54     1      122.361343      282.774455    ;  uncertainty theta = 0.005531, k = 0.167097
        24        25        26     1      127.351967      536.919129    ;  uncertainty theta = 0.003562, k = 0.161864
        25        24        55     1      117.583885      254.681432    ;  uncertainty theta = 0.006644, k = 0.184684
        27        28        29     1      120.517677      526.154950    ;  uncertainty theta = 0.001473, k = 0.049998
        27        28        56     1      118.529686      268.817403    ;  uncertainty theta = 0.002972, k = 0.031462
        27        33        31     1      119.225113      494.216677    ;  uncertainty theta = 0.002909, k = 0.139475
        27        33        59     1      120.053383      262.550852    ;  uncertainty theta = 0.001808, k = 0.059346
        28        27        33     1      121.671677      432.663657    ;  uncertainty theta = 0.001432, k = 0.073061
        28        29        30     1      120.953110      515.723648    ;  uncertainty theta = 0.001686, k = 0.029097
        28        29        57     1      120.120094      281.722071    ;  uncertainty theta = 0.000759, k = 0.030277
        29        28        56     1      120.472153      293.292105    ;  uncertainty theta = 0.002025, k = 0.018028
        29        30        31     1      116.838280      498.184122    ;  uncertainty theta = 0.001319, k = 0.049055
        29        30        58     1      121.922195      281.971249    ;  uncertainty theta = 0.001635, k = 0.021544
        30        29        57     1      119.896095      284.361555    ;  uncertainty theta = 0.000332, k = 0.029329
        30        31        32     1      119.125099      513.845904    ;  uncertainty theta = 0.001581, k = 0.061153
        30        31        33     1      123.014420      359.462043    ;  uncertainty theta = 0.004996, k = 0.132801
        31        30        58     1      120.900406      283.242614    ;  uncertainty theta = 0.002085, k = 0.036591
        31        33        59     1      120.813278      288.163072    ;  uncertainty theta = 0.000626, k = 0.041058
        32        31        33     1      118.582169      509.643134    ;  uncertainty theta = 0.001772, k = 0.046426
        35         1        36     1      108.453964      318.843739    ;  uncertainty theta = 0.003157, k = 0.041407
        35         1        37     1      108.453964      318.843739    ;  uncertainty theta = 0.003157, k = 0.041407
        36         1        37     1      108.453964      318.843739    ;  uncertainty theta = 0.003157, k = 0.041407
        38         3        39     1      108.453964      318.843739    ;  uncertainty theta = 0.003157, k = 0.041407
        38         3        40     1      108.453964      318.843739    ;  uncertainty theta = 0.003157, k = 0.041407
        39         3        40     1      108.453964      318.843739    ;  uncertainty theta = 0.003157, k = 0.041407
        41         4        42     1      107.757484      320.468761    ;  uncertainty theta = 0.004006, k = 0.081407
        43         5        44     1      105.731667      324.816517    ;  uncertainty theta = 0.002306, k = 0.047817
        45         6        46     1      107.585915      334.799388    ;  uncertainty theta = 0.004048, k = 0.068197
        52        19        53     1      106.067017      312.923918    ;  uncertainty theta = 0.003423, k = 0.065436

[ dihedrals ] ; propers for gromacs 4.5 or higher, use funct 9
;       ai        aj        ak        al funct           phase               k        pn
         1         2         3        38     9        0.000000       -0.651781         1    ;  uncertainty k = 0.566291
         1         2         3        38     9      180.000000       -0.654867         2    ;  uncertainty k = 0.378370
         1         2         3        38     9        0.000000        1.225484         3    ;  uncertainty k = 0.063991
         1         2         3        38     9      180.000000       -0.019961         4    ;  uncertainty k = 0.106496
         1         2         3        39     9        0.000000       -0.651781         1    ;  uncertainty k = 0.566291
         1         2         3        39     9      180.000000       -0.654867         2    ;  uncertainty k = 0.378370
         1         2         3        39     9        0.000000        1.225484         3    ;  uncertainty k = 0.063991
         1         2         3        39     9      180.000000       -0.019961         4    ;  uncertainty k = 0.106496
         1         2         3        40     9        0.000000       -0.651781         1    ;  uncertainty k = 0.566291
         1         2         3        40     9      180.000000       -0.654867         2    ;  uncertainty k = 0.378370
         1         2         3        40     9        0.000000        1.225484         3    ;  uncertainty k = 0.063991
         1         2         3        40     9      180.000000       -0.019961         4    ;  uncertainty k = 0.106496
         1         2         4         5     9        0.000000       -1.799054         1    ;  uncertainty k = 0.617899
         1         2         4         5     9      180.000000        0.620208         2    ;  uncertainty k = 0.618510
         1         2         4         5     9        0.000000        1.171946         3    ;  uncertainty k = 0.210507
         1         2         4         5     9      180.000000       -0.141034         4    ;  uncertainty k = 0.093930
         1         2         4        41     9        0.000000       -0.460544         1    ;  uncertainty k = 0.348594
         1         2         4        41     9      180.000000       -0.392088         2    ;  uncertainty k = 0.304557
         1         2         4        41     9        0.000000        0.927329         3    ;  uncertainty k = 0.072963
         1         2         4        41     9      180.000000       -0.007234         4    ;  uncertainty k = 0.150355
         1         2         4        42     9        0.000000       -0.460544         1    ;  uncertainty k = 0.348594
         1         2         4        42     9      180.000000       -0.392088         2    ;  uncertainty k = 0.304557
         1         2         4        42     9        0.000000        0.927329         3    ;  uncertainty k = 0.072963
         1         2         4        42     9      180.000000       -0.007234         4    ;  uncertainty k = 0.150355
         2         4         5         6     9        0.000000       -3.540050         1    ;  uncertainty k = 1.374319
         2         4         5         6     9      180.000000       -2.909384         2    ;  uncertainty k = 0.503812
         2         4         5         6     9        0.000000        1.881494         3    ;  uncertainty k = 0.213958
         2         4         5         6     9      180.000000       -0.336049         4    ;  uncertainty k = 0.264436
         2         4         5        43     9        0.000000        0.513644         1    ;  uncertainty k = 0.526482
         2         4         5        43     9      180.000000       -2.443851         2    ;  uncertainty k = 0.416854
         2         4         5        43     9        0.000000        1.118914         3    ;  uncertainty k = 0.258924
         2         4         5        43     9      180.000000       -0.159079         4    ;  uncertainty k = 0.093891
         2         4         5        44     9        0.000000        0.513644         1    ;  uncertainty k = 0.526482
         2         4         5        44     9      180.000000       -2.443851         2    ;  uncertainty k = 0.416854
         2         4         5        44     9        0.000000        1.118914         3    ;  uncertainty k = 0.258924
         2         4         5        44     9      180.000000       -0.159079         4    ;  uncertainty k = 0.093891
         3         2         1        35     9        0.000000       -0.651781         1    ;  uncertainty k = 0.566291
         3         2         1        35     9      180.000000       -0.654867         2    ;  uncertainty k = 0.378370
         3         2         1        35     9        0.000000        1.225484         3    ;  uncertainty k = 0.063991
         3         2         1        35     9      180.000000       -0.019961         4    ;  uncertainty k = 0.106496
         3         2         1        36     9        0.000000       -0.651781         1    ;  uncertainty k = 0.566291
         3         2         1        36     9      180.000000       -0.654867         2    ;  uncertainty k = 0.378370
         3         2         1        36     9        0.000000        1.225484         3    ;  uncertainty k = 0.063991
         3         2         1        36     9      180.000000       -0.019961         4    ;  uncertainty k = 0.106496
         3         2         1        37     9        0.000000       -0.651781         1    ;  uncertainty k = 0.566291
         3         2         1        37     9      180.000000       -0.654867         2    ;  uncertainty k = 0.378370
         3         2         1        37     9        0.000000        1.225484         3    ;  uncertainty k = 0.063991
         3         2         1        37     9      180.000000       -0.019961         4    ;  uncertainty k = 0.106496
         3         2         4         5     9        0.000000       -1.799054         1    ;  uncertainty k = 0.617899
         3         2         4         5     9      180.000000        0.620208         2    ;  uncertainty k = 0.618510
         3         2         4         5     9        0.000000        1.171946         3    ;  uncertainty k = 0.210507
         3         2         4         5     9      180.000000       -0.141034         4    ;  uncertainty k = 0.093930
         3         2         4        41     9        0.000000       -0.460544         1    ;  uncertainty k = 0.348594
         3         2         4        41     9      180.000000       -0.392088         2    ;  uncertainty k = 0.304557
         3         2         4        41     9        0.000000        0.927329         3    ;  uncertainty k = 0.072963
         3         2         4        41     9      180.000000       -0.007234         4    ;  uncertainty k = 0.150355
         3         2         4        42     9        0.000000       -0.460544         1    ;  uncertainty k = 0.348594
         3         2         4        42     9      180.000000       -0.392088         2    ;  uncertainty k = 0.304557
         3         2         4        42     9        0.000000        0.927329         3    ;  uncertainty k = 0.072963
         3         2         4        42     9      180.000000       -0.007234         4    ;  uncertainty k = 0.150355
         4         2         1        35     9        0.000000       -0.355651         1    ;  uncertainty k = 0.629649
         4         2         1        35     9      180.000000       -1.015353         2    ;  uncertainty k = 0.338815
         4         2         1        35     9        0.000000        1.210064         3    ;  uncertainty k = 0.071384
         4         2         1        35     9      180.000000       -0.032477         4    ;  uncertainty k = 0.094871
         4         2         1        36     9        0.000000       -0.355651         1    ;  uncertainty k = 0.629649
         4         2         1        36     9      180.000000       -1.015353         2    ;  uncertainty k = 0.338815
         4         2         1        36     9        0.000000        1.210064         3    ;  uncertainty k = 0.071384
         4         2         1        36     9      180.000000       -0.032477         4    ;  uncertainty k = 0.094871
         4         2         1        37     9        0.000000       -0.355651         1    ;  uncertainty k = 0.629649
         4         2         1        37     9      180.000000       -1.015353         2    ;  uncertainty k = 0.338815
         4         2         1        37     9        0.000000        1.210064         3    ;  uncertainty k = 0.071384
         4         2         1        37     9      180.000000       -0.032477         4    ;  uncertainty k = 0.094871
         4         2         3        38     9        0.000000       -0.355651         1    ;  uncertainty k = 0.629649
         4         2         3        38     9      180.000000       -1.015353         2    ;  uncertainty k = 0.338815
         4         2         3        38     9        0.000000        1.210064         3    ;  uncertainty k = 0.071384
         4         2         3        38     9      180.000000       -0.032477         4    ;  uncertainty k = 0.094871
         4         2         3        39     9        0.000000       -0.355651         1    ;  uncertainty k = 0.629649
         4         2         3        39     9      180.000000       -1.015353         2    ;  uncertainty k = 0.338815
         4         2         3        39     9        0.000000        1.210064         3    ;  uncertainty k = 0.071384
         4         2         3        39     9      180.000000       -0.032477         4    ;  uncertainty k = 0.094871
         4         2         3        40     9        0.000000       -0.355651         1    ;  uncertainty k = 0.629649
         4         2         3        40     9      180.000000       -1.015353         2    ;  uncertainty k = 0.338815
         4         2         3        40     9        0.000000        1.210064         3    ;  uncertainty k = 0.071384
         4         2         3        40     9      180.000000       -0.032477         4    ;  uncertainty k = 0.094871
         4         5         6         7     9        0.000000       -2.507369         1    ;  uncertainty k = 0.906811
         4         5         6         7     9      180.000000       -2.778736         2    ;  uncertainty k = 0.364146
         4         5         6         7     9        0.000000        2.066319         3    ;  uncertainty k = 0.244164
         4         5         6         7     9      180.000000       -0.467468         4    ;  uncertainty k = 0.205525
         4         5         6        45     9        0.000000       -2.076334         1    ;  uncertainty k = 0.417242
         4         5         6        45     9      180.000000       -0.244316         2    ;  uncertainty k = 0.207780
         4         5         6        45     9        0.000000        0.938737         3    ;  uncertainty k = 0.133120
         4         5         6        45     9      180.000000       -0.386174         4    ;  uncertainty k = 0.161548
         4         5         6        46     9        0.000000       -2.076334         1    ;  uncertainty k = 0.417242
         4         5         6        46     9      180.000000       -0.244316         2    ;  uncertainty k = 0.207780
         4         5         6        46     9        0.000000        0.938737         3    ;  uncertainty k = 0.133120
         4         5         6        46     9      180.000000       -0.386174         4    ;  uncertainty k = 0.161548
         5         4         2        61     9        0.000000       -1.088868         1    ;  uncertainty k = 0.623505
         5         4         2        61     9      180.000000       -0.294221         2    ;  uncertainty k = 0.426561
         5         4         2        61     9        0.000000        0.443286         3    ;  uncertainty k = 0.167221
         5         4         2        61     9      180.000000       -0.139785         4    ;  uncertainty k = 0.119420
         5         6         7         8     9        0.000000       -0.930637         1    ;  uncertainty k = 0.588578
         5         6         7         8     9      180.000000       -0.376177         2    ;  uncertainty k = 0.529971
         5         6         7         8     9        0.000000        0.725160         3    ;  uncertainty k = 0.189874
         5         6         7         8     9      180.000000        0.490795         4    ;  uncertainty k = 0.086520
         6         5         4        41     9        0.000000       -1.518713         1    ;  uncertainty k = 0.680554
         6         5         4        41     9      180.000000       -0.009468         2    ;  uncertainty k = 0.299198
         6         5         4        41     9        0.000000        0.846782         3    ;  uncertainty k = 0.040972
         6         5         4        41     9      180.000000       -0.274900         4    ;  uncertainty k = 0.106808
         6         5         4        42     9        0.000000       -1.518713         1    ;  uncertainty k = 0.680554
         6         5         4        42     9      180.000000       -0.009468         2    ;  uncertainty k = 0.299198
         6         5         4        42     9        0.000000        0.846782         3    ;  uncertainty k = 0.040972
         6         5         4        42     9      180.000000       -0.274900         4    ;  uncertainty k = 0.106808
         6         7         8         9     9        0.000000        0.820936         1    ;  uncertainty k = 1.034517
         6         7         8         9     9      180.000000        5.793385         2    ;  uncertainty k = 0.146349
         6         7         8         9     9        0.000000        0.470689         3    ;  uncertainty k = 0.242082
         6         7         8         9     9      180.000000        0.189550         4    ;  uncertainty k = 0.090854
         6         7         8        13     9        0.000000        0.820936         1    ;  uncertainty k = 1.034517
         6         7         8        13     9      180.000000        5.793385         2    ;  uncertainty k = 0.146349
         6         7         8        13     9        0.000000        0.470689         3    ;  uncertainty k = 0.242082
         6         7         8        13     9      180.000000        0.189550         4    ;  uncertainty k = 0.090854
         7         6         5        43     9        0.000000        0.183873         1    ;  uncertainty k = 0.289911
         7         6         5        43     9      180.000000       -1.760728         2    ;  uncertainty k = 0.440778
         7         6         5        43     9        0.000000        1.297158         3    ;  uncertainty k = 0.166268
         7         6         5        43     9      180.000000       -0.000243         4    ;  uncertainty k = 0.043602
         7         6         5        44     9        0.000000        0.183873         1    ;  uncertainty k = 0.289911
         7         6         5        44     9      180.000000       -1.760728         2    ;  uncertainty k = 0.440778
         7         6         5        44     9        0.000000        1.297158         3    ;  uncertainty k = 0.166268
         7         6         5        44     9      180.000000       -0.000243         4    ;  uncertainty k = 0.043602
         7         8         9        10     9        0.000000       -0.043850         1    ;  uncertainty k = 0.311241
         7         8         9        10     9      180.000000       11.385626         2    ;  uncertainty k = 0.560019
         7         8         9        10     9        0.000000        0.887978         3    ;  uncertainty k = 0.306492
         7         8         9        10     9      180.000000        1.370556         4    ;  uncertainty k = 0.351743
         7         8         9        47     9        0.000000        0.068117         1    ;  uncertainty k = 0.304077
         7         8         9        47     9      180.000000        7.201543         2    ;  uncertainty k = 0.304572
         7         8         9        47     9        0.000000        0.660189         3    ;  uncertainty k = 0.161389
         7         8         9        47     9      180.000000        1.001411         4    ;  uncertainty k = 0.193036
         7         8        13        12     9        0.000000       -0.043850         1    ;  uncertainty k = 0.311241
         7         8        13        12     9      180.000000       11.385626         2    ;  uncertainty k = 0.560019
         7         8        13        12     9        0.000000        0.887978         3    ;  uncertainty k = 0.306492
         7         8        13        12     9      180.000000        1.370556         4    ;  uncertainty k = 0.351743
         7         8        13        48     9        0.000000        0.068117         1    ;  uncertainty k = 0.304077
         7         8        13        48     9      180.000000        7.201543         2    ;  uncertainty k = 0.304572
         7         8        13        48     9        0.000000        0.660189         3    ;  uncertainty k = 0.161389
         7         8        13        48     9      180.000000        1.001411         4    ;  uncertainty k = 0.193036
         8         7         6        45     9        0.000000        0.534538         1    ;  uncertainty k = 0.568456
         8         7         6        45     9      180.000000       -1.278924         2    ;  uncertainty k = 0.261563
         8         7         6        45     9        0.000000        0.631694         3    ;  uncertainty k = 0.061608
         8         7         6        45     9      180.000000        0.276100         4    ;  uncertainty k = 0.105921
         8         7         6        46     9        0.000000        0.534538         1    ;  uncertainty k = 0.568456
         8         7         6        46     9      180.000000       -1.278924         2    ;  uncertainty k = 0.261563
         8         7         6        46     9        0.000000        0.631694         3    ;  uncertainty k = 0.061608
         8         7         6        46     9      180.000000        0.276100         4    ;  uncertainty k = 0.105921
         8         9        10        11     9        0.000000       -0.201571         1    ;  uncertainty k = 0.354383
         8         9        10        11     9      180.000000       16.068276         2    ;  uncertainty k = 0.230903
         8         9        10        11     9        0.000000        0.194741         3    ;  uncertainty k = 0.593375
         8         9        10        11     9      180.000000        1.544701         4    ;  uncertainty k = 0.361394
         8        13        12        11     9        0.000000       -0.201571         1    ;  uncertainty k = 0.354383
         8        13        12        11     9      180.000000       16.068276         2    ;  uncertainty k = 0.230903
         8        13        12        11     9        0.000000        0.194741         3    ;  uncertainty k = 0.593375
         8        13        12        11     9      180.000000        1.544701         4    ;  uncertainty k = 0.361394
         9         8        13        12     9        0.000000       -0.295425         1    ;  uncertainty k = 0.430237
         9         8        13        12     9      180.000000        9.210914         2    ;  uncertainty k = 0.610380
         9         8        13        12     9        0.000000       -0.519633         3    ;  uncertainty k = 0.219368
         9         8        13        12     9      180.000000        1.148160         4    ;  uncertainty k = 0.367749
         9         8        13        48     9        0.000000       -0.499514         1    ;  uncertainty k = 0.489777
         9         8        13        48     9      180.000000        3.941066         2    ;  uncertainty k = 1.348309
         9         8        13        48     9        0.000000        0.782236         3    ;  uncertainty k = 0.096981
         9         8        13        48     9      180.000000        1.097834         4    ;  uncertainty k = 0.213078
         9        10        11        12     9        0.000000       -0.509365         1    ;  uncertainty k = 0.586661
         9        10        11        12     9      180.000000       12.107978         2    ;  uncertainty k = 0.197300
         9        10        11        12     9        0.000000        1.078750         3    ;  uncertainty k = 0.445366
         9        10        11        12     9      180.000000        0.975973         4    ;  uncertainty k = 0.095252
         9        10        11        14     9        0.000000       -0.039226         1    ;  uncertainty k = 1.013980
         9        10        11        14     9      180.000000       11.598509         2    ;  uncertainty k = 0.430460
         9        10        11        14     9        0.000000        2.081244         3    ;  uncertainty k = 0.284752
         9        10        11        14     9      180.000000        1.038847         4    ;  uncertainty k = 0.398591
        10         9         8        13     9        0.000000       -0.295425         1    ;  uncertainty k = 0.430237
        10         9         8        13     9      180.000000        9.210914         2    ;  uncertainty k = 0.610380
        10         9         8        13     9        0.000000       -0.519633         3    ;  uncertainty k = 0.219368
        10         9         8        13     9      180.000000        1.148160         4    ;  uncertainty k = 0.367749
        10        11        12        13     9        0.000000       -0.509365         1    ;  uncertainty k = 0.586661
        10        11        12        13     9      180.000000       12.107978         2    ;  uncertainty k = 0.197300
        10        11        12        13     9        0.000000        1.078750         3    ;  uncertainty k = 0.445366
        10        11        12        13     9      180.000000        0.975973         4    ;  uncertainty k = 0.095252
        10        11        14        15     9        0.000000        0.480083         1    ;  uncertainty k = 0.594424
        10        11        14        15     9      180.000000        4.691411         2    ;  uncertainty k = 0.172266
        10        11        14        15     9        0.000000        0.515016         3    ;  uncertainty k = 0.136638
        10        11        14        15     9      180.000000        0.033086         4    ;  uncertainty k = 0.042749
        10        11        14        34     9        0.000000        0.460215         1    ;  uncertainty k = 0.593511
        10        11        14        34     9      180.000000        4.674515         2    ;  uncertainty k = 0.148568
        10        11        14        34     9        0.000000        0.513355         3    ;  uncertainty k = 0.124842
        10        11        14        34     9      180.000000        0.023824         4    ;  uncertainty k = 0.044346
        11        10         9        47     9        0.000000        0.319908         1    ;  uncertainty k = 0.607510
        11        10         9        47     9      180.000000       15.431788         2    ;  uncertainty k = 0.483098
        11        10         9        47     9        0.000000        1.763308         3    ;  uncertainty k = 0.818117
        11        10         9        47     9      180.000000        1.578522         4    ;  uncertainty k = 0.329454
        11        12        13        48     9        0.000000        0.319908         1    ;  uncertainty k = 0.607510
        11        12        13        48     9      180.000000       15.431788         2    ;  uncertainty k = 0.483098
        11        12        13        48     9        0.000000        1.763308         3    ;  uncertainty k = 0.818117
        11        12        13        48     9      180.000000        1.578522         4    ;  uncertainty k = 0.329454
        11        14        15        16     9        0.000000        0.339850         1    ;  uncertainty k = 0.442812
        11        14        15        16     9      180.000000        9.060788         2    ;  uncertainty k = 0.586016
        11        14        15        16     9        0.000000        1.180519         3    ;  uncertainty k = 0.373561
        11        14        15        16     9      180.000000        1.741148         4    ;  uncertainty k = 0.148939
        11        14        15        49     9        0.000000       -0.226946         1    ;  uncertainty k = 0.381914
        11        14        15        49     9      180.000000        7.648230         2    ;  uncertainty k = 0.403961
        11        14        15        49     9        0.000000        0.669874         3    ;  uncertainty k = 0.181968
        11        14        15        49     9      180.000000        1.201641         4    ;  uncertainty k = 0.104618
        11        14        34        18     9        0.000000        0.279166         1    ;  uncertainty k = 0.321565
        11        14        34        18     9      180.000000        8.837917         2    ;  uncertainty k = 0.475965
        11        14        34        18     9        0.000000        1.187740         3    ;  uncertainty k = 0.267359
        11        14        34        18     9      180.000000        1.682796         4    ;  uncertainty k = 0.105273
        11        14        34        60     9        0.000000       -0.127594         1    ;  uncertainty k = 0.220580
        11        14        34        60     9      180.000000        7.665701         2    ;  uncertainty k = 0.373040
        11        14        34        60     9        0.000000        0.717375         3    ;  uncertainty k = 0.167858
        11        14        34        60     9      180.000000        1.266451         4    ;  uncertainty k = 0.117304
        12        11        14        15     9        0.000000        0.480083         1    ;  uncertainty k = 0.594424
        12        11        14        15     9      180.000000        4.691411         2    ;  uncertainty k = 0.172266
        12        11        14        15     9        0.000000        0.515016         3    ;  uncertainty k = 0.136638
        12        11        14        15     9      180.000000        0.033086         4    ;  uncertainty k = 0.042749
        12        11        14        34     9        0.000000        0.460215         1    ;  uncertainty k = 0.593511
        12        11        14        34     9      180.000000        4.674515         2    ;  uncertainty k = 0.148568
        12        11        14        34     9        0.000000        0.513355         3    ;  uncertainty k = 0.124842
        12        11        14        34     9      180.000000        0.023824         4    ;  uncertainty k = 0.044346
        13         8         9        47     9        0.000000       -0.499514         1    ;  uncertainty k = 0.489777
        13         8         9        47     9      180.000000        3.941066         2    ;  uncertainty k = 1.348309
        13         8         9        47     9        0.000000        0.782236         3    ;  uncertainty k = 0.096981
        13         8         9        47     9      180.000000        1.097834         4    ;  uncertainty k = 0.213078
        13        12        11        14     9        0.000000       -0.039226         1    ;  uncertainty k = 1.013980
        13        12        11        14     9      180.000000       11.598509         2    ;  uncertainty k = 0.430460
        13        12        11        14     9        0.000000        2.081244         3    ;  uncertainty k = 0.284752
        13        12        11        14     9      180.000000        1.038847         4    ;  uncertainty k = 0.398591
        14        15        16        17     9        0.000000       -0.088013         1    ;  uncertainty k = 0.116954
        14        15        16        17     9      180.000000       13.336527         2    ;  uncertainty k = 0.272806
        14        15        16        17     9        0.000000       -0.705599         3    ;  uncertainty k = 0.378680
        14        15        16        17     9      180.000000        0.796969         4    ;  uncertainty k = 0.231917
        14        15        16        50     9        0.000000       -0.041389         1    ;  uncertainty k = 0.161787
        14        15        16        50     9      180.000000        7.886651         2    ;  uncertainty k = 0.569640
        14        15        16        50     9        0.000000        1.380915         3    ;  uncertainty k = 0.236624
        14        15        16        50     9      180.000000        1.750717         4    ;  uncertainty k = 0.174637
        14        34        18        17     9        0.000000       -0.291846         1    ;  uncertainty k = 0.244096
        14        34        18        17     9      180.000000       10.704492         2    ;  uncertainty k = 0.719215
        14        34        18        17     9        0.000000       -0.107596         3    ;  uncertainty k = 0.114190
        14        34        18        17     9      180.000000        1.012333         4    ;  uncertainty k = 0.477813
        14        34        18        19     9        0.000000        0.118765         1    ;  uncertainty k = 0.282849
        14        34        18        19     9      180.000000        9.675914         2    ;  uncertainty k = 0.673834
        14        34        18        19     9        0.000000        1.284044         3    ;  uncertainty k = 0.243148
        14        34        18        19     9      180.000000        1.626378         4    ;  uncertainty k = 0.321831
        15        14        34        18     9        0.000000        0.048057         1    ;  uncertainty k = 0.220108
        15        14        34        18     9      180.000000       10.093092         2    ;  uncertainty k = 0.340528
        15        14        34        18     9        0.000000       -0.353064         3    ;  uncertainty k = 0.243860
        15        14        34        18     9      180.000000        1.031206         4    ;  uncertainty k = 0.212000
        15        14        34        60     9        0.000000        0.354885         1    ;  uncertainty k = 0.112927
        15        14        34        60     9      180.000000        7.246114         2    ;  uncertainty k = 0.602096
        15        14        34        60     9        0.000000        1.301880         3    ;  uncertainty k = 0.265984
        15        14        34        60     9      180.000000        1.658007         4    ;  uncertainty k = 0.260696
        15        16        17        18     9        0.000000       -0.198149         1    ;  uncertainty k = 0.198431
        15        16        17        18     9      180.000000       13.546945         2    ;  uncertainty k = 0.336772
        15        16        17        18     9        0.000000       -0.836209         3    ;  uncertainty k = 0.420103
        15        16        17        18     9      180.000000        0.757475         4    ;  uncertainty k = 0.245679
        15        16        17        51     9        0.000000        0.056861         1    ;  uncertainty k = 0.128735
        15        16        17        51     9      180.000000        7.661115         2    ;  uncertainty k = 0.430435
        15        16        17        51     9        0.000000        1.432914         3    ;  uncertainty k = 0.237270
        15        16        17        51     9      180.000000        1.776467         4    ;  uncertainty k = 0.116766
        16        15        14        34     9        0.000000        0.024908         1    ;  uncertainty k = 0.222943
        16        15        14        34     9      180.000000       10.946210         2    ;  uncertainty k = 0.223707
        16        15        14        34     9        0.000000       -0.601144         3    ;  uncertainty k = 0.171401
        16        15        14        34     9      180.000000        0.902860         4    ;  uncertainty k = 0.223031
        16        17        18        19     9        0.000000        0.224490         1    ;  uncertainty k = 0.225258
        16        17        18        19     9      180.000000        9.771506         2    ;  uncertainty k = 0.581586
        16        17        18        19     9        0.000000        1.297805         3    ;  uncertainty k = 0.327208
        16        17        18        19     9      180.000000        1.799937         4    ;  uncertainty k = 0.234903
        16        17        18        34     9        0.000000       -0.215688         1    ;  uncertainty k = 0.137644
        16        17        18        34     9      180.000000       11.477600         2    ;  uncertainty k = 0.433454
        16        17        18        34     9        0.000000       -0.531144         3    ;  uncertainty k = 0.269026
        16        17        18        34     9      180.000000        0.839994         4    ;  uncertainty k = 0.394476
        17        16        15        49     9        0.000000        0.032234         1    ;  uncertainty k = 0.139810
        17        16        15        49     9      180.000000        7.347840         2    ;  uncertainty k = 0.261637
        17        16        15        49     9        0.000000        1.375633         3    ;  uncertainty k = 0.194678
        17        16        15        49     9      180.000000        1.836254         4    ;  uncertainty k = 0.206650
        17        18        19        20     9        0.000000        1.872177         1    ;  uncertainty k = 0.800661
        17        18        19        20     9      180.000000        2.343492         2    ;  uncertainty k = 0.316385
        17        18        19        20     9        0.000000        0.624301         3    ;  uncertainty k = 0.152598
        17        18        19        20     9      180.000000        0.095646         4    ;  uncertainty k = 0.049875
        17        18        19        52     9        0.000000       -0.527351         1    ;  uncertainty k = 0.230407
        17        18        19        52     9      180.000000        2.024930         2    ;  uncertainty k = 0.120208
        17        18        19        52     9        0.000000        0.504962         3    ;  uncertainty k = 0.061192
        17        18        19        52     9      180.000000        0.145045         4    ;  uncertainty k = 0.047061
        17        18        19        53     9        0.000000       -0.527351         1    ;  uncertainty k = 0.230407
        17        18        19        53     9      180.000000        2.024930         2    ;  uncertainty k = 0.120208
        17        18        19        53     9        0.000000        0.504962         3    ;  uncertainty k = 0.061192
        17        18        19        53     9      180.000000        0.145045         4    ;  uncertainty k = 0.047061
        17        18        34        60     9        0.000000        0.202167         1    ;  uncertainty k = 0.173865
        17        18        34        60     9      180.000000        7.402416         2    ;  uncertainty k = 0.589117
        17        18        34        60     9        0.000000        1.310845         3    ;  uncertainty k = 0.225603
        17        18        34        60     9      180.000000        1.667004         4    ;  uncertainty k = 0.181393
        18        17        16        50     9        0.000000        0.034904         1    ;  uncertainty k = 0.206612
        18        17        16        50     9      180.000000        7.538890         2    ;  uncertainty k = 0.336444
        18        17        16        50     9        0.000000        1.380116         3    ;  uncertainty k = 0.190288
        18        17        16        50     9      180.000000        1.793403         4    ;  uncertainty k = 0.112527
        18        19        20        21     9        0.000000        0.436874         1    ;  uncertainty k = 0.691879
        18        19        20        21     9      180.000000        0.068826         2    ;  uncertainty k = 0.314386
        18        19        20        21     9        0.000000        0.773356         3    ;  uncertainty k = 0.370061
        18        19        20        21     9      180.000000        0.186066         4    ;  uncertainty k = 0.072048
        18        19        20        25     9        0.000000        1.507109         1    ;  uncertainty k = 0.389924
        18        19        20        25     9      180.000000       -0.022659         2    ;  uncertainty k = 0.137066
        18        19        20        25     9        0.000000        0.224963         3    ;  uncertainty k = 0.239203
        18        19        20        25     9      180.000000        0.248492         4    ;  uncertainty k = 0.123687
        19        18        17        51     9        0.000000        0.024907         1    ;  uncertainty k = 0.237816
        19        18        17        51     9      180.000000        7.591234         2    ;  uncertainty k = 0.209683
        19        18        17        51     9        0.000000        0.605780         3    ;  uncertainty k = 0.275316
        19        18        17        51     9      180.000000        1.047429         4    ;  uncertainty k = 0.187217
        19        18        34        60     9        0.000000       -0.028493         1    ;  uncertainty k = 0.275424
        19        18        34        60     9      180.000000        7.704184         2    ;  uncertainty k = 0.344091
        19        18        34        60     9        0.000000        0.555185         3    ;  uncertainty k = 0.312928
        19        18        34        60     9      180.000000        1.094336         4    ;  uncertainty k = 0.153018
        19        20        21        22     9        0.000000       -0.878197         1    ;  uncertainty k = 4.176565
        19        20        21        22     9      180.000000       12.781558         2    ;  uncertainty k = 0.811812
        19        20        21        22     9        0.000000        1.840577         3    ;  uncertainty k = 0.944800
        19        20        21        22     9      180.000000        0.119109         4    ;  uncertainty k = 0.410955
        19        20        25        24     9        0.000000        0.634210         1    ;  uncertainty k = 1.109144
        19        20        25        24     9      180.000000        7.729793         2    ;  uncertainty k = 0.355043
        19        20        25        24     9        0.000000        1.756335         3    ;  uncertainty k = 0.398207
        19        20        25        24     9      180.000000       -0.228898         4    ;  uncertainty k = 0.310569
        19        20        25        26     9        0.000000        0.936357         1    ;  uncertainty k = 1.270753
        19        20        25        26     9      180.000000       11.759401         2    ;  uncertainty k = 0.389288
        19        20        25        26     9        0.000000        0.652543         3    ;  uncertainty k = 0.132949
        19        20        25        26     9      180.000000       -0.183661         4    ;  uncertainty k = 0.344177
        20        19        18        34     9        0.000000        1.978359         1    ;  uncertainty k = 0.908936
        20        19        18        34     9      180.000000        2.263896         2    ;  uncertainty k = 0.392653
        20        19        18        34     9        0.000000        0.571494         3    ;  uncertainty k = 0.238358
        20        19        18        34     9      180.000000        0.100637         4    ;  uncertainty k = 0.060188
        20        21        22        23     9        0.000000        0.185498         1    ;  uncertainty k = 0.778198
        20        21        22        23     9      180.000000       24.569446         2    ;  uncertainty k = 0.180453
        20        21        22        23     9        0.000000        1.991649         3    ;  uncertainty k = 0.580181
        20        21        22        23     9      180.000000        0.704261         4    ;  uncertainty k = 0.277712
        20        21        22        27     9        0.000000       -0.074990         1    ;  uncertainty k = 0.584331
        20        21        22        27     9      180.000000       25.561481         2    ;  uncertainty k = 0.223108
        20        21        22        27     9        0.000000        2.937664         3    ;  uncertainty k = 0.131830
        20        21        22        27     9      180.000000        0.699542         4    ;  uncertainty k = 0.573776
        20        25        24        23     9        0.000000        0.419278         1    ;  uncertainty k = 2.274473
        20        25        24        23     9      180.000000        1.605236         2    ;  uncertainty k = 0.697545
        20        25        24        23     9        0.000000       -0.163994         3    ;  uncertainty k = 0.200172
        20        25        24        23     9      180.000000        0.325528         4    ;  uncertainty k = 0.077908
        20        25        24        55     9        0.000000       -1.120179         1    ;  uncertainty k = 2.456073
        20        25        24        55     9      180.000000        2.364370         2    ;  uncertainty k = 0.329357
        20        25        24        55     9        0.000000        0.459246         3    ;  uncertainty k = 0.206811
        20        25        24        55     9      180.000000        0.273913         4    ;  uncertainty k = 0.151693
        21        20        19        52     9        0.000000        0.383410         1    ;  uncertainty k = 0.534068
        21        20        19        52     9      180.000000        1.169990         2    ;  uncertainty k = 0.403949
        21        20        19        52     9        0.000000        0.582239         3    ;  uncertainty k = 0.072428
        21        20        19        52     9      180.000000        0.242244         4    ;  uncertainty k = 0.129086
        21        20        19        53     9        0.000000        0.383410         1    ;  uncertainty k = 0.534068
        21        20        19        53     9      180.000000        1.169990         2    ;  uncertainty k = 0.403949
        21        20        19        53     9        0.000000        0.582239         3    ;  uncertainty k = 0.072428
        21        20        19        53     9      180.000000        0.242244         4    ;  uncertainty k = 0.129086
        21        20        25        24     9        0.000000        2.898929         1    ;  uncertainty k = 2.397583
        21        20        25        24     9      180.000000        2.029916         2    ;  uncertainty k = 0.771883
        21        20        25        24     9        0.000000        1.223010         3    ;  uncertainty k = 0.519452
        21        20        25        24     9      180.000000        0.577304         4    ;  uncertainty k = 0.261783
        21        20        25        26     9        0.000000        2.605133         1    ;  uncertainty k = 1.172602
        21        20        25        26     9      180.000000       10.822449         2    ;  uncertainty k = 0.452983
        21        20        25        26     9        0.000000        1.231348         3    ;  uncertainty k = 0.502016
        21        20        25        26     9      180.000000       -0.281985         4    ;  uncertainty k = 0.368205
        21        22        23        24     9        0.000000        0.346029         1    ;  uncertainty k = 1.385816
        21        22        23        24     9      180.000000        4.402726         2    ;  uncertainty k = 0.772462
        21        22        23        24     9        0.000000        0.212283         3    ;  uncertainty k = 0.455327
        21        22        23        24     9      180.000000        0.599876         4    ;  uncertainty k = 0.185752
        21        22        23        54     9        0.000000       -0.979411         1    ;  uncertainty k = 0.799322
        21        22        23        54     9      180.000000        4.559461         2    ;  uncertainty k = 0.825012
        21        22        23        54     9        0.000000        0.754967         3    ;  uncertainty k = 0.441381
        21        22        23        54     9      180.000000        0.505116         4    ;  uncertainty k = 0.168049
        21        22        27        28     9        0.000000        0.751251         1    ;  uncertainty k = 0.874956
        21        22        27        28     9      180.000000        4.407978         2    ;  uncertainty k = 0.250396
        21        22        27        28     9        0.000000        0.231905         3    ;  uncertainty k = 0.243022
        21        22        27        28     9      180.000000       -0.035544         4    ;  uncertainty k = 0.095029
        21        22        27        33     9        0.000000        0.357127         1    ;  uncertainty k = 0.926635
        21        22        27        33     9      180.000000        4.410068         2    ;  uncertainty k = 0.281271
        21        22        27        33     9        0.000000        0.266635         3    ;  uncertainty k = 0.211656
        21        22        27        33     9      180.000000       -0.023748         4    ;  uncertainty k = 0.101474
        22        21        20        25     9        0.000000        3.775557         1    ;  uncertainty k = 2.504206
        22        21        20        25     9      180.000000        4.728526         2    ;  uncertainty k = 1.323720
        22        21        20        25     9        0.000000        1.836472         3    ;  uncertainty k = 0.694284
        22        21        20        25     9      180.000000        0.365100         4    ;  uncertainty k = 0.592538
        22        23        24        25     9        0.000000       -0.239064         1    ;  uncertainty k = 0.717880
        22        23        24        25     9      180.000000       17.787076         2    ;  uncertainty k = 0.317728
        22        23        24        25     9        0.000000        0.667702         3    ;  uncertainty k = 0.428973
        22        23        24        25     9      180.000000        0.996332         4    ;  uncertainty k = 0.365124
        22        23        24        55     9        0.000000       -0.359917         1    ;  uncertainty k = 0.791859
        22        23        24        55     9      180.000000       16.615443         2    ;  uncertainty k = 0.651637
        22        23        24        55     9        0.000000        1.944460         3    ;  uncertainty k = 0.314079
        22        23        24        55     9      180.000000        1.163802         4    ;  uncertainty k = 0.581987
        22        27        28        29     9        0.000000        0.207703         1    ;  uncertainty k = 0.246572
        22        27        28        29     9      180.000000        9.104577         2    ;  uncertainty k = 0.359977
        22        27        28        29     9        0.000000        1.269496         3    ;  uncertainty k = 0.167482
        22        27        28        29     9      180.000000        1.690979         4    ;  uncertainty k = 0.193221
        22        27        28        56     9        0.000000       -0.093497         1    ;  uncertainty k = 0.393240
        22        27        28        56     9      180.000000        7.295017         2    ;  uncertainty k = 0.445765
        22        27        28        56     9        0.000000        0.680085         3    ;  uncertainty k = 0.232866
        22        27        28        56     9      180.000000        1.096721         4    ;  uncertainty k = 0.202649
        22        27        33        31     9        0.000000        0.197498         1    ;  uncertainty k = 0.283245
        22        27        33        31     9      180.000000        9.119051         2    ;  uncertainty k = 0.476332
        22        27        33        31     9        0.000000        1.387902         3    ;  uncertainty k = 0.164588
        22        27        33        31     9      180.000000        1.753147         4    ;  uncertainty k = 0.148552
        22        27        33        59     9        0.000000       -0.181582         1    ;  uncertainty k = 0.350966
        22        27        33        59     9      180.000000        7.173583         2    ;  uncertainty k = 0.373684
        22        27        33        59     9        0.000000        0.656411         3    ;  uncertainty k = 0.287297
        22        27        33        59     9      180.000000        1.075027         4    ;  uncertainty k = 0.227307
        23        22        27        28     9        0.000000       -0.107833         1    ;  uncertainty k = 0.640755
        23        22        27        28     9      180.000000        3.963339         2    ;  uncertainty k = 0.199940
        23        22        27        28     9        0.000000        0.655053         3    ;  uncertainty k = 0.194924
        23        22        27        28     9      180.000000       -0.168255         4    ;  uncertainty k = 0.088804
        23        22        27        33     9        0.000000        0.135881         1    ;  uncertainty k = 0.777215
        23        22        27        33     9      180.000000        3.887888         2    ;  uncertainty k = 0.154799
        23        22        27        33     9        0.000000        0.621065         3    ;  uncertainty k = 0.170721
        23        22        27        33     9      180.000000       -0.158860         4    ;  uncertainty k = 0.078800
        23        24        25        26     9        0.000000       -2.001816         1    ;  uncertainty k = 1.317032
        23        24        25        26     9      180.000000        3.389786         2    ;  uncertainty k = 0.746169
        23        24        25        26     9        0.000000       -0.174173         3    ;  uncertainty k = 0.227865
        23        24        25        26     9      180.000000        0.016096         4    ;  uncertainty k = 0.112368
        24        23        22        27     9        0.000000        0.515286         1    ;  uncertainty k = 0.820754
        24        23        22        27     9      180.000000        4.591211         2    ;  uncertainty k = 0.963782
        24        23        22        27     9        0.000000        0.705849         3    ;  uncertainty k = 0.344272
        24        23        22        27     9      180.000000        0.576473         4    ;  uncertainty k = 0.277769
        25        20        19        52     9        0.000000       -0.473768         1    ;  uncertainty k = 0.528512
        25        20        19        52     9      180.000000        1.255511         2    ;  uncertainty k = 0.273074
        25        20        19        52     9        0.000000        0.779238         3    ;  uncertainty k = 0.054623
        25        20        19        52     9      180.000000        0.411931         4    ;  uncertainty k = 0.034525
        25        20        19        53     9        0.000000       -0.473768         1    ;  uncertainty k = 0.528512
        25        20        19        53     9      180.000000        1.255511         2    ;  uncertainty k = 0.273074
        25        20        19        53     9        0.000000        0.779238         3    ;  uncertainty k = 0.054623
        25        20        19        53     9      180.000000        0.411931         4    ;  uncertainty k = 0.034525
        25        24        23        54     9        0.000000       -0.328809         1    ;  uncertainty k = 0.661921
        25        24        23        54     9      180.000000       15.838400         2    ;  uncertainty k = 0.436273
        25        24        23        54     9        0.000000        1.792267         3    ;  uncertainty k = 0.273244
        25        24        23        54     9      180.000000        1.039596         4    ;  uncertainty k = 0.351736
        26        25        24        55     9        0.000000       -3.368927         1    ;  uncertainty k = 1.838218
        26        25        24        55     9      180.000000        6.946407         2    ;  uncertainty k = 0.848337
        26        25        24        55     9        0.000000        0.461531         3    ;  uncertainty k = 0.415057
        26        25        24        55     9      180.000000       -0.155191         4    ;  uncertainty k = 0.180479
        27        22        23        54     9        0.000000       -0.582031         1    ;  uncertainty k = 1.082094
        27        22        23        54     9      180.000000        5.172770         2    ;  uncertainty k = 0.413515
        27        22        23        54     9        0.000000        1.048146         3    ;  uncertainty k = 0.188079
        27        22        23        54     9      180.000000        0.360862         4    ;  uncertainty k = 0.151205
        27        28        29        30     9        0.000000       -0.054379         1    ;  uncertainty k = 0.114831
        27        28        29        30     9      180.000000       14.043487         2    ;  uncertainty k = 0.287366
        27        28        29        30     9        0.000000       -0.920114         3    ;  uncertainty k = 0.355917
        27        28        29        30     9      180.000000        0.679170         4    ;  uncertainty k = 0.288161
        27        28        29        57     9        0.000000        0.079899         1    ;  uncertainty k = 0.144105
        27        28        29        57     9      180.000000        7.561690         2    ;  uncertainty k = 0.313534
        27        28        29        57     9        0.000000        1.447877         3    ;  uncertainty k = 0.245088
        27        28        29        57     9      180.000000        1.841285         4    ;  uncertainty k = 0.133814
        27        33        31        30     9        0.000000        0.066699         1    ;  uncertainty k = 0.181426
        27        33        31        30     9      180.000000        8.743355         2    ;  uncertainty k = 0.692975
        27        33        31        30     9        0.000000       -0.038041         3    ;  uncertainty k = 0.290423
        27        33        31        30     9      180.000000        1.231609         4    ;  uncertainty k = 0.351132
        27        33        31        32     9        0.000000       -0.052273         1    ;  uncertainty k = 0.189670
        27        33        31        32     9      180.000000       12.798406         2    ;  uncertainty k = 0.479738
        27        33        31        32     9        0.000000        1.531761         3    ;  uncertainty k = 0.285453
        27        33        31        32     9      180.000000        1.461731         4    ;  uncertainty k = 0.187178
        28        27        33        31     9        0.000000        0.095474         1    ;  uncertainty k = 0.202256
        28        27        33        31     9      180.000000       11.113098         2    ;  uncertainty k = 0.274736
        28        27        33        31     9        0.000000       -0.499589         3    ;  uncertainty k = 0.334422
        28        27        33        31     9      180.000000        1.012940         4    ;  uncertainty k = 0.270358
        28        27        33        59     9        0.000000        0.231706         1    ;  uncertainty k = 0.151692
        28        27        33        59     9      180.000000        6.846924         2    ;  uncertainty k = 0.526919
        28        27        33        59     9        0.000000        1.448691         3    ;  uncertainty k = 0.223777
        28        27        33        59     9      180.000000        1.684669         4    ;  uncertainty k = 0.247259
        28        29        30        31     9        0.000000       -0.110022         1    ;  uncertainty k = 0.183935
        28        29        30        31     9      180.000000       14.424898         2    ;  uncertainty k = 0.226245
        28        29        30        31     9        0.000000       -0.970773         3    ;  uncertainty k = 0.508553
        28        29        30        31     9      180.000000        0.735440         4    ;  uncertainty k = 0.196593
        28        29        30        58     9        0.000000        0.097984         1    ;  uncertainty k = 0.059040
        28        29        30        58     9      180.000000        7.429510         2    ;  uncertainty k = 0.317841
        28        29        30        58     9        0.000000        1.538425         3    ;  uncertainty k = 0.263060
        28        29        30        58     9      180.000000        1.790081         4    ;  uncertainty k = 0.133513
        29        28        27        33     9        0.000000       -0.087900         1    ;  uncertainty k = 0.140977
        29        28        27        33     9      180.000000       11.180006         2    ;  uncertainty k = 0.289888
        29        28        27        33     9        0.000000       -0.593199         3    ;  uncertainty k = 0.266213
        29        28        27        33     9      180.000000        0.890038         4    ;  uncertainty k = 0.256894
        29        30        31        32     9        0.000000       -0.046282         1    ;  uncertainty k = 0.365667
        29        30        31        32     9      180.000000       12.485758         2    ;  uncertainty k = 0.661190
        29        30        31        32     9        0.000000        1.452823         3    ;  uncertainty k = 0.294667
        29        30        31        32     9      180.000000        1.489590         4    ;  uncertainty k = 0.280374
        29        30        31        33     9        0.000000        0.051586         1    ;  uncertainty k = 0.171476
        29        30        31        33     9      180.000000        9.443654         2    ;  uncertainty k = 0.497274
        29        30        31        33     9        0.000000       -0.148024         3    ;  uncertainty k = 0.450011
        29        30        31        33     9      180.000000        1.127113         4    ;  uncertainty k = 0.329143
        30        29        28        56     9        0.000000        0.064569         1    ;  uncertainty k = 0.034490
        30        29        28        56     9      180.000000        7.888416         2    ;  uncertainty k = 0.214457
        30        29        28        56     9        0.000000        1.424914         3    ;  uncertainty k = 0.268748
        30        29        28        56     9      180.000000        1.908212         4    ;  uncertainty k = 0.175014
        30        31        33        59     9        0.000000        0.054205         1    ;  uncertainty k = 0.173774
        30        31        33        59     9      180.000000        5.785238         2    ;  uncertainty k = 0.632269
        30        31        33        59     9        0.000000        1.303444         3    ;  uncertainty k = 0.287897
        30        31        33        59     9      180.000000        1.635562         4    ;  uncertainty k = 0.170805
        31        30        29        57     9        0.000000       -0.067692         1    ;  uncertainty k = 0.123117
        31        30        29        57     9      180.000000        7.613208         2    ;  uncertainty k = 0.369861
        31        30        29        57     9        0.000000        1.386609         3    ;  uncertainty k = 0.277041
        31        30        29        57     9      180.000000        1.770220         4    ;  uncertainty k = 0.174301
        32        31        30        58     9        0.000000       -0.312122         1    ;  uncertainty k = 0.232950
        32        31        30        58     9      180.000000        8.833438         2    ;  uncertainty k = 0.281035
        32        31        30        58     9        0.000000        0.774751         3    ;  uncertainty k = 0.235714
        32        31        30        58     9      180.000000        0.929474         4    ;  uncertainty k = 0.136767
        32        31        33        59     9        0.000000       -0.404302         1    ;  uncertainty k = 0.228410
        32        31        33        59     9      180.000000        9.078231         2    ;  uncertainty k = 0.370144
        32        31        33        59     9        0.000000        0.806562         3    ;  uncertainty k = 0.209266
        32        31        33        59     9      180.000000        1.059223         4    ;  uncertainty k = 0.209337
        33        27        28        56     9        0.000000        0.106168         1    ;  uncertainty k = 0.225344
        33        27        28        56     9      180.000000        6.951255         2    ;  uncertainty k = 0.544825
        33        27        28        56     9        0.000000        1.415987         3    ;  uncertainty k = 0.171727
        33        27        28        56     9      180.000000        1.687535         4    ;  uncertainty k = 0.250222
        33        31        30        58     9        0.000000        0.048541         1    ;  uncertainty k = 0.119940
        33        31        30        58     9      180.000000        5.553610         2    ;  uncertainty k = 0.653146
        33        31        30        58     9        0.000000        1.267049         3    ;  uncertainty k = 0.302965
        33        31        30        58     9      180.000000        1.495227         4    ;  uncertainty k = 0.114995
        34        14        15        49     9        0.000000        0.242999         1    ;  uncertainty k = 0.116871
        34        14        15        49     9      180.000000        7.003599         2    ;  uncertainty k = 0.458506
        34        14        15        49     9        0.000000        1.292743         3    ;  uncertainty k = 0.255453
        34        14        15        49     9      180.000000        1.631587         4    ;  uncertainty k = 0.270966
        34        18        17        51     9        0.000000        0.259376         1    ;  uncertainty k = 0.177207
        34        18        17        51     9      180.000000        7.185689         2    ;  uncertainty k = 0.664902
        34        18        17        51     9        0.000000        1.407610         3    ;  uncertainty k = 0.323470
        34        18        17        51     9      180.000000        1.653410         4    ;  uncertainty k = 0.179617
        34        18        19        52     9        0.000000       -0.467501         1    ;  uncertainty k = 0.342458
        34        18        19        52     9      180.000000        1.866854         2    ;  uncertainty k = 0.132943
        34        18        19        52     9        0.000000        0.468388         3    ;  uncertainty k = 0.097662
        34        18        19        52     9      180.000000        0.149866         4    ;  uncertainty k = 0.032014
        34        18        19        53     9        0.000000       -0.467501         1    ;  uncertainty k = 0.342458
        34        18        19        53     9      180.000000        1.866854         2    ;  uncertainty k = 0.132943
        34        18        19        53     9        0.000000        0.468388         3    ;  uncertainty k = 0.097662
        34        18        19        53     9      180.000000        0.149866         4    ;  uncertainty k = 0.032014
        35         1         2        61     9        0.000000        0.051179         1    ;  uncertainty k = 0.508164
        35         1         2        61     9      180.000000       -0.572991         2    ;  uncertainty k = 0.412864
        35         1         2        61     9        0.000000        0.376089         3    ;  uncertainty k = 0.057152
        35         1         2        61     9      180.000000        0.081725         4    ;  uncertainty k = 0.106528
        36         1         2        61     9        0.000000        0.051179         1    ;  uncertainty k = 0.508164
        36         1         2        61     9      180.000000       -0.572991         2    ;  uncertainty k = 0.412864
        36         1         2        61     9        0.000000        0.376089         3    ;  uncertainty k = 0.057152
        36         1         2        61     9      180.000000        0.081725         4    ;  uncertainty k = 0.106528
        37         1         2        61     9        0.000000        0.051179         1    ;  uncertainty k = 0.508164
        37         1         2        61     9      180.000000       -0.572991         2    ;  uncertainty k = 0.412864
        37         1         2        61     9        0.000000        0.376089         3    ;  uncertainty k = 0.057152
        37         1         2        61     9      180.000000        0.081725         4    ;  uncertainty k = 0.106528
        38         3         2        61     9        0.000000        0.051179         1    ;  uncertainty k = 0.508164
        38         3         2        61     9      180.000000       -0.572991         2    ;  uncertainty k = 0.412864
        38         3         2        61     9        0.000000        0.376089         3    ;  uncertainty k = 0.057152
        38         3         2        61     9      180.000000        0.081725         4    ;  uncertainty k = 0.106528
        39         3         2        61     9        0.000000        0.051179         1    ;  uncertainty k = 0.508164
        39         3         2        61     9      180.000000       -0.572991         2    ;  uncertainty k = 0.412864
        39         3         2        61     9        0.000000        0.376089         3    ;  uncertainty k = 0.057152
        39         3         2        61     9      180.000000        0.081725         4    ;  uncertainty k = 0.106528
        40         3         2        61     9        0.000000        0.051179         1    ;  uncertainty k = 0.508164
        40         3         2        61     9      180.000000       -0.572991         2    ;  uncertainty k = 0.412864
        40         3         2        61     9        0.000000        0.376089         3    ;  uncertainty k = 0.057152
        40         3         2        61     9      180.000000        0.081725         4    ;  uncertainty k = 0.106528
        41         4         2        61     9        0.000000        0.900144         1    ;  uncertainty k = 0.580618
        41         4         2        61     9      180.000000       -0.586376         2    ;  uncertainty k = 0.270793
        41         4         2        61     9        0.000000       -0.005709         3    ;  uncertainty k = 0.197915
        41         4         2        61     9      180.000000       -0.037529         4    ;  uncertainty k = 0.093442
        41         4         5        43     9        0.000000        0.482526         1    ;  uncertainty k = 0.350610
        41         4         5        43     9      180.000000       -0.037011         2    ;  uncertainty k = 0.360522
        41         4         5        43     9        0.000000        0.148871         3    ;  uncertainty k = 0.108990
        41         4         5        43     9      180.000000        0.025944         4    ;  uncertainty k = 0.068041
        41         4         5        44     9        0.000000        0.482526         1    ;  uncertainty k = 0.350610
        41         4         5        44     9      180.000000       -0.037011         2    ;  uncertainty k = 0.360522
        41         4         5        44     9        0.000000        0.148871         3    ;  uncertainty k = 0.108990
        41         4         5        44     9      180.000000        0.025944         4    ;  uncertainty k = 0.068041
        42         4         2        61     9        0.000000        0.900144         1    ;  uncertainty k = 0.580618
        42         4         2        61     9      180.000000       -0.586376         2    ;  uncertainty k = 0.270793
        42         4         2        61     9        0.000000       -0.005709         3    ;  uncertainty k = 0.197915
        42         4         2        61     9      180.000000       -0.037529         4    ;  uncertainty k = 0.093442
        42         4         5        43     9        0.000000        0.482526         1    ;  uncertainty k = 0.350610
        42         4         5        43     9      180.000000       -0.037011         2    ;  uncertainty k = 0.360522
        42         4         5        43     9        0.000000        0.148871         3    ;  uncertainty k = 0.108990
        42         4         5        43     9      180.000000        0.025944         4    ;  uncertainty k = 0.068041
        42         4         5        44     9        0.000000        0.482526         1    ;  uncertainty k = 0.350610
        42         4         5        44     9      180.000000       -0.037011         2    ;  uncertainty k = 0.360522
        42         4         5        44     9        0.000000        0.148871         3    ;  uncertainty k = 0.108990
        42         4         5        44     9      180.000000        0.025944         4    ;  uncertainty k = 0.068041
        43         5         6        45     9        0.000000        0.473335         1    ;  uncertainty k = 0.235192
        43         5         6        45     9      180.000000       -0.199413         2    ;  uncertainty k = 0.275067
        43         5         6        45     9        0.000000        0.227242         3    ;  uncertainty k = 0.089021
        43         5         6        45     9      180.000000        0.031542         4    ;  uncertainty k = 0.022016
        43         5         6        46     9        0.000000        0.473335         1    ;  uncertainty k = 0.235192
        43         5         6        46     9      180.000000       -0.199413         2    ;  uncertainty k = 0.275067
        43         5         6        46     9        0.000000        0.227242         3    ;  uncertainty k = 0.089021
        43         5         6        46     9      180.000000        0.031542         4    ;  uncertainty k = 0.022016
        44         5         6        45     9        0.000000        0.473335         1    ;  uncertainty k = 0.235192
        44         5         6        45     9      180.000000       -0.199413         2    ;  uncertainty k = 0.275067
        44         5         6        45     9        0.000000        0.227242         3    ;  uncertainty k = 0.089021
        44         5         6        45     9      180.000000        0.031542         4    ;  uncertainty k = 0.022016
        44         5         6        46     9        0.000000        0.473335         1    ;  uncertainty k = 0.235192
        44         5         6        46     9      180.000000       -0.199413         2    ;  uncertainty k = 0.275067
        44         5         6        46     9        0.000000        0.227242         3    ;  uncertainty k = 0.089021
        44         5         6        46     9      180.000000        0.031542         4    ;  uncertainty k = 0.022016
        49        15        16        50     9        0.000000       -0.114476         1    ;  uncertainty k = 0.217567
        49        15        16        50     9      180.000000        7.749076         2    ;  uncertainty k = 0.386441
        49        15        16        50     9        0.000000       -0.417170         3    ;  uncertainty k = 0.284412
        49        15        16        50     9      180.000000        0.165522         4    ;  uncertainty k = 0.153515
        50        16        17        51     9        0.000000       -0.204013         1    ;  uncertainty k = 0.108871
        50        16        17        51     9      180.000000        7.603273         2    ;  uncertainty k = 0.277408
        50        16        17        51     9        0.000000       -0.440239         3    ;  uncertainty k = 0.271537
        50        16        17        51     9      180.000000        0.118647         4    ;  uncertainty k = 0.133308
        54        23        24        55     9        0.000000       -0.308549         1    ;  uncertainty k = 0.397502
        54        23        24        55     9      180.000000       12.289337         2    ;  uncertainty k = 0.583478
        54        23        24        55     9        0.000000        1.036027         3    ;  uncertainty k = 0.400452
        54        23        24        55     9      180.000000        0.764718         4    ;  uncertainty k = 0.591319
        56        28        29        57     9        0.000000       -0.139474         1    ;  uncertainty k = 0.225675
        56        28        29        57     9      180.000000        7.881304         2    ;  uncertainty k = 0.384214
        56        28        29        57     9        0.000000       -0.392821         3    ;  uncertainty k = 0.247681
        56        28        29        57     9      180.000000        0.140089         4    ;  uncertainty k = 0.129106
        57        29        30        58     9        0.000000       -0.063690         1    ;  uncertainty k = 0.092431
        57        29        30        58     9      180.000000        7.607954         2    ;  uncertainty k = 0.527942
        57        29        30        58     9        0.000000       -0.422705         3    ;  uncertainty k = 0.276657
        57        29        30        58     9      180.000000        0.026932         4    ;  uncertainty k = 0.165668

[ dihedrals ] ; impropers
;       ai        aj        ak        al funct           phase               k        pn
         8         7         9        13     4      180.000000       16.180895         2    ;  uncertainty k = 0.260885
         8         9        13         7     4      180.000000       16.180895         2    ;  uncertainty k = 0.260885
         8        13         7         9     4      180.000000       16.180895         2    ;  uncertainty k = 0.260885
         9         8        10        47     4      180.000000       13.812368         2    ;  uncertainty k = 0.109184
         9        10        47         8     4      180.000000       13.812368         2    ;  uncertainty k = 0.109184
         9        47         8        10     4      180.000000       13.812368         2    ;  uncertainty k = 0.109184
        11        10        12        14     4      180.000000       34.296173         2    ;  uncertainty k = 0.051725
        11        12        14        10     4      180.000000       34.296173         2    ;  uncertainty k = 0.051725
        11        14        10        12     4      180.000000       34.296173         2    ;  uncertainty k = 0.051725
        13         8        12        48     4      180.000000       13.812368         2    ;  uncertainty k = 0.109184
        13        12        48         8     4      180.000000       13.812368         2    ;  uncertainty k = 0.109184
        13        48         8        12     4      180.000000       13.812368         2    ;  uncertainty k = 0.109184
        14        11        15        34     4      180.000000        9.567886         2    ;  uncertainty k = 0.137648
        14        15        34        11     4      180.000000        9.567886         2    ;  uncertainty k = 0.137648
        14        34        11        15     4      180.000000        9.567886         2    ;  uncertainty k = 0.137648
        15        14        16        49     4      180.000000        4.639722         2    ;  uncertainty k = 0.104777
        15        16        49        14     4      180.000000        4.639722         2    ;  uncertainty k = 0.104777
        15        49        14        16     4      180.000000        4.639722         2    ;  uncertainty k = 0.104777
        16        15        17        50     4      180.000000        3.987254         2    ;  uncertainty k = 0.165460
        16        17        50        15     4      180.000000        3.987254         2    ;  uncertainty k = 0.165460
        16        50        15        17     4      180.000000        3.987254         2    ;  uncertainty k = 0.165460
        17        16        18        51     4      180.000000        4.730527         2    ;  uncertainty k = 0.200294
        17        18        51        16     4      180.000000        4.730527         2    ;  uncertainty k = 0.200294
        17        51        16        18     4      180.000000        4.730527         2    ;  uncertainty k = 0.200294
        18        17        19        34     4      180.000000       11.595324         2    ;  uncertainty k = 0.103518
        18        19        34        17     4      180.000000       11.595324         2    ;  uncertainty k = 0.103518
        18        34        17        19     4      180.000000       11.595324         2    ;  uncertainty k = 0.103518
        20        19        21        25     4      180.000000        4.907151         2    ;  uncertainty k = 0.611201
        20        21        25        19     4      180.000000        4.907151         2    ;  uncertainty k = 0.611201
        20        25        19        21     4      180.000000        4.907151         2    ;  uncertainty k = 0.611201
        22        21        23        27     4      180.000000       17.706390         2    ;  uncertainty k = 0.094355
        22        23        27        21     4      180.000000       17.706390         2    ;  uncertainty k = 0.094355
        22        27        21        23     4      180.000000       17.706390         2    ;  uncertainty k = 0.094355
        23        22        24        54     4      180.000000        6.606682         2    ;  uncertainty k = 0.354466
        23        24        54        22     4      180.000000        6.606682         2    ;  uncertainty k = 0.354466
        23        54        22        24     4      180.000000        6.606682         2    ;  uncertainty k = 0.354466
        24        23        25        55     4      180.000000        3.715532         2    ;  uncertainty k = 0.270488
        24        25        55        23     4      180.000000        3.715532         2    ;  uncertainty k = 0.270488
        24        55        23        25     4      180.000000        3.715532         2    ;  uncertainty k = 0.270488
        25        20        24        26     4      180.000000       49.481395         2    ;  uncertainty k = 0.023227
        25        24        26        20     4      180.000000       49.481395         2    ;  uncertainty k = 0.023227
        25        26        20        24     4      180.000000       49.481395         2    ;  uncertainty k = 0.023227
        27        22        28        33     4      180.000000       11.939586         2    ;  uncertainty k = 0.069980
        27        28        33        22     4      180.000000       11.939586         2    ;  uncertainty k = 0.069980
        27        33        22        28     4      180.000000       11.939586         2    ;  uncertainty k = 0.069980
        28        27        29        56     4      180.000000        3.707523         2    ;  uncertainty k = 0.128297
        28        29        56        27     4      180.000000        3.707523         2    ;  uncertainty k = 0.128297
        28        56        27        29     4      180.000000        3.707523         2    ;  uncertainty k = 0.128297
        29        28        30        57     4      180.000000        4.438786         2    ;  uncertainty k = 0.133552
        29        30        57        28     4      180.000000        4.438786         2    ;  uncertainty k = 0.133552
        29        57        28        30     4      180.000000        4.438786         2    ;  uncertainty k = 0.133552
        30        29        31        58     4      180.000000        2.325550         2    ;  uncertainty k = 0.275515
        30        31        58        29     4      180.000000        2.325550         2    ;  uncertainty k = 0.275515
        30        58        29        31     4      180.000000        2.325550         2    ;  uncertainty k = 0.275515
        31        30        32        33     4      180.000000       16.956931         2    ;  uncertainty k = 0.026752
        31        32        33        30     4      180.000000       16.956931         2    ;  uncertainty k = 0.026752
        31        33        30        32     4      180.000000       16.956931         2    ;  uncertainty k = 0.026752
        33        27        31        59     4      180.000000        2.482097         2    ;  uncertainty k = 0.290022
        33        31        59        27     4      180.000000        2.482097         2    ;  uncertainty k = 0.290022
        33        59        27        31     4      180.000000        2.482097         2    ;  uncertainty k = 0.290022
        34        14        18        60     4      180.000000        5.120075         2    ;  uncertainty k = 0.187807
        34        18        60        14     4      180.000000        5.120075         2    ;  uncertainty k = 0.187807
        34        60        14        18     4      180.000000        5.120075         2    ;  uncertainty k = 0.187807

[ pairs ]
;       ai        aj funct
         1         5     1
         1        38     1
         1        39     1
         1        40     1
         1        41     1
         1        42     1
         2         6     1
         2        43     1
         2        44     1
         3         5     1
         3        35     1
         3        36     1
         3        37     1
         3        41     1
         3        42     1
         4         7     1
         4        35     1
         4        36     1
         4        37     1
         4        38     1
         4        39     1
         4        40     1
         4        45     1
         4        46     1
         5         8     1
         5        61     1
         6         9     1
         6        13     1
         6        41     1
         6        42     1
         7        10     1
         7        12     1
         7        43     1
         7        44     1
         7        47     1
         7        48     1
         8        11     1
         8        45     1
         8        46     1
         9        12     1
         9        14     1
         9        48     1
        10        13     1
        10        15     1
        10        34     1
        11        16     1
        11        18     1
        11        47     1
        11        48     1
        11        49     1
        11        60     1
        12        15     1
        12        34     1
        13        14     1
        13        47     1
        14        17     1
        14        19     1
        14        50     1
        15        18     1
        15        51     1
        15        60     1
        16        19     1
        16        34     1
        17        20     1
        17        49     1
        17        52     1
        17        53     1
        17        60     1
        18        21     1
        18        25     1
        18        50     1
        19        22     1
        19        24     1
        19        26     1
        19        51     1
        19        60     1
        20        23     1
        20        27     1
        20        34     1
        20        55     1
        21        24     1
        21        26     1
        21        28     1
        21        33     1
        21        52     1
        21        53     1
        21        54     1
        22        25     1
        22        29     1
        22        31     1
        22        55     1
        22        56     1
        22        59     1
        23        26     1
        23        28     1
        23        33     1
        24        27     1
        25        52     1
        25        53     1
        25        54     1
        26        55     1
        27        30     1
        27        32     1
        27        54     1
        27        57     1
        28        31     1
        28        58     1
        28        59     1
        29        32     1
        29        33     1
        30        56     1
        30        59     1
        31        57     1
        32        58     1
        32        59     1
        33        56     1
        33        58     1
        34        49     1
        34        51     1
        34        52     1
        34        53     1
        35        61     1
        36        61     1
        37        61     1
        38        61     1
        39        61     1
        40        61     1
        41        43     1
        41        44     1
        41        61     1
        42        43     1
        42        44     1
        42        61     1
        43        45     1
        43        46     1
        44        45     1
        44        46     1
        49        50     1
        50        51     1
        54        55     1
        56        57     1
        57        58     1
