; ITP file created by ByteFF-joint-25, 2026-02-17 09:10:12.054103

[ atomtypes ]
;name           bonded.type        at.num        mass        charge   ptype           sigma         epsilon
 c0bf                                   6      0.0000       0.00000       A     3.31532e-01     4.13259e-01    ;  uncertainty sigma = 0.000010, epsilon = 0.001152
 c1bf                                   6      0.0000       0.00000       A     3.31529e-01     4.13124e-01    ;  uncertainty sigma = 0.000005, epsilon = 0.000775
 n2bf                                   7      0.0000       0.00000       A     3.20594e-01     8.53106e-01    ;  uncertainty sigma = 0.000023, epsilon = 0.001530
 c3bf                                   6      0.0000       0.00000       A     3.31515e-01     4.12894e-01    ;  uncertainty sigma = 0.000017, epsilon = 0.000346
 n4bf                                   7      0.0000       0.00000       A     3.38447e-01     3.93361e-01    ;  uncertainty sigma = 0.000020, epsilon = 0.001063
 c5bf                                   6      0.0000       0.00000       A     3.31513e-01     4.13102e-01    ;  uncertainty sigma = 0.000007, epsilon = 0.000897
 c6bf                                   6      0.0000       0.00000       A     3.31521e-01     4.13402e-01    ;  uncertainty sigma = 0.000004, epsilon = 0.000725
 c7bf                                   6      0.0000       0.00000       A     3.31516e-01     4.13455e-01    ;  uncertainty sigma = 0.000002, epsilon = 0.000625
 c8bf                                   6      0.0000       0.00000       A     3.31517e-01     4.13357e-01    ;  uncertainty sigma = 0.000003, epsilon = 0.000532
 c9bf                                   6      0.0000       0.00000       A     3.31506e-01     4.13423e-01    ;  uncertainty sigma = 0.000004, epsilon = 0.000352
 c10bf                                  6      0.0000       0.00000       A     3.39766e-01     4.50445e-01    ;  uncertainty sigma = 0.000009, epsilon = 0.000437
 n11bf                                  7      0.0000       0.00000       A     3.18130e-01     6.84059e-01    ;  uncertainty sigma = 0.000031, epsilon = 0.002260
 n12bf                                  7      0.0000       0.00000       A     3.38449e-01     3.94403e-01    ;  uncertainty sigma = 0.000019, epsilon = 0.001004
 c13bf                                  6      0.0000       0.00000       A     3.31498e-01     4.13397e-01    ;  uncertainty sigma = 0.000033, epsilon = 0.001041
 c14bf                                  6      0.0000       0.00000       A     3.31517e-01     4.13271e-01    ;  uncertainty sigma = 0.000015, epsilon = 0.000991
 c15bf                                  6      0.0000       0.00000       A     3.31479e-01     4.13326e-01    ;  uncertainty sigma = 0.000018, epsilon = 0.001521
 c16bf                                  6      0.0000       0.00000       A     3.31546e-01     4.13945e-01    ;  uncertainty sigma = 0.000006, epsilon = 0.001637
 o17bf                                  8      0.0000       0.00000       A     3.04802e-01     6.12255e-01    ;  uncertainty sigma = 0.000021, epsilon = 0.001274
 c18bf                                  6      0.0000       0.00000       A     3.31515e-01     4.13249e-01    ;  uncertainty sigma = 0.000015, epsilon = 0.000665
 c19bf                                  6      0.0000       0.00000       A     3.31520e-01     4.13570e-01    ;  uncertainty sigma = 0.000012, epsilon = 0.000687
 c20bf                                  6      0.0000       0.00000       A     3.31510e-01     4.13332e-01    ;  uncertainty sigma = 0.000009, epsilon = 0.000445
 f21bf                                  9      0.0000       0.00000       A     3.03433e-01     3.47910e-01    ;  uncertainty sigma = 0.000006, epsilon = 0.000761
 c22bf                                  6      0.0000       0.00000       A     3.31522e-01     4.13593e-01    ;  uncertainty sigma = 0.000007, epsilon = 0.000737
 c23bf                                  6      0.0000       0.00000       A     3.31510e-01     4.13332e-01    ;  uncertainty sigma = 0.000009, epsilon = 0.000445
 f24bf                                  9      0.0000       0.00000       A     3.03433e-01     3.47910e-01    ;  uncertainty sigma = 0.000006, epsilon = 0.000762
 c25bf                                  6      0.0000       0.00000       A     3.31520e-01     4.13570e-01    ;  uncertainty sigma = 0.000012, epsilon = 0.000687
 c26bf                                  6      0.0000       0.00000       A     3.31522e-01     4.13314e-01    ;  uncertainty sigma = 0.000007, epsilon = 0.000773
 c27bf                                  6      0.0000       0.00000       A     3.39768e-01     4.50693e-01    ;  uncertainty sigma = 0.000011, epsilon = 0.000575
 h28bf                                  1      0.0000       0.00000       A     1.10617e-01     4.13685e-02    ;  uncertainty sigma = 0.000074, epsilon = 0.000661
 h29bf                                  1      0.0000       0.00000       A     2.62562e-01     6.70328e-02    ;  uncertainty sigma = 0.000009, epsilon = 0.000495
 h30bf                                  1      0.0000       0.00000       A     2.62563e-01     6.70164e-02    ;  uncertainty sigma = 0.000010, epsilon = 0.000415
 h31bf                                  1      0.0000       0.00000       A     2.62563e-01     6.70958e-02    ;  uncertainty sigma = 0.000006, epsilon = 0.000591
 h32bf                                  1      0.0000       0.00000       A     2.42236e-01     8.69097e-02    ;  uncertainty sigma = 0.000033, epsilon = 0.000580
 h33bf                                  1      0.0000       0.00000       A     2.42236e-01     8.69097e-02    ;  uncertainty sigma = 0.000033, epsilon = 0.000580
 h34bf                                  1      0.0000       0.00000       A     2.62549e-01     6.67404e-02    ;  uncertainty sigma = 0.000015, epsilon = 0.000444
 h35bf                                  1      0.0000       0.00000       A     2.62519e-01     6.70320e-02    ;  uncertainty sigma = 0.000024, epsilon = 0.000745
 h36bf                                  1      0.0000       0.00000       A     2.62551e-01     6.70389e-02    ;  uncertainty sigma = 0.000014, epsilon = 0.000667
 h37bf                                  1      0.0000       0.00000       A     2.62567e-01     6.73686e-02    ;  uncertainty sigma = 0.000010, epsilon = 0.000382
 h38bf                                  1      0.0000       0.00000       A     2.62551e-01     6.70389e-02    ;  uncertainty sigma = 0.000014, epsilon = 0.000667
 h39bf                                  1      0.0000       0.00000       A     2.62558e-01     6.70643e-02    ;  uncertainty sigma = 0.000011, epsilon = 0.000732
 h40bf                                  1      0.0000       0.00000       A     2.53611e-01     6.69050e-02    ;  uncertainty sigma = 0.000033, epsilon = 0.000527
 h41bf                                  1      0.0000       0.00000       A     2.60036e-01     8.68610e-02    ;  uncertainty sigma = 0.000008, epsilon = 0.000377
 h42bf                                  1      0.0000       0.00000       A     2.60036e-01     8.68610e-02    ;  uncertainty sigma = 0.000008, epsilon = 0.000377
 h43bf                                  1      0.0000       0.00000       A     2.60036e-01     8.68610e-02    ;  uncertainty sigma = 0.000008, epsilon = 0.000377

[ moleculetype ]
;name             nrexcl
 MOL                   3

[ atoms ]
;       nr            type      resi   res      atom      cgnr      charge          mass ; qtot
         1            c0bf         1   UNL        c0         1     0.29549       12.0110 ; qtot    0.295
         2            c1bf         1   UNL        c1         2    -0.19850       12.0110 ; qtot    0.097
         3            n2bf         1   UNL        n2         3    -0.31780       14.0070 ; qtot   -0.221
         4            c3bf         1   UNL        c3         4     0.45515       12.0110 ; qtot    0.234
         5            n4bf         1   UNL        n4         5    -0.66663       14.0070 ; qtot   -0.432
         6            c5bf         1   UNL        c5         6    -0.11997       12.0110 ; qtot   -0.552
         7            c6bf         1   UNL        c6         7    -0.10490       12.0110 ; qtot   -0.657
         8            c7bf         1   UNL        c7         8    -0.13306       12.0110 ; qtot   -0.790
         9            c8bf         1   UNL        c8         9    -0.09516       12.0110 ; qtot   -0.885
        10            c9bf         1   UNL        c9        10    -0.11900       12.0110 ; qtot   -1.004
        11           c10bf         1   UNL       c10        11     0.15935       12.0110 ; qtot   -0.845
        12           n11bf         1   UNL       n11        12    -0.20398       14.0070 ; qtot   -1.049
        13           n12bf         1   UNL       n12        13    -0.40752       14.0070 ; qtot   -1.457
        14           c13bf         1   UNL       c13        14     0.39145       12.0110 ; qtot   -1.065
        15           c14bf         1   UNL       c14        15    -0.16644       12.0110 ; qtot   -1.232
        16           c15bf         1   UNL       c15        16    -0.21412       12.0110 ; qtot   -1.446
        17           c16bf         1   UNL       c16        17     0.67439       12.0110 ; qtot   -0.771
        18           o17bf         1   UNL       o17        18    -0.61615       15.9990 ; qtot   -1.387
        19           c18bf         1   UNL       c18        19    -0.06971       12.0110 ; qtot   -1.457
        20           c19bf         1   UNL       c19        20    -0.15743       12.0110 ; qtot   -1.615
        21           c20bf         1   UNL       c20        21     0.15364       12.0110 ; qtot   -1.461
        22           f21bf         1   UNL       f21        22    -0.13656       18.9980 ; qtot   -1.597
        23           c22bf         1   UNL       c22        23    -0.19537       12.0110 ; qtot   -1.793
        24           c23bf         1   UNL       c23        24     0.15364       12.0110 ; qtot   -1.639
        25           f24bf         1   UNL       f24        25    -0.13656       18.9980 ; qtot   -1.776
        26           c25bf         1   UNL       c25        26    -0.15743       12.0110 ; qtot   -1.933
        27           c26bf         1   UNL       c26        27    -0.08535       12.0110 ; qtot   -2.019
        28           c27bf         1   UNL       c27        28    -0.02301       12.0110 ; qtot   -2.042
        29           h28bf         1   UNL       h28        29     0.30178        1.0080 ; qtot   -1.740
        30           h29bf         1   UNL       h29        30     0.14304        1.0080 ; qtot   -1.597
        31           h30bf         1   UNL       h30        31     0.13584        1.0080 ; qtot   -1.461
        32           h31bf         1   UNL       h31        32     0.13990        1.0080 ; qtot   -1.321
        33           h32bf         1   UNL       h32        33     0.08066        1.0080 ; qtot   -1.240
        34           h33bf         1   UNL       h33        34     0.08066        1.0080 ; qtot   -1.160
        35           h34bf         1   UNL       h34        35     0.15224        1.0080 ; qtot   -1.007
        36           h35bf         1   UNL       h35        36     0.16763        1.0080 ; qtot   -0.840
        37           h36bf         1   UNL       h36        37     0.16641        1.0080 ; qtot   -0.673
        38           h37bf         1   UNL       h37        38     0.17223        1.0080 ; qtot   -0.501
        39           h38bf         1   UNL       h38        39     0.16641        1.0080 ; qtot   -0.335
        40           h39bf         1   UNL       h39        40     0.14857        1.0080 ; qtot   -0.186
        41           h40bf         1   UNL       h40        41     0.03785        1.0080 ; qtot   -0.148
        42           h41bf         1   UNL       h41        42     0.04945        1.0080 ; qtot   -0.099
        43           h42bf         1   UNL       h42        43     0.04945        1.0080 ; qtot   -0.049
        44           h43bf         1   UNL       h43        44     0.04942        1.0080 ; qtot   -0.000

[ bonds ]
;       ai        aj funct               r               k
         1         2     1        0.138304   445403.348047    ;  uncertainty r = 0.000032, k = 10.132888
         1         5     1        0.137714   289711.202246    ;  uncertainty r = 0.000116, k = 13.282338
         1        41     1        0.108380   336636.662207    ;  uncertainty r = 0.000033, k = 1.136153
         2         3     1        0.138379   346641.693066    ;  uncertainty r = 0.000084, k = 13.564119
         2        28     1        0.149457   250440.950488    ;  uncertainty r = 0.000028, k = 8.003521
         3         4     1        0.138306   320091.577637    ;  uncertainty r = 0.000068, k = 17.568811
         3        29     1        0.101411   420166.708301    ;  uncertainty r = 0.000053, k = 2.348616
         4         5     1        0.132770   456290.634961    ;  uncertainty r = 0.000046, k = 9.810222
         4         6     1        0.145853   268017.121387    ;  uncertainty r = 0.000058, k = 5.208900
         6         7     1        0.140077   352367.036377    ;  uncertainty r = 0.000036, k = 2.543723
         6        27     1        0.139837   346695.882812    ;  uncertainty r = 0.000022, k = 4.803579
         7         8     1        0.139324   367640.730420    ;  uncertainty r = 0.000019, k = 1.708472
         7        30     1        0.108780   334115.638770    ;  uncertainty r = 0.000028, k = 0.742336
         8         9     1        0.139552   370812.720312    ;  uncertainty r = 0.000011, k = 0.919968
         8        31     1        0.108829   333269.568799    ;  uncertainty r = 0.000017, k = 1.192990
         9        10     1        0.139718   354802.306201    ;  uncertainty r = 0.000063, k = 2.425118
         9        32     1        0.108844   333129.599902    ;  uncertainty r = 0.000013, k = 0.702691
        10        11     1        0.151486   229284.757764    ;  uncertainty r = 0.000026, k = 5.655026
        10        27     1        0.139329   349235.446191    ;  uncertainty r = 0.000048, k = 4.766556
        11        12     1        0.146956   226312.927734    ;  uncertainty r = 0.000082, k = 7.993260
        11        33     1        0.109288   307624.258691    ;  uncertainty r = 0.000019, k = 0.768084
        11        34     1        0.109288   307624.258691    ;  uncertainty r = 0.000019, k = 0.768082
        12        13     1        0.133719   291840.001221    ;  uncertainty r = 0.000103, k = 13.619004
        12        17     1        0.139210   287082.463281    ;  uncertainty r = 0.000112, k = 8.370644
        13        14     1        0.130260   486820.964258    ;  uncertainty r = 0.000104, k = 8.324314
        14        15     1        0.143148   246844.814746    ;  uncertainty r = 0.000136, k = 10.011203
        14        19     1        0.147088   262485.477051    ;  uncertainty r = 0.000091, k = 9.142570
        15        16     1        0.134977   481508.785840    ;  uncertainty r = 0.000047, k = 10.409223
        15        35     1        0.108783   336902.886572    ;  uncertainty r = 0.000050, k = 1.619691
        16        17     1        0.145432   272577.129785    ;  uncertainty r = 0.000089, k = 4.402721
        16        36     1        0.108708   341990.695947    ;  uncertainty r = 0.000030, k = 2.410372
        17        18     1        0.124008   735950.379883    ;  uncertainty r = 0.000059, k = 6.569265
        19        20     1        0.139863   351792.144971    ;  uncertainty r = 0.000071, k = 3.727366
        19        26     1        0.139863   351792.196045    ;  uncertainty r = 0.000071, k = 3.727342
        20        21     1        0.138801   355605.524902    ;  uncertainty r = 0.000040, k = 2.002119
        20        37     1        0.108712   335835.256641    ;  uncertainty r = 0.000032, k = 0.851174
        21        22     1        0.135275   339582.801904    ;  uncertainty r = 0.000035, k = 2.432588
        21        23     1        0.139032   365693.244922    ;  uncertainty r = 0.000026, k = 3.713255
        23        24     1        0.139032   365693.193848    ;  uncertainty r = 0.000026, k = 3.713232
        23        38     1        0.108762   339358.024268    ;  uncertainty r = 0.000015, k = 0.997650
        24        25     1        0.135275   339582.852979    ;  uncertainty r = 0.000035, k = 2.432590
        24        26     1        0.138801   355605.524902    ;  uncertainty r = 0.000040, k = 2.002129
        26        39     1        0.108712   335835.307715    ;  uncertainty r = 0.000032, k = 0.851166
        27        40     1        0.108822   332422.553955    ;  uncertainty r = 0.000039, k = 1.955184
        28        42     1        0.109559   309762.123340    ;  uncertainty r = 0.000023, k = 0.993181
        28        43     1        0.109559   309762.123340    ;  uncertainty r = 0.000023, k = 0.993181
        28        44     1        0.109559   309762.123340    ;  uncertainty r = 0.000023, k = 0.993181

[ angles ]
;       ai        aj        ak funct           theta             cth
         1         2         3     1      106.267441      725.800975    ;  uncertainty theta = 0.002074, k = 0.145870
         1         2        28     1      132.265900      330.113201    ;  uncertainty theta = 0.001820, k = 0.181815
         1         5         4     1      105.056595      786.411900    ;  uncertainty theta = 0.001763, k = 0.249730
         2         1         5     1      111.168518      920.220926    ;  uncertainty theta = 0.001744, k = 0.132777
         2         1        41     1      125.453369      243.209205    ;  uncertainty theta = 0.001347, k = 0.197153
         2         3         4     1      105.327698      875.059825    ;  uncertainty theta = 0.001405, k = 0.138429
         2         3        29     1      116.389481      283.796227    ;  uncertainty theta = 0.005537, k = 0.101304
         2        28        42     1      109.600731      405.498780    ;  uncertainty theta = 0.000355, k = 0.037514
         2        28        43     1      109.600731      405.498780    ;  uncertainty theta = 0.000355, k = 0.037514
         2        28        44     1      109.600731      405.498780    ;  uncertainty theta = 0.000355, k = 0.037514
         3         2        28     1      122.172165      426.883268    ;  uncertainty theta = 0.002884, k = 0.180685
         3         4         5     1      111.527466      823.505381    ;  uncertainty theta = 0.002779, k = 0.286352
         3         4         6     1      121.552406      391.118770    ;  uncertainty theta = 0.003158, k = 0.077725
         4         3        29     1      119.092918      285.212036    ;  uncertainty theta = 0.006234, k = 0.075943
         4         6         7     1      119.425804      414.047040    ;  uncertainty theta = 0.003814, k = 0.132038
         4         6        27     1      118.874878      413.214435    ;  uncertainty theta = 0.004736, k = 0.093909
         5         1        41     1      119.264160      289.020896    ;  uncertainty theta = 0.002405, k = 0.128579
         5         4         6     1      126.558556      396.821079    ;  uncertainty theta = 0.004995, k = 0.188899
         6         7         8     1      120.161133      528.280915    ;  uncertainty theta = 0.002181, k = 0.098382
         6         7        30     1      118.838402      270.042514    ;  uncertainty theta = 0.001435, k = 0.051014
         6        27        10     1      121.873924      531.102063    ;  uncertainty theta = 0.002671, k = 0.091737
         6        27        40     1      118.636917      273.605420    ;  uncertainty theta = 0.001080, k = 0.092945
         7         6        27     1      121.349442      406.298538    ;  uncertainty theta = 0.001995, k = 0.117141
         7         8         9     1      120.320602      503.247876    ;  uncertainty theta = 0.001634, k = 0.063733
         7         8        31     1      120.175705      283.378312    ;  uncertainty theta = 0.001192, k = 0.025543
         8         7        30     1      120.664879      289.863365    ;  uncertainty theta = 0.001546, k = 0.064529
         8         9        10     1      119.851418      523.441185    ;  uncertainty theta = 0.001489, k = 0.035865
         8         9        32     1      120.396378      293.473291    ;  uncertainty theta = 0.002738, k = 0.021148
         9         8        31     1      120.341713      284.002694    ;  uncertainty theta = 0.001734, k = 0.048161
         9        10        11     1      120.415588      424.100266    ;  uncertainty theta = 0.001166, k = 0.068929
         9        10        27     1      120.847839      452.816107    ;  uncertainty theta = 0.001324, k = 0.144509
        10         9        32     1      119.045578      269.996260    ;  uncertainty theta = 0.002381, k = 0.026112
        10        11        12     1      111.863419      643.149035    ;  uncertainty theta = 0.001378, k = 0.096663
        10        11        33     1      108.758423      417.471279    ;  uncertainty theta = 0.001935, k = 0.057847
        10        11        34     1      108.758423      417.471311    ;  uncertainty theta = 0.001935, k = 0.057847
        10        27        40     1      119.089073      275.974114    ;  uncertainty theta = 0.001247, k = 0.069673
        11        10        27     1      119.642410      406.809025    ;  uncertainty theta = 0.002008, k = 0.132349
        11        12        13     1      110.577248      500.232199    ;  uncertainty theta = 0.005826, k = 0.099148
        11        12        17     1      115.544518      389.337684    ;  uncertainty theta = 0.005902, k = 0.248674
        12        11        33     1      105.434692      444.216166    ;  uncertainty theta = 0.001608, k = 0.052914
        12        11        34     1      105.434692      444.216134    ;  uncertainty theta = 0.001608, k = 0.052914
        12        13        14     1      119.599083      506.750546    ;  uncertainty theta = 0.009383, k = 0.233462
        12        17        16     1      111.385658      354.543852    ;  uncertainty theta = 0.004876, k = 0.498398
        12        17        18     1      122.027390      653.228724    ;  uncertainty theta = 0.001797, k = 0.051888
        13        12        17     1      124.130821      552.011816    ;  uncertainty theta = 0.006513, k = 0.232378
        13        14        15     1      126.192650      534.970839    ;  uncertainty theta = 0.003715, k = 0.203915
        13        14        19     1      116.228676      442.181529    ;  uncertainty theta = 0.006577, k = 0.257504
        14        15        16     1      119.137741      483.732417    ;  uncertainty theta = 0.004425, k = 0.316234
        14        15        35     1      118.496231      262.252068    ;  uncertainty theta = 0.005672, k = 0.058663
        14        19        20     1      118.724350      391.877126    ;  uncertainty theta = 0.002727, k = 0.206133
        14        19        26     1      118.724350      391.877094    ;  uncertainty theta = 0.002727, k = 0.206133
        15        14        19     1      120.406021      386.651563    ;  uncertainty theta = 0.002392, k = 0.102654
        15        16        17     1      119.665359      523.118907    ;  uncertainty theta = 0.005349, k = 0.100266
        15        16        36     1      123.138992      265.275997    ;  uncertainty theta = 0.005028, k = 0.152927
        16        15        35     1      122.361343      282.774455    ;  uncertainty theta = 0.005531, k = 0.167097
        16        17        18     1      127.351967      536.919129    ;  uncertainty theta = 0.003562, k = 0.161864
        17        16        36     1      117.583885      254.681432    ;  uncertainty theta = 0.006644, k = 0.184684
        19        20        21     1      118.720169      498.330993    ;  uncertainty theta = 0.002325, k = 0.126937
        19        20        37     1      120.100601      263.055497    ;  uncertainty theta = 0.002410, k = 0.043472
        19        26        24     1      118.720169      498.330993    ;  uncertainty theta = 0.002325, k = 0.126937
        19        26        39     1      120.100601      263.055497    ;  uncertainty theta = 0.002410, k = 0.043473
        20        19        26     1      122.382584      431.454570    ;  uncertainty theta = 0.000960, k = 0.097327
        20        21        22     1      118.785866      507.579736    ;  uncertainty theta = 0.002109, k = 0.057206
        20        21        23     1      123.859070      366.023038    ;  uncertainty theta = 0.005134, k = 0.176821
        21        20        37     1      120.887062      288.478073    ;  uncertainty theta = 0.000717, k = 0.013022
        21        23        24     1      115.525314      473.107958    ;  uncertainty theta = 0.002651, k = 0.198626
        21        23        38     1      122.239304      279.302525    ;  uncertainty theta = 0.002821, k = 0.053520
        22        21        23     1      118.429832      503.503502    ;  uncertainty theta = 0.002161, k = 0.048153
        23        24        25     1      118.429825      503.503502    ;  uncertainty theta = 0.002161, k = 0.048153
        23        24        26     1      123.859070      366.023069    ;  uncertainty theta = 0.005134, k = 0.176822
        24        23        38     1      122.239304      279.302525    ;  uncertainty theta = 0.002821, k = 0.053520
        24        26        39     1      120.887062      288.478041    ;  uncertainty theta = 0.000717, k = 0.013022
        25        24        26     1      118.785866      507.579768    ;  uncertainty theta = 0.002109, k = 0.057206
        33        11        34     1      106.066360      312.941506    ;  uncertainty theta = 0.003423, k = 0.065195
        42        28        43     1      106.637375      313.134663    ;  uncertainty theta = 0.001055, k = 0.021093
        42        28        44     1      106.637375      313.134663    ;  uncertainty theta = 0.001055, k = 0.021093
        43        28        44     1      106.637375      313.134663    ;  uncertainty theta = 0.001055, k = 0.021093

[ dihedrals ] ; propers for gromacs 4.5 or higher, use funct 9
;       ai        aj        ak        al funct           phase               k        pn
         1         2         3         4     9        0.000000       -0.728383         1    ;  uncertainty k = 0.370811
         1         2         3         4     9      180.000000       12.734915         2    ;  uncertainty k = 0.538409
         1         2         3         4     9        0.000000       -8.666002         3    ;  uncertainty k = 1.153499
         1         2         3         4     9      180.000000        1.231855         4    ;  uncertainty k = 0.162890
         1         2         3        29     9        0.000000        2.211141         1    ;  uncertainty k = 0.593496
         1         2         3        29     9      180.000000        7.381223         2    ;  uncertainty k = 0.742284
         1         2         3        29     9        0.000000        1.531810         3    ;  uncertainty k = 0.700230
         1         2         3        29     9      180.000000       -0.081007         4    ;  uncertainty k = 0.121063
         1         2        28        42     9        0.000000        0.640455         1    ;  uncertainty k = 0.299264
         1         2        28        42     9      180.000000        0.175546         2    ;  uncertainty k = 0.314995
         1         2        28        42     9        0.000000       -0.028671         3    ;  uncertainty k = 0.072277
         1         2        28        42     9      180.000000        0.043613         4    ;  uncertainty k = 0.051317
         1         2        28        43     9        0.000000        0.640455         1    ;  uncertainty k = 0.299264
         1         2        28        43     9      180.000000        0.175546         2    ;  uncertainty k = 0.314995
         1         2        28        43     9        0.000000       -0.028671         3    ;  uncertainty k = 0.072277
         1         2        28        43     9      180.000000        0.043613         4    ;  uncertainty k = 0.051317
         1         2        28        44     9        0.000000        0.640455         1    ;  uncertainty k = 0.299264
         1         2        28        44     9      180.000000        0.175546         2    ;  uncertainty k = 0.314995
         1         2        28        44     9        0.000000       -0.028671         3    ;  uncertainty k = 0.072277
         1         2        28        44     9      180.000000        0.043613         4    ;  uncertainty k = 0.051317
         1         5         4         3     9        0.000000       -0.149819         1    ;  uncertainty k = 0.567766
         1         5         4         3     9      180.000000       23.043235         2    ;  uncertainty k = 0.440546
         1         5         4         3     9        0.000000       -8.698511         3    ;  uncertainty k = 1.871307
         1         5         4         3     9      180.000000        2.098439         4    ;  uncertainty k = 0.650130
         1         5         4         6     9        0.000000        0.248695         1    ;  uncertainty k = 0.607422
         1         5         4         6     9      180.000000       19.131137         2    ;  uncertainty k = 0.299274
         1         5         4         6     9        0.000000        1.438472         3    ;  uncertainty k = 0.277129
         1         5         4         6     9      180.000000        1.209272         4    ;  uncertainty k = 0.292759
         2         1         5         4     9        0.000000        0.094259         1    ;  uncertainty k = 0.534001
         2         1         5         4     9      180.000000       16.664606         2    ;  uncertainty k = 0.700219
         2         1         5         4     9        0.000000       -6.571907         3    ;  uncertainty k = 0.699223
         2         1         5         4     9      180.000000        2.237442         4    ;  uncertainty k = 0.448838
         2         3         4         5     9        0.000000        0.006179         1    ;  uncertainty k = 0.517508
         2         3         4         5     9      180.000000       16.941675         2    ;  uncertainty k = 0.749186
         2         3         4         5     9        0.000000       -9.868702         3    ;  uncertainty k = 1.117314
         2         3         4         5     9      180.000000        1.126902         4    ;  uncertainty k = 0.449886
         2         3         4         6     9        0.000000        0.852188         1    ;  uncertainty k = 0.995196
         2         3         4         6     9      180.000000        9.549825         2    ;  uncertainty k = 0.532841
         2         3         4         6     9        0.000000        0.979402         3    ;  uncertainty k = 0.696202
         2         3         4         6     9      180.000000        0.024698         4    ;  uncertainty k = 0.192822
         3         2         1         5     9        0.000000       -0.002878         1    ;  uncertainty k = 0.652467
         3         2         1         5     9      180.000000       22.448210         2    ;  uncertainty k = 0.437108
         3         2         1         5     9        0.000000      -10.821416         3    ;  uncertainty k = 0.795593
         3         2         1         5     9      180.000000        1.460345         4    ;  uncertainty k = 0.749849
         3         2         1        41     9        0.000000        0.448510         1    ;  uncertainty k = 0.597945
         3         2         1        41     9      180.000000       12.800803         2    ;  uncertainty k = 0.205349
         3         2         1        41     9        0.000000        1.734369         3    ;  uncertainty k = 0.370218
         3         2         1        41     9      180.000000        0.672559         4    ;  uncertainty k = 0.129748
         3         2        28        42     9        0.000000       -0.201876         1    ;  uncertainty k = 0.538977
         3         2        28        42     9      180.000000       -0.486899         2    ;  uncertainty k = 0.234601
         3         2        28        42     9        0.000000        0.802410         3    ;  uncertainty k = 0.102766
         3         2        28        42     9      180.000000        0.190568         4    ;  uncertainty k = 0.043821
         3         2        28        43     9        0.000000       -0.201876         1    ;  uncertainty k = 0.538977
         3         2        28        43     9      180.000000       -0.486899         2    ;  uncertainty k = 0.234601
         3         2        28        43     9        0.000000        0.802410         3    ;  uncertainty k = 0.102766
         3         2        28        43     9      180.000000        0.190568         4    ;  uncertainty k = 0.043821
         3         2        28        44     9        0.000000       -0.201876         1    ;  uncertainty k = 0.538977
         3         2        28        44     9      180.000000       -0.486899         2    ;  uncertainty k = 0.234601
         3         2        28        44     9        0.000000        0.802410         3    ;  uncertainty k = 0.102766
         3         2        28        44     9      180.000000        0.190568         4    ;  uncertainty k = 0.043821
         3         4         6         7     9        0.000000       -0.143170         1    ;  uncertainty k = 0.303092
         3         4         6         7     9      180.000000        3.951809         2    ;  uncertainty k = 0.164741
         3         4         6         7     9        0.000000        0.653862         3    ;  uncertainty k = 0.047880
         3         4         6         7     9      180.000000        0.015719         4    ;  uncertainty k = 0.048336
         3         4         6        27     9        0.000000        0.092287         1    ;  uncertainty k = 0.510101
         3         4         6        27     9      180.000000        3.895818         2    ;  uncertainty k = 0.279960
         3         4         6        27     9        0.000000        0.593520         3    ;  uncertainty k = 0.078403
         3         4         6        27     9      180.000000       -0.000575         4    ;  uncertainty k = 0.050191
         4         3         2        28     9        0.000000        1.008120         1    ;  uncertainty k = 0.738771
         4         3         2        28     9      180.000000        8.327064         2    ;  uncertainty k = 0.320907
         4         3         2        28     9        0.000000        1.497444         3    ;  uncertainty k = 0.438278
         4         3         2        28     9      180.000000        0.056706         4    ;  uncertainty k = 0.122406
         4         5         1        41     9        0.000000        0.883141         1    ;  uncertainty k = 0.898184
         4         5         1        41     9      180.000000       12.103419         2    ;  uncertainty k = 0.911321
         4         5         1        41     9        0.000000        1.214871         3    ;  uncertainty k = 0.680140
         4         5         1        41     9      180.000000        0.888512         4    ;  uncertainty k = 0.557472
         4         6         7         8     9        0.000000        0.209972         1    ;  uncertainty k = 0.410361
         4         6         7         8     9      180.000000        9.709961         2    ;  uncertainty k = 0.327799
         4         6         7         8     9        0.000000        1.055645         3    ;  uncertainty k = 0.205919
         4         6         7         8     9      180.000000        1.642520         4    ;  uncertainty k = 0.209738
         4         6         7        30     9        0.000000       -0.239525         1    ;  uncertainty k = 0.238318
         4         6         7        30     9      180.000000        7.485375         2    ;  uncertainty k = 0.203335
         4         6         7        30     9        0.000000        0.788410         3    ;  uncertainty k = 0.200707
         4         6         7        30     9      180.000000        1.115426         4    ;  uncertainty k = 0.190677
         4         6        27        10     9        0.000000        0.381451         1    ;  uncertainty k = 0.237443
         4         6        27        10     9      180.000000        9.684917         2    ;  uncertainty k = 0.351328
         4         6        27        10     9        0.000000        1.166416         3    ;  uncertainty k = 0.110590
         4         6        27        10     9      180.000000        1.644046         4    ;  uncertainty k = 0.118875
         4         6        27        40     9        0.000000       -0.173724         1    ;  uncertainty k = 0.359746
         4         6        27        40     9      180.000000        7.612279         2    ;  uncertainty k = 0.242545
         4         6        27        40     9        0.000000        0.793509         3    ;  uncertainty k = 0.191840
         4         6        27        40     9      180.000000        1.160638         4    ;  uncertainty k = 0.173043
         5         1         2        28     9        0.000000        0.498995         1    ;  uncertainty k = 0.654942
         5         1         2        28     9      180.000000       16.041281         2    ;  uncertainty k = 0.673410
         5         1         2        28     9        0.000000        1.984789         3    ;  uncertainty k = 0.434170
         5         1         2        28     9      180.000000        0.817072         4    ;  uncertainty k = 0.451619
         5         4         3        29     9        0.000000        3.526749         1    ;  uncertainty k = 2.054906
         5         4         3        29     9      180.000000       12.306000         2    ;  uncertainty k = 0.641342
         5         4         3        29     9        0.000000        1.810818         3    ;  uncertainty k = 0.794477
         5         4         3        29     9      180.000000       -0.405905         4    ;  uncertainty k = 0.098140
         5         4         6         7     9        0.000000        0.531164         1    ;  uncertainty k = 0.728987
         5         4         6         7     9      180.000000        3.549546         2    ;  uncertainty k = 0.136471
         5         4         6         7     9        0.000000        0.560999         3    ;  uncertainty k = 0.115100
         5         4         6         7     9      180.000000       -0.028026         4    ;  uncertainty k = 0.066054
         5         4         6        27     9        0.000000        0.445121         1    ;  uncertainty k = 0.869376
         5         4         6        27     9      180.000000        3.504109         2    ;  uncertainty k = 0.174668
         5         4         6        27     9        0.000000        0.519438         3    ;  uncertainty k = 0.123220
         5         4         6        27     9      180.000000       -0.042460         4    ;  uncertainty k = 0.084790
         6         4         3        29     9        0.000000        0.961358         1    ;  uncertainty k = 0.904755
         6         4         3        29     9      180.000000        2.726631         2    ;  uncertainty k = 0.988840
         6         4         3        29     9        0.000000        1.293741         3    ;  uncertainty k = 0.365561
         6         4         3        29     9      180.000000        0.030197         4    ;  uncertainty k = 0.115114
         6         7         8         9     9        0.000000       -0.037576         1    ;  uncertainty k = 0.090037
         6         7         8         9     9      180.000000       13.899103         2    ;  uncertainty k = 0.207875
         6         7         8         9     9        0.000000       -0.829136         3    ;  uncertainty k = 0.360244
         6         7         8         9     9      180.000000        0.747003         4    ;  uncertainty k = 0.210124
         6         7         8        31     9        0.000000       -0.004050         1    ;  uncertainty k = 0.092017
         6         7         8        31     9      180.000000        7.782531         2    ;  uncertainty k = 0.245883
         6         7         8        31     9        0.000000        1.435782         3    ;  uncertainty k = 0.254808
         6         7         8        31     9      180.000000        1.827270         4    ;  uncertainty k = 0.154728
         6        27        10         9     9        0.000000       -0.241115         1    ;  uncertainty k = 0.212285
         6        27        10         9     9      180.000000       11.276795         2    ;  uncertainty k = 0.528472
         6        27        10         9     9        0.000000       -0.249857         3    ;  uncertainty k = 0.167779
         6        27        10         9     9      180.000000        0.961196         4    ;  uncertainty k = 0.447022
         6        27        10        11     9        0.000000        0.187898         1    ;  uncertainty k = 0.104075
         6        27        10        11     9      180.000000        9.755706         2    ;  uncertainty k = 0.304800
         6        27        10        11     9        0.000000        1.322319         3    ;  uncertainty k = 0.185681
         6        27        10        11     9      180.000000        1.722503         4    ;  uncertainty k = 0.255341
         7         6        27        10     9        0.000000        0.087215         1    ;  uncertainty k = 0.050357
         7         6        27        10     9      180.000000        9.993951         2    ;  uncertainty k = 0.259805
         7         6        27        10     9        0.000000       -0.310326         3    ;  uncertainty k = 0.244085
         7         6        27        10     9      180.000000        1.117103         4    ;  uncertainty k = 0.261294
         7         6        27        40     9        0.000000        0.247977         1    ;  uncertainty k = 0.068438
         7         6        27        40     9      180.000000        7.134246         2    ;  uncertainty k = 0.681647
         7         6        27        40     9        0.000000        1.413476         3    ;  uncertainty k = 0.230903
         7         6        27        40     9      180.000000        1.695169         4    ;  uncertainty k = 0.258976
         7         8         9        10     9        0.000000       -0.177473         1    ;  uncertainty k = 0.178843
         7         8         9        10     9      180.000000       13.480232         2    ;  uncertainty k = 0.310487
         7         8         9        10     9        0.000000       -0.848112         3    ;  uncertainty k = 0.394526
         7         8         9        10     9      180.000000        0.778246         4    ;  uncertainty k = 0.260525
         7         8         9        32     9        0.000000        0.074629         1    ;  uncertainty k = 0.086723
         7         8         9        32     9      180.000000        7.635321         2    ;  uncertainty k = 0.407938
         7         8         9        32     9        0.000000        1.421099         3    ;  uncertainty k = 0.253429
         7         8         9        32     9      180.000000        1.799233         4    ;  uncertainty k = 0.116482
         8         7         6        27     9        0.000000       -0.012916         1    ;  uncertainty k = 0.277972
         8         7         6        27     9      180.000000       10.917377         2    ;  uncertainty k = 0.217486
         8         7         6        27     9        0.000000       -0.633080         3    ;  uncertainty k = 0.249295
         8         7         6        27     9      180.000000        0.961428         4    ;  uncertainty k = 0.255172
         8         9        10        11     9        0.000000        0.229277         1    ;  uncertainty k = 0.230170
         8         9        10        11     9      180.000000        9.798931         2    ;  uncertainty k = 0.581222
         8         9        10        11     9        0.000000        1.306915         3    ;  uncertainty k = 0.323389
         8         9        10        11     9      180.000000        1.796225         4    ;  uncertainty k = 0.236193
         8         9        10        27     9        0.000000       -0.205571         1    ;  uncertainty k = 0.129668
         8         9        10        27     9      180.000000       11.612708         2    ;  uncertainty k = 0.408050
         8         9        10        27     9        0.000000       -0.511510         3    ;  uncertainty k = 0.291096
         8         9        10        27     9      180.000000        0.836011         4    ;  uncertainty k = 0.401780
         9         8         7        30     9        0.000000        0.023155         1    ;  uncertainty k = 0.074618
         9         8         7        30     9      180.000000        7.567728         2    ;  uncertainty k = 0.233512
         9         8         7        30     9        0.000000        1.400888         3    ;  uncertainty k = 0.202311
         9         8         7        30     9      180.000000        1.858480         4    ;  uncertainty k = 0.211560
         9        10        11        12     9        0.000000        1.856656         1    ;  uncertainty k = 0.797733
         9        10        11        12     9      180.000000        2.345502         2    ;  uncertainty k = 0.317839
         9        10        11        12     9        0.000000        0.617170         3    ;  uncertainty k = 0.147158
         9        10        11        12     9      180.000000        0.096721         4    ;  uncertainty k = 0.050298
         9        10        11        33     9        0.000000       -0.534398         1    ;  uncertainty k = 0.228739
         9        10        11        33     9      180.000000        2.019367         2    ;  uncertainty k = 0.127038
         9        10        11        33     9        0.000000        0.499614         3    ;  uncertainty k = 0.055077
         9        10        11        33     9      180.000000        0.143725         4    ;  uncertainty k = 0.043777
         9        10        11        34     9        0.000000       -0.534397         1    ;  uncertainty k = 0.228739
         9        10        11        34     9      180.000000        2.019367         2    ;  uncertainty k = 0.127039
         9        10        11        34     9        0.000000        0.499614         3    ;  uncertainty k = 0.055078
         9        10        11        34     9      180.000000        0.143726         4    ;  uncertainty k = 0.043778
         9        10        27        40     9        0.000000        0.205850         1    ;  uncertainty k = 0.172421
         9        10        27        40     9      180.000000        7.556063         2    ;  uncertainty k = 0.635911
         9        10        27        40     9        0.000000        1.351504         3    ;  uncertainty k = 0.234194
         9        10        27        40     9      180.000000        1.706620         4    ;  uncertainty k = 0.161495
        10         9         8        31     9        0.000000        0.028745         1    ;  uncertainty k = 0.211596
        10         9         8        31     9      180.000000        7.534895         2    ;  uncertainty k = 0.334647
        10         9         8        31     9        0.000000        1.378568         3    ;  uncertainty k = 0.193326
        10         9         8        31     9      180.000000        1.779754         4    ;  uncertainty k = 0.120591
        10        11        12        13     9        0.000000        0.402810         1    ;  uncertainty k = 0.699142
        10        11        12        13     9      180.000000        0.049428         2    ;  uncertainty k = 0.333102
        10        11        12        13     9        0.000000        0.768280         3    ;  uncertainty k = 0.367560
        10        11        12        13     9      180.000000        0.185207         4    ;  uncertainty k = 0.070975
        10        11        12        17     9        0.000000        1.474554         1    ;  uncertainty k = 0.428183
        10        11        12        17     9      180.000000       -0.014226         2    ;  uncertainty k = 0.145507
        10        11        12        17     9        0.000000        0.221746         3    ;  uncertainty k = 0.235872
        10        11        12        17     9      180.000000        0.246904         4    ;  uncertainty k = 0.129295
        11        10         9        32     9        0.000000        0.016912         1    ;  uncertainty k = 0.246472
        11        10         9        32     9      180.000000        7.601578         2    ;  uncertainty k = 0.197907
        11        10         9        32     9        0.000000        0.612076         3    ;  uncertainty k = 0.271769
        11        10         9        32     9      180.000000        1.046793         4    ;  uncertainty k = 0.189128
        11        10        27        40     9        0.000000        0.010704         1    ;  uncertainty k = 0.211011
        11        10        27        40     9      180.000000        7.852506         2    ;  uncertainty k = 0.319811
        11        10        27        40     9        0.000000        0.559955         3    ;  uncertainty k = 0.314933
        11        10        27        40     9      180.000000        1.081864         4    ;  uncertainty k = 0.174092
        11        12        13        14     9        0.000000       -0.896071         1    ;  uncertainty k = 4.127420
        11        12        13        14     9      180.000000       12.848550         2    ;  uncertainty k = 0.830289
        11        12        13        14     9        0.000000        1.812857         3    ;  uncertainty k = 0.971748
        11        12        13        14     9      180.000000        0.130899         4    ;  uncertainty k = 0.444620
        11        12        17        16     9        0.000000        0.633860         1    ;  uncertainty k = 1.108312
        11        12        17        16     9      180.000000        7.728876         2    ;  uncertainty k = 0.354944
        11        12        17        16     9        0.000000        1.756833         3    ;  uncertainty k = 0.398229
        11        12        17        16     9      180.000000       -0.228865         4    ;  uncertainty k = 0.310355
        11        12        17        18     9        0.000000        0.937716         1    ;  uncertainty k = 1.270707
        11        12        17        18     9      180.000000       11.758630         2    ;  uncertainty k = 0.388798
        11        12        17        18     9        0.000000        0.652776         3    ;  uncertainty k = 0.132590
        11        12        17        18     9      180.000000       -0.183371         4    ;  uncertainty k = 0.344050
        12        11        10        27     9        0.000000        1.791906         1    ;  uncertainty k = 0.865262
        12        11        10        27     9      180.000000        2.305318         2    ;  uncertainty k = 0.373337
        12        11        10        27     9        0.000000        0.592521         3    ;  uncertainty k = 0.216613
        12        11        10        27     9      180.000000        0.081294         4    ;  uncertainty k = 0.059979
        12        13        14        15     9        0.000000        0.188393         1    ;  uncertainty k = 0.780216
        12        13        14        15     9      180.000000       24.687753         2    ;  uncertainty k = 0.176803
        12        13        14        15     9        0.000000        1.985802         3    ;  uncertainty k = 0.563904
        12        13        14        15     9      180.000000        0.690133         4    ;  uncertainty k = 0.279420
        12        13        14        19     9        0.000000       -0.043172         1    ;  uncertainty k = 0.548350
        12        13        14        19     9      180.000000       25.753064         2    ;  uncertainty k = 0.233339
        12        13        14        19     9        0.000000        2.942378         3    ;  uncertainty k = 0.125640
        12        13        14        19     9      180.000000        0.686554         4    ;  uncertainty k = 0.574272
        12        17        16        15     9        0.000000        0.419278         1    ;  uncertainty k = 2.274473
        12        17        16        15     9      180.000000        1.605236         2    ;  uncertainty k = 0.697545
        12        17        16        15     9        0.000000       -0.163994         3    ;  uncertainty k = 0.200172
        12        17        16        15     9      180.000000        0.325528         4    ;  uncertainty k = 0.077908
        12        17        16        36     9        0.000000       -1.120179         1    ;  uncertainty k = 2.456073
        12        17        16        36     9      180.000000        2.364370         2    ;  uncertainty k = 0.329357
        12        17        16        36     9        0.000000        0.459246         3    ;  uncertainty k = 0.206811
        12        17        16        36     9      180.000000        0.273913         4    ;  uncertainty k = 0.151693
        13        12        11        33     9        0.000000        0.384447         1    ;  uncertainty k = 0.533470
        13        12        11        33     9      180.000000        1.169937         2    ;  uncertainty k = 0.403682
        13        12        11        33     9        0.000000        0.582237         3    ;  uncertainty k = 0.072383
        13        12        11        33     9      180.000000        0.242295         4    ;  uncertainty k = 0.129100
        13        12        11        34     9        0.000000        0.384448         1    ;  uncertainty k = 0.533469
        13        12        11        34     9      180.000000        1.169938         2    ;  uncertainty k = 0.403681
        13        12        11        34     9        0.000000        0.582237         3    ;  uncertainty k = 0.072383
        13        12        11        34     9      180.000000        0.242295         4    ;  uncertainty k = 0.129100
        13        12        17        16     9        0.000000        2.898929         1    ;  uncertainty k = 2.397583
        13        12        17        16     9      180.000000        2.029916         2    ;  uncertainty k = 0.771883
        13        12        17        16     9        0.000000        1.223010         3    ;  uncertainty k = 0.519452
        13        12        17        16     9      180.000000        0.577304         4    ;  uncertainty k = 0.261783
        13        12        17        18     9        0.000000        2.605133         1    ;  uncertainty k = 1.172602
        13        12        17        18     9      180.000000       10.822449         2    ;  uncertainty k = 0.452983
        13        12        17        18     9        0.000000        1.231348         3    ;  uncertainty k = 0.502016
        13        12        17        18     9      180.000000       -0.281985         4    ;  uncertainty k = 0.368205
        13        14        15        16     9        0.000000        0.352014         1    ;  uncertainty k = 1.410780
        13        14        15        16     9      180.000000        4.437856         2    ;  uncertainty k = 0.753046
        13        14        15        16     9        0.000000        0.213422         3    ;  uncertainty k = 0.453700
        13        14        15        16     9      180.000000        0.599744         4    ;  uncertainty k = 0.185202
        13        14        15        35     9        0.000000       -0.968928         1    ;  uncertainty k = 0.799755
        13        14        15        35     9      180.000000        4.602265         2    ;  uncertainty k = 0.838958
        13        14        15        35     9        0.000000        0.753727         3    ;  uncertainty k = 0.438991
        13        14        15        35     9      180.000000        0.503348         4    ;  uncertainty k = 0.169976
        13        14        19        20     9        0.000000        0.577113         1    ;  uncertainty k = 0.839214
        13        14        19        20     9      180.000000        4.374001         2    ;  uncertainty k = 0.259899
        13        14        19        20     9        0.000000        0.310715         3    ;  uncertainty k = 0.200156
        13        14        19        20     9      180.000000       -0.034774         4    ;  uncertainty k = 0.102004
        13        14        19        26     9        0.000000        0.577112         1    ;  uncertainty k = 0.839214
        13        14        19        26     9      180.000000        4.374001         2    ;  uncertainty k = 0.259898
        13        14        19        26     9        0.000000        0.310715         3    ;  uncertainty k = 0.200157
        13        14        19        26     9      180.000000       -0.034774         4    ;  uncertainty k = 0.102004
        14        13        12        17     9        0.000000        3.891956         1    ;  uncertainty k = 2.526573
        14        13        12        17     9      180.000000        4.735669         2    ;  uncertainty k = 1.364246
        14        13        12        17     9        0.000000        1.841464         3    ;  uncertainty k = 0.687599
        14        13        12        17     9      180.000000        0.376448         4    ;  uncertainty k = 0.594894
        14        15        16        17     9        0.000000       -0.247895         1    ;  uncertainty k = 0.726732
        14        15        16        17     9      180.000000       17.791948         2    ;  uncertainty k = 0.335371
        14        15        16        17     9        0.000000        0.675076         3    ;  uncertainty k = 0.419223
        14        15        16        17     9      180.000000        0.996301         4    ;  uncertainty k = 0.368800
        14        15        16        36     9        0.000000       -0.353358         1    ;  uncertainty k = 0.789416
        14        15        16        36     9      180.000000       16.620934         2    ;  uncertainty k = 0.655545
        14        15        16        36     9        0.000000        1.944682         3    ;  uncertainty k = 0.309791
        14        15        16        36     9      180.000000        1.162896         4    ;  uncertainty k = 0.587297
        14        19        20        21     9        0.000000        0.184078         1    ;  uncertainty k = 0.251452
        14        19        20        21     9      180.000000        9.064982         2    ;  uncertainty k = 0.510143
        14        19        20        21     9        0.000000        1.393257         3    ;  uncertainty k = 0.168521
        14        19        20        21     9      180.000000        1.772060         4    ;  uncertainty k = 0.162457
        14        19        20        37     9        0.000000       -0.174783         1    ;  uncertainty k = 0.349607
        14        19        20        37     9      180.000000        7.187869         2    ;  uncertainty k = 0.358632
        14        19        20        37     9        0.000000        0.677750         3    ;  uncertainty k = 0.291506
        14        19        20        37     9      180.000000        1.081331         4    ;  uncertainty k = 0.227152
        14        19        26        24     9        0.000000        0.184079         1    ;  uncertainty k = 0.251450
        14        19        26        24     9      180.000000        9.064984         2    ;  uncertainty k = 0.510143
        14        19        26        24     9        0.000000        1.393256         3    ;  uncertainty k = 0.168522
        14        19        26        24     9      180.000000        1.772060         4    ;  uncertainty k = 0.162456
        14        19        26        39     9        0.000000       -0.174783         1    ;  uncertainty k = 0.349608
        14        19        26        39     9      180.000000        7.187870         2    ;  uncertainty k = 0.358633
        14        19        26        39     9        0.000000        0.677750         3    ;  uncertainty k = 0.291506
        14        19        26        39     9      180.000000        1.081331         4    ;  uncertainty k = 0.227152
        15        14        19        20     9        0.000000        0.063923         1    ;  uncertainty k = 0.802333
        15        14        19        20     9      180.000000        3.869396         2    ;  uncertainty k = 0.175768
        15        14        19        20     9        0.000000        0.641555         3    ;  uncertainty k = 0.157661
        15        14        19        20     9      180.000000       -0.162970         4    ;  uncertainty k = 0.081803
        15        14        19        26     9        0.000000        0.063923         1    ;  uncertainty k = 0.802332
        15        14        19        26     9      180.000000        3.869397         2    ;  uncertainty k = 0.175767
        15        14        19        26     9        0.000000        0.641555         3    ;  uncertainty k = 0.157661
        15        14        19        26     9      180.000000       -0.162970         4    ;  uncertainty k = 0.081803
        15        16        17        18     9        0.000000       -2.001816         1    ;  uncertainty k = 1.317032
        15        16        17        18     9      180.000000        3.389786         2    ;  uncertainty k = 0.746169
        15        16        17        18     9        0.000000       -0.174173         3    ;  uncertainty k = 0.227865
        15        16        17        18     9      180.000000        0.016096         4    ;  uncertainty k = 0.112368
        16        15        14        19     9        0.000000        0.540598         1    ;  uncertainty k = 0.803544
        16        15        14        19     9      180.000000        4.601494         2    ;  uncertainty k = 0.981891
        16        15        14        19     9        0.000000        0.716168         3    ;  uncertainty k = 0.328634
        16        15        14        19     9      180.000000        0.575741         4    ;  uncertainty k = 0.279114
        17        12        11        33     9        0.000000       -0.473324         1    ;  uncertainty k = 0.528827
        17        12        11        33     9      180.000000        1.255553         2    ;  uncertainty k = 0.272887
        17        12        11        33     9        0.000000        0.779301         3    ;  uncertainty k = 0.054471
        17        12        11        33     9      180.000000        0.412020         4    ;  uncertainty k = 0.034766
        17        12        11        34     9        0.000000       -0.473323         1    ;  uncertainty k = 0.528826
        17        12        11        34     9      180.000000        1.255553         2    ;  uncertainty k = 0.272888
        17        12        11        34     9        0.000000        0.779300         3    ;  uncertainty k = 0.054471
        17        12        11        34     9      180.000000        0.412020         4    ;  uncertainty k = 0.034766
        17        16        15        35     9        0.000000       -0.328809         1    ;  uncertainty k = 0.661921
        17        16        15        35     9      180.000000       15.838400         2    ;  uncertainty k = 0.436273
        17        16        15        35     9        0.000000        1.792267         3    ;  uncertainty k = 0.273244
        17        16        15        35     9      180.000000        1.039596         4    ;  uncertainty k = 0.351736
        18        17        16        36     9        0.000000       -3.368927         1    ;  uncertainty k = 1.838218
        18        17        16        36     9      180.000000        6.946407         2    ;  uncertainty k = 0.848337
        18        17        16        36     9        0.000000        0.461531         3    ;  uncertainty k = 0.415057
        18        17        16        36     9      180.000000       -0.155191         4    ;  uncertainty k = 0.180479
        19        14        15        35     9        0.000000       -0.583861         1    ;  uncertainty k = 1.092916
        19        14        15        35     9      180.000000        5.200620         2    ;  uncertainty k = 0.384920
        19        14        15        35     9        0.000000        1.054483         3    ;  uncertainty k = 0.197088
        19        14        15        35     9      180.000000        0.361604         4    ;  uncertainty k = 0.155457
        19        20        21        22     9        0.000000       -0.049880         1    ;  uncertainty k = 0.257803
        19        20        21        22     9      180.000000       12.651865         2    ;  uncertainty k = 0.408916
        19        20        21        22     9        0.000000        1.531328         3    ;  uncertainty k = 0.260602
        19        20        21        22     9      180.000000        1.472262         4    ;  uncertainty k = 0.165252
        19        20        21        23     9        0.000000        0.057717         1    ;  uncertainty k = 0.164909
        19        20        21        23     9      180.000000        8.885300         2    ;  uncertainty k = 0.653772
        19        20        21        23     9        0.000000       -0.076192         3    ;  uncertainty k = 0.320382
        19        20        21        23     9      180.000000        1.240042         4    ;  uncertainty k = 0.346858
        19        26        24        23     9        0.000000        0.057718         1    ;  uncertainty k = 0.164909
        19        26        24        23     9      180.000000        8.885300         2    ;  uncertainty k = 0.653771
        19        26        24        23     9        0.000000       -0.076192         3    ;  uncertainty k = 0.320383
        19        26        24        23     9      180.000000        1.240042         4    ;  uncertainty k = 0.346858
        19        26        24        25     9        0.000000       -0.049879         1    ;  uncertainty k = 0.257803
        19        26        24        25     9      180.000000       12.651865         2    ;  uncertainty k = 0.408916
        19        26        24        25     9        0.000000        1.531328         3    ;  uncertainty k = 0.260602
        19        26        24        25     9      180.000000        1.472261         4    ;  uncertainty k = 0.165252
        20        19        26        24     9        0.000000        0.022121         1    ;  uncertainty k = 0.243825
        20        19        26        24     9      180.000000       11.046753         2    ;  uncertainty k = 0.290032
        20        19        26        24     9        0.000000       -0.498760         3    ;  uncertainty k = 0.387970
        20        19        26        24     9      180.000000        1.024180         4    ;  uncertainty k = 0.289071
        20        19        26        39     9        0.000000        0.218088         1    ;  uncertainty k = 0.243952
        20        19        26        39     9      180.000000        6.917737         2    ;  uncertainty k = 0.583903
        20        19        26        39     9        0.000000        1.463818         3    ;  uncertainty k = 0.217536
        20        19        26        39     9      180.000000        1.686540         4    ;  uncertainty k = 0.256320
        20        21        23        24     9        0.000000        0.079700         1    ;  uncertainty k = 0.154156
        20        21        23        24     9      180.000000        8.889417         2    ;  uncertainty k = 0.512494
        20        21        23        24     9        0.000000       -0.106306         3    ;  uncertainty k = 0.476972
        20        21        23        24     9      180.000000        1.234736         4    ;  uncertainty k = 0.285242
        20        21        23        38     9        0.000000        0.130307         1    ;  uncertainty k = 0.144653
        20        21        23        38     9      180.000000        5.532844         2    ;  uncertainty k = 0.680369
        20        21        23        38     9        0.000000        1.265320         3    ;  uncertainty k = 0.294957
        20        21        23        38     9      180.000000        1.481410         4    ;  uncertainty k = 0.077611
        21        20        19        26     9        0.000000        0.022121         1    ;  uncertainty k = 0.243825
        21        20        19        26     9      180.000000       11.046753         2    ;  uncertainty k = 0.290033
        21        20        19        26     9        0.000000       -0.498760         3    ;  uncertainty k = 0.387970
        21        20        19        26     9      180.000000        1.024180         4    ;  uncertainty k = 0.289072
        21        23        24        25     9        0.000000       -0.032347         1    ;  uncertainty k = 0.289699
        21        23        24        25     9      180.000000       12.548672         2    ;  uncertainty k = 0.646212
        21        23        24        25     9        0.000000        1.557435         3    ;  uncertainty k = 0.311241
        21        23        24        25     9      180.000000        1.512893         4    ;  uncertainty k = 0.296058
        21        23        24        26     9        0.000000        0.079700         1    ;  uncertainty k = 0.154156
        21        23        24        26     9      180.000000        8.889415         2    ;  uncertainty k = 0.512494
        21        23        24        26     9        0.000000       -0.106306         3    ;  uncertainty k = 0.476971
        21        23        24        26     9      180.000000        1.234736         4    ;  uncertainty k = 0.285241
        22        21        20        37     9        0.000000       -0.415350         1    ;  uncertainty k = 0.228614
        22        21        20        37     9      180.000000        9.086429         2    ;  uncertainty k = 0.377300
        22        21        20        37     9        0.000000        0.802704         3    ;  uncertainty k = 0.232487
        22        21        20        37     9      180.000000        1.043252         4    ;  uncertainty k = 0.211577
        22        21        23        24     9        0.000000       -0.032345         1    ;  uncertainty k = 0.289698
        22        21        23        24     9      180.000000       12.548674         2    ;  uncertainty k = 0.646212
        22        21        23        24     9        0.000000        1.557435         3    ;  uncertainty k = 0.311241
        22        21        23        24     9      180.000000        1.512892         4    ;  uncertainty k = 0.296059
        22        21        23        38     9        0.000000       -0.234235         1    ;  uncertainty k = 0.255324
        22        21        23        38     9      180.000000        8.539480         2    ;  uncertainty k = 0.302303
        22        21        23        38     9        0.000000        0.791091         3    ;  uncertainty k = 0.302726
        22        21        23        38     9      180.000000        0.996026         4    ;  uncertainty k = 0.177952
        23        21        20        37     9        0.000000       -0.021691         1    ;  uncertainty k = 0.235351
        23        21        20        37     9      180.000000        5.842807         2    ;  uncertainty k = 0.659900
        23        21        20        37     9        0.000000        1.305046         3    ;  uncertainty k = 0.309757
        23        21        20        37     9      180.000000        1.641078         4    ;  uncertainty k = 0.167200
        23        24        26        39     9        0.000000       -0.021690         1    ;  uncertainty k = 0.235350
        23        24        26        39     9      180.000000        5.842806         2    ;  uncertainty k = 0.659901
        23        24        26        39     9        0.000000        1.305046         3    ;  uncertainty k = 0.309758
        23        24        26        39     9      180.000000        1.641078         4    ;  uncertainty k = 0.167201
        25        24        23        38     9        0.000000       -0.234235         1    ;  uncertainty k = 0.255324
        25        24        23        38     9      180.000000        8.539485         2    ;  uncertainty k = 0.302303
        25        24        23        38     9        0.000000        0.791090         3    ;  uncertainty k = 0.302726
        25        24        23        38     9      180.000000        0.996026         4    ;  uncertainty k = 0.177952
        25        24        26        39     9        0.000000       -0.415350         1    ;  uncertainty k = 0.228614
        25        24        26        39     9      180.000000        9.086428         2    ;  uncertainty k = 0.377299
        25        24        26        39     9        0.000000        0.802705         3    ;  uncertainty k = 0.232487
        25        24        26        39     9      180.000000        1.043252         4    ;  uncertainty k = 0.211577
        26        19        20        37     9        0.000000        0.218088         1    ;  uncertainty k = 0.243952
        26        19        20        37     9      180.000000        6.917737         2    ;  uncertainty k = 0.583902
        26        19        20        37     9        0.000000        1.463818         3    ;  uncertainty k = 0.217536
        26        19        20        37     9      180.000000        1.686540         4    ;  uncertainty k = 0.256320
        26        24        23        38     9        0.000000        0.130307         1    ;  uncertainty k = 0.144654
        26        24        23        38     9      180.000000        5.532843         2    ;  uncertainty k = 0.680369
        26        24        23        38     9        0.000000        1.265320         3    ;  uncertainty k = 0.294958
        26        24        23        38     9      180.000000        1.481410         4    ;  uncertainty k = 0.077611
        27         6         7        30     9        0.000000        0.159662         1    ;  uncertainty k = 0.102219
        27         6         7        30     9      180.000000        6.828218         2    ;  uncertainty k = 0.619271
        27         6         7        30     9        0.000000        1.372519         3    ;  uncertainty k = 0.244793
        27         6         7        30     9      180.000000        1.669276         4    ;  uncertainty k = 0.258717
        27        10         9        32     9        0.000000        0.236829         1    ;  uncertainty k = 0.190216
        27        10         9        32     9      180.000000        7.168084         2    ;  uncertainty k = 0.671385
        27        10         9        32     9        0.000000        1.419293         3    ;  uncertainty k = 0.352317
        27        10         9        32     9      180.000000        1.645328         4    ;  uncertainty k = 0.181640
        27        10        11        33     9        0.000000       -0.396807         1    ;  uncertainty k = 0.267181
        27        10        11        33     9      180.000000        1.878222         2    ;  uncertainty k = 0.149601
        27        10        11        33     9        0.000000        0.481583         3    ;  uncertainty k = 0.081470
        27        10        11        33     9      180.000000        0.144782         4    ;  uncertainty k = 0.035301
        27        10        11        34     9        0.000000       -0.396807         1    ;  uncertainty k = 0.267182
        27        10        11        34     9      180.000000        1.878223         2    ;  uncertainty k = 0.149602
        27        10        11        34     9        0.000000        0.481583         3    ;  uncertainty k = 0.081470
        27        10        11        34     9      180.000000        0.144782         4    ;  uncertainty k = 0.035301
        28         2         1        41     9        0.000000        0.247433         1    ;  uncertainty k = 0.350708
        28         2         1        41     9      180.000000        5.478380         2    ;  uncertainty k = 1.016620
        28         2         1        41     9        0.000000        1.147519         3    ;  uncertainty k = 0.553499
        28         2         1        41     9      180.000000        0.376241         4    ;  uncertainty k = 0.187918
        28         2         3        29     9        0.000000        0.233473         1    ;  uncertainty k = 0.844427
        28         2         3        29     9      180.000000        1.625411         2    ;  uncertainty k = 0.487764
        28         2         3        29     9        0.000000        1.155210         3    ;  uncertainty k = 0.374923
        28         2         3        29     9      180.000000        0.141172         4    ;  uncertainty k = 0.168742
        30         7         8        31     9        0.000000       -0.063367         1    ;  uncertainty k = 0.128594
        30         7         8        31     9      180.000000        7.668242         2    ;  uncertainty k = 0.395550
        30         7         8        31     9        0.000000       -0.434721         3    ;  uncertainty k = 0.236055
        30         7         8        31     9      180.000000        0.140809         4    ;  uncertainty k = 0.120020
        31         8         9        32     9        0.000000       -0.195186         1    ;  uncertainty k = 0.115530
        31         8         9        32     9      180.000000        7.560295         2    ;  uncertainty k = 0.286303
        31         8         9        32     9        0.000000       -0.444527         3    ;  uncertainty k = 0.272321
        31         8         9        32     9      180.000000        0.115377         4    ;  uncertainty k = 0.125979
        35        15        16        36     9        0.000000       -0.308549         1    ;  uncertainty k = 0.397502
        35        15        16        36     9      180.000000       12.289337         2    ;  uncertainty k = 0.583478
        35        15        16        36     9        0.000000        1.036027         3    ;  uncertainty k = 0.400452
        35        15        16        36     9      180.000000        0.764718         4    ;  uncertainty k = 0.591319

[ dihedrals ] ; impropers
;       ai        aj        ak        al funct           phase               k        pn
         1         2         5        41     4      180.000000        0.591073         2    ;  uncertainty k = 0.435177
         1         5        41         2     4      180.000000        0.591073         2    ;  uncertainty k = 0.435177
         1        41         2         5     4      180.000000        0.591073         2    ;  uncertainty k = 0.435177
         2         1         3        28     4      180.000000        4.840819         2    ;  uncertainty k = 0.384700
         2         3        28         1     4      180.000000        4.840819         2    ;  uncertainty k = 0.384700
         2        28         1         3     4      180.000000        4.840819         2    ;  uncertainty k = 0.384700
         4         3         5         6     4      180.000000       10.745426         2    ;  uncertainty k = 0.100016
         4         5         6         3     4      180.000000       10.745426         2    ;  uncertainty k = 0.100016
         4         6         3         5     4      180.000000       10.745426         2    ;  uncertainty k = 0.100016
         6         4         7        27     4      180.000000       11.015393         2    ;  uncertainty k = 0.051474
         6         7        27         4     4      180.000000       11.015393         2    ;  uncertainty k = 0.051474
         6        27         4         7     4      180.000000       11.015393         2    ;  uncertainty k = 0.051474
         7         6         8        30     4      180.000000        3.855596         2    ;  uncertainty k = 0.163699
         7         8        30         6     4      180.000000        3.855596         2    ;  uncertainty k = 0.163699
         7        30         6         8     4      180.000000        3.855596         2    ;  uncertainty k = 0.163699
         8         7         9        31     4      180.000000        4.092615         2    ;  uncertainty k = 0.159360
         8         9        31         7     4      180.000000        4.092615         2    ;  uncertainty k = 0.159360
         8        31         7         9     4      180.000000        4.092615         2    ;  uncertainty k = 0.159360
         9         8        10        32     4      180.000000        4.601779         2    ;  uncertainty k = 0.180333
         9        10        32         8     4      180.000000        4.601779         2    ;  uncertainty k = 0.180333
         9        32         8        10     4      180.000000        4.601779         2    ;  uncertainty k = 0.180333
        10         9        11        27     4      180.000000       11.871641         2    ;  uncertainty k = 0.080710
        10        11        27         9     4      180.000000       11.871641         2    ;  uncertainty k = 0.080710
        10        27         9        11     4      180.000000       11.871641         2    ;  uncertainty k = 0.080710
        12        11        13        17     4      180.000000        4.907194         2    ;  uncertainty k = 0.610506
        12        13        17        11     4      180.000000        4.907194         2    ;  uncertainty k = 0.610506
        12        17        11        13     4      180.000000        4.907194         2    ;  uncertainty k = 0.610506
        14        13        15        19     4      180.000000       17.338875         2    ;  uncertainty k = 0.107858
        14        15        19        13     4      180.000000       17.338875         2    ;  uncertainty k = 0.107858
        14        19        13        15     4      180.000000       17.338875         2    ;  uncertainty k = 0.107858
        15        14        16        35     4      180.000000        6.632123         2    ;  uncertainty k = 0.364368
        15        16        35        14     4      180.000000        6.632123         2    ;  uncertainty k = 0.364368
        15        35        14        16     4      180.000000        6.632123         2    ;  uncertainty k = 0.364368
        16        15        17        36     4      180.000000        3.715532         2    ;  uncertainty k = 0.270488
        16        17        36        15     4      180.000000        3.715532         2    ;  uncertainty k = 0.270488
        16        36        15        17     4      180.000000        3.715532         2    ;  uncertainty k = 0.270488
        17        12        16        18     4      180.000000       49.481395         2    ;  uncertainty k = 0.023227
        17        16        18        12     4      180.000000       49.481395         2    ;  uncertainty k = 0.023227
        17        18        12        16     4      180.000000       49.481395         2    ;  uncertainty k = 0.023227
        19        14        20        26     4      180.000000       12.665951         2    ;  uncertainty k = 0.077152
        19        20        26        14     4      180.000000       12.665951         2    ;  uncertainty k = 0.077152
        19        26        14        20     4      180.000000       12.665951         2    ;  uncertainty k = 0.077152
        20        19        21        37     4      180.000000        2.108081         2    ;  uncertainty k = 0.256057
        20        21        37        19     4      180.000000        2.108081         2    ;  uncertainty k = 0.256057
        20        37        19        21     4      180.000000        2.108081         2    ;  uncertainty k = 0.256057
        21        20        22        23     4      180.000000       17.764894         2    ;  uncertainty k = 0.031615
        21        22        23        20     4      180.000000       17.764894         2    ;  uncertainty k = 0.031615
        21        23        20        22     4      180.000000       17.764894         2    ;  uncertainty k = 0.031615
        23        21        24        38     4      180.000000        1.216899         2    ;  uncertainty k = 0.080605
        23        24        38        21     4      180.000000        1.216899         2    ;  uncertainty k = 0.080605
        23        38        21        24     4      180.000000        1.216899         2    ;  uncertainty k = 0.080605
        24        23        25        26     4      180.000000       17.764895         2    ;  uncertainty k = 0.031616
        24        25        26        23     4      180.000000       17.764895         2    ;  uncertainty k = 0.031616
        24        26        23        25     4      180.000000       17.764895         2    ;  uncertainty k = 0.031616
        26        19        24        39     4      180.000000        2.108084         2    ;  uncertainty k = 0.256058
        26        24        39        19     4      180.000000        2.108084         2    ;  uncertainty k = 0.256058
        26        39        19        24     4      180.000000        2.108084         2    ;  uncertainty k = 0.256058
        27         6        10        40     4      180.000000        4.426838         2    ;  uncertainty k = 0.268558
        27        10        40         6     4      180.000000        4.426838         2    ;  uncertainty k = 0.268558
        27        40         6        10     4      180.000000        4.426838         2    ;  uncertainty k = 0.268558

[ pairs ]
;       ai        aj funct
         1         6     1
         1        29     1
         1        42     1
         1        43     1
         1        44     1
         2         6     1
         3         7     1
         3        27     1
         3        41     1
         3        42     1
         3        43     1
         3        44     1
         4         8     1
         4        10     1
         4        28     1
         4        30     1
         4        40     1
         4        41     1
         5         7     1
         5        27     1
         5        28     1
         5        29     1
         6         9     1
         6        11     1
         6        29     1
         6        31     1
         7        10     1
         7        32     1
         7        40     1
         8        11     1
         8        27     1
         9        12     1
         9        30     1
         9        33     1
         9        34     1
         9        40     1
        10        13     1
        10        17     1
        10        31     1
        11        14     1
        11        16     1
        11        18     1
        11        32     1
        11        40     1
        12        15     1
        12        19     1
        12        27     1
        12        36     1
        13        16     1
        13        18     1
        13        20     1
        13        26     1
        13        33     1
        13        34     1
        13        35     1
        14        17     1
        14        21     1
        14        24     1
        14        36     1
        14        37     1
        14        39     1
        15        18     1
        15        20     1
        15        26     1
        16        19     1
        17        33     1
        17        34     1
        17        35     1
        18        36     1
        19        22     1
        19        23     1
        19        25     1
        19        35     1
        20        24     1
        20        38     1
        20        39     1
        21        25     1
        21        26     1
        22        24     1
        22        37     1
        22        38     1
        23        37     1
        23        39     1
        25        38     1
        25        39     1
        26        37     1
        26        38     1
        27        30     1
        27        32     1
        27        33     1
        27        34     1
        28        29     1
        28        41     1
        30        31     1
        31        32     1
        35        36     1
