; ITP file created by ByteFF-joint-25, 2026-02-17 09:11:20.455939

[ atomtypes ]
;name           bonded.type        at.num        mass        charge   ptype           sigma         epsilon
 c0bf                                   6      0.0000       0.00000       A     3.39780e-01     4.50832e-01    ;  uncertainty sigma = 0.000006, epsilon = 0.000514
 n1bf                                   7      0.0000       0.00000       A     2.58845e-01     1.06529e+01    ;  uncertainty sigma = 0.000036, epsilon = 0.001036
 c2bf                                   6      0.0000       0.00000       A     3.39757e-01     4.50633e-01    ;  uncertainty sigma = 0.000006, epsilon = 0.000771
 c3bf                                   6      0.0000       0.00000       A     3.39758e-01     4.50997e-01    ;  uncertainty sigma = 0.000011, epsilon = 0.000672
 c4bf                                   6      0.0000       0.00000       A     3.39747e-01     4.50778e-01    ;  uncertainty sigma = 0.000014, epsilon = 0.000891
 c5bf                                   6      0.0000       0.00000       A     3.39772e-01     4.50421e-01    ;  uncertainty sigma = 0.000016, epsilon = 0.000889
 o6bf                                   8      0.0000       0.00000       A     3.15655e-01     3.04946e-01    ;  uncertainty sigma = 0.000023, epsilon = 0.001070
 c7bf                                   6      0.0000       0.00000       A     3.31542e-01     4.12336e-01    ;  uncertainty sigma = 0.000013, epsilon = 0.002085
 c8bf                                   6      0.0000       0.00000       A     3.31543e-01     4.13265e-01    ;  uncertainty sigma = 0.000007, epsilon = 0.000719
 n9bf                                   7      0.0000       0.00000       A     3.38408e-01     3.93550e-01    ;  uncertainty sigma = 0.000017, epsilon = 0.000712
 c10bf                                  6      0.0000       0.00000       A     3.31469e-01     4.13138e-01    ;  uncertainty sigma = 0.000018, epsilon = 0.000710
 n11bf                                  7      0.0000       0.00000       A     3.38408e-01     3.93550e-01    ;  uncertainty sigma = 0.000017, epsilon = 0.000712
 c12bf                                  6      0.0000       0.00000       A     3.31543e-01     4.13265e-01    ;  uncertainty sigma = 0.000007, epsilon = 0.000719
 c13bf                                  6      0.0000       0.00000       A     3.31542e-01     4.13088e-01    ;  uncertainty sigma = 0.000011, epsilon = 0.000816
 c14bf                                  6      0.0000       0.00000       A     3.31518e-01     4.13405e-01    ;  uncertainty sigma = 0.000007, epsilon = 0.000656
 c15bf                                  6      0.0000       0.00000       A     3.31517e-01     4.13450e-01    ;  uncertainty sigma = 0.000002, epsilon = 0.000660
 c16bf                                  6      0.0000       0.00000       A     3.31517e-01     4.13355e-01    ;  uncertainty sigma = 0.000004, epsilon = 0.000528
 c17bf                                  6      0.0000       0.00000       A     3.31504e-01     4.13393e-01    ;  uncertainty sigma = 0.000003, epsilon = 0.000338
 c18bf                                  6      0.0000       0.00000       A     3.39766e-01     4.50446e-01    ;  uncertainty sigma = 0.000009, epsilon = 0.000438
 n19bf                                  7      0.0000       0.00000       A     3.18130e-01     6.84059e-01    ;  uncertainty sigma = 0.000031, epsilon = 0.002260
 n20bf                                  7      0.0000       0.00000       A     3.38449e-01     3.94403e-01    ;  uncertainty sigma = 0.000019, epsilon = 0.001004
 c21bf                                  6      0.0000       0.00000       A     3.31503e-01     4.13517e-01    ;  uncertainty sigma = 0.000031, epsilon = 0.001019
 c22bf                                  6      0.0000       0.00000       A     3.31517e-01     4.13271e-01    ;  uncertainty sigma = 0.000015, epsilon = 0.000991
 c23bf                                  6      0.0000       0.00000       A     3.31479e-01     4.13326e-01    ;  uncertainty sigma = 0.000018, epsilon = 0.001521
 c24bf                                  6      0.0000       0.00000       A     3.31546e-01     4.13945e-01    ;  uncertainty sigma = 0.000006, epsilon = 0.001637
 o25bf                                  8      0.0000       0.00000       A     3.04802e-01     6.12255e-01    ;  uncertainty sigma = 0.000021, epsilon = 0.001273
 c26bf                                  6      0.0000       0.00000       A     3.31523e-01     4.13373e-01    ;  uncertainty sigma = 0.000012, epsilon = 0.000634
 c27bf                                  6      0.0000       0.00000       A     3.31516e-01     4.13348e-01    ;  uncertainty sigma = 0.000006, epsilon = 0.000675
 c28bf                                  6      0.0000       0.00000       A     3.31514e-01     4.13346e-01    ;  uncertainty sigma = 0.000005, epsilon = 0.000579
 c29bf                                  6      0.0000       0.00000       A     3.31511e-01     4.13260e-01    ;  uncertainty sigma = 0.000005, epsilon = 0.000565
 c30bf                                  6      0.0000       0.00000       A     3.31527e-01     4.13572e-01    ;  uncertainty sigma = 0.000012, epsilon = 0.000836
 c31bf                                  6      0.0000       0.00000       A     3.31513e-01     4.13101e-01    ;  uncertainty sigma = 0.000008, epsilon = 0.000774
 c32bf                                  6      0.0000       0.00000       A     3.47934e-01     6.67795e-01    ;  uncertainty sigma = 0.000027, epsilon = 0.001251
 n33bf                                  7      0.0000       0.00000       A     3.27375e-01     4.59084e-01    ;  uncertainty sigma = 0.000021, epsilon = 0.000492
 c34bf                                  6      0.0000       0.00000       A     3.31508e-01     4.13193e-01    ;  uncertainty sigma = 0.000012, epsilon = 0.000741
 c35bf                                  6      0.0000       0.00000       A     3.39758e-01     4.50997e-01    ;  uncertainty sigma = 0.000011, epsilon = 0.000672
 c36bf                                  6      0.0000       0.00000       A     3.39757e-01     4.50633e-01    ;  uncertainty sigma = 0.000006, epsilon = 0.000771
 h37bf                                  1      0.0000       0.00000       A     1.88744e-01     8.64263e-02    ;  uncertainty sigma = 0.000038, epsilon = 0.000477
 h38bf                                  1      0.0000       0.00000       A     1.88744e-01     8.64263e-02    ;  uncertainty sigma = 0.000038, epsilon = 0.000477
 h39bf                                  1      0.0000       0.00000       A     1.88744e-01     8.64263e-02    ;  uncertainty sigma = 0.000038, epsilon = 0.000477
 h40bf                                  1      0.0000       0.00000       A     1.88798e-01     8.66576e-02    ;  uncertainty sigma = 0.000068, epsilon = 0.000791
 h41bf                                  1      0.0000       0.00000       A     1.88798e-01     8.66576e-02    ;  uncertainty sigma = 0.000068, epsilon = 0.000791
 h42bf                                  1      0.0000       0.00000       A     2.60015e-01     8.68108e-02    ;  uncertainty sigma = 0.000009, epsilon = 0.000841
 h43bf                                  1      0.0000       0.00000       A     2.60015e-01     8.68108e-02    ;  uncertainty sigma = 0.000009, epsilon = 0.000841
 h44bf                                  1      0.0000       0.00000       A     2.59991e-01     8.60932e-02    ;  uncertainty sigma = 0.000010, epsilon = 0.001173
 h45bf                                  1      0.0000       0.00000       A     2.42150e-01     8.66921e-02    ;  uncertainty sigma = 0.000013, epsilon = 0.000578
 h46bf                                  1      0.0000       0.00000       A     2.42150e-01     8.66921e-02    ;  uncertainty sigma = 0.000013, epsilon = 0.000578
 h47bf                                  1      0.0000       0.00000       A     2.53665e-01     6.72126e-02    ;  uncertainty sigma = 0.000035, epsilon = 0.000623
 h48bf                                  1      0.0000       0.00000       A     2.53665e-01     6.72126e-02    ;  uncertainty sigma = 0.000035, epsilon = 0.000623
 h49bf                                  1      0.0000       0.00000       A     2.62563e-01     6.70454e-02    ;  uncertainty sigma = 0.000011, epsilon = 0.000576
 h50bf                                  1      0.0000       0.00000       A     2.62563e-01     6.70147e-02    ;  uncertainty sigma = 0.000010, epsilon = 0.000410
 h51bf                                  1      0.0000       0.00000       A     2.62563e-01     6.70958e-02    ;  uncertainty sigma = 0.000006, epsilon = 0.000590
 h52bf                                  1      0.0000       0.00000       A     2.42236e-01     8.69097e-02    ;  uncertainty sigma = 0.000033, epsilon = 0.000580
 h53bf                                  1      0.0000       0.00000       A     2.42236e-01     8.69097e-02    ;  uncertainty sigma = 0.000033, epsilon = 0.000580
 h54bf                                  1      0.0000       0.00000       A     2.62549e-01     6.67403e-02    ;  uncertainty sigma = 0.000015, epsilon = 0.000444
 h55bf                                  1      0.0000       0.00000       A     2.62519e-01     6.70320e-02    ;  uncertainty sigma = 0.000024, epsilon = 0.000744
 h56bf                                  1      0.0000       0.00000       A     2.62560e-01     6.70284e-02    ;  uncertainty sigma = 0.000012, epsilon = 0.000523
 h57bf                                  1      0.0000       0.00000       A     2.62563e-01     6.70148e-02    ;  uncertainty sigma = 0.000010, epsilon = 0.000410
 h58bf                                  1      0.0000       0.00000       A     2.62572e-01     6.69859e-02    ;  uncertainty sigma = 0.000015, epsilon = 0.000486
 h59bf                                  1      0.0000       0.00000       A     2.62559e-01     6.70892e-02    ;  uncertainty sigma = 0.000012, epsilon = 0.000870
 h60bf                                  1      0.0000       0.00000       A     2.62558e-01     6.71383e-02    ;  uncertainty sigma = 0.000013, epsilon = 0.000769
 h61bf                                  1      0.0000       0.00000       A     2.60015e-01     8.68108e-02    ;  uncertainty sigma = 0.000009, epsilon = 0.000841
 h62bf                                  1      0.0000       0.00000       A     2.60015e-01     8.68108e-02    ;  uncertainty sigma = 0.000009, epsilon = 0.000841
 h63bf                                  1      0.0000       0.00000       A     1.88798e-01     8.66576e-02    ;  uncertainty sigma = 0.000068, epsilon = 0.000791
 h64bf                                  1      0.0000       0.00000       A     1.88798e-01     8.66575e-02    ;  uncertainty sigma = 0.000068, epsilon = 0.000791
 h65bf                                  1      0.0000       0.00000       A     1.10646e-01     4.13024e-02    ;  uncertainty sigma = 0.000116, epsilon = 0.000734

[ moleculetype ]
;name             nrexcl
 MOL                   3

[ atoms ]
;       nr            type      resi   res      atom      cgnr      charge          mass ; qtot
         1            c0bf         1   UNL        c0         1     0.11295       12.0110 ; qtot    0.113
         2            n1bf         1   UNL        n1         2    -0.71794       14.0070 ; qtot   -0.605
         3            c2bf         1   UNL        c2         3     0.14165       12.0110 ; qtot   -0.463
         4            c3bf         1   UNL        c3         4    -0.09746       12.0110 ; qtot   -0.561
         5            c4bf         1   UNL        c4         5    -0.06660       12.0110 ; qtot   -0.627
         6            c5bf         1   UNL        c5         6     0.14077       12.0110 ; qtot   -0.487
         7            o6bf         1   UNL        o6         7    -0.31751       15.9990 ; qtot   -0.804
         8            c7bf         1   UNL        c7         8    -0.10407       12.0110 ; qtot   -0.908
         9            c8bf         1   UNL        c8         9     0.39417       12.0110 ; qtot   -0.514
        10            n9bf         1   UNL        n9        10    -0.67794       14.0070 ; qtot   -1.192
        11           c10bf         1   UNL       c10        11     0.69795       12.0110 ; qtot   -0.494
        12           n11bf         1   UNL       n11        12    -0.67794       14.0070 ; qtot   -1.172
        13           c12bf         1   UNL       c12        13     0.39417       12.0110 ; qtot   -0.778
        14           c13bf         1   UNL       c13        14    -0.15593       12.0110 ; qtot   -0.934
        15           c14bf         1   UNL       c14        15    -0.08221       12.0110 ; qtot   -1.016
        16           c15bf         1   UNL       c15        16    -0.14526       12.0110 ; qtot   -1.161
        17           c16bf         1   UNL       c16        17    -0.09108       12.0110 ; qtot   -1.252
        18           c17bf         1   UNL       c17        18    -0.12699       12.0110 ; qtot   -1.379
        19           c18bf         1   UNL       c18        19     0.15983       12.0110 ; qtot   -1.219
        20           n19bf         1   UNL       n19        20    -0.20396       14.0070 ; qtot   -1.423
        21           n20bf         1   UNL       n20        21    -0.41337       14.0070 ; qtot   -1.837
        22           c21bf         1   UNL       c21        22     0.39282       12.0110 ; qtot   -1.444
        23           c22bf         1   UNL       c22        23    -0.16877       12.0110 ; qtot   -1.613
        24           c23bf         1   UNL       c23        24    -0.21412       12.0110 ; qtot   -1.827
        25           c24bf         1   UNL       c24        25     0.67439       12.0110 ; qtot   -1.152
        26           o25bf         1   UNL       o25        26    -0.61615       15.9990 ; qtot   -1.769
        27           c26bf         1   UNL       c26        27    -0.12069       12.0110 ; qtot   -1.889
        28           c27bf         1   UNL       c27        28    -0.08042       12.0110 ; qtot   -1.970
        29           c28bf         1   UNL       c28        29    -0.13727       12.0110 ; qtot   -2.107
        30           c29bf         1   UNL       c29        30    -0.08015       12.0110 ; qtot   -2.187
        31           c30bf         1   UNL       c30        31    -0.01718       12.0110 ; qtot   -2.204
        32           c31bf         1   UNL       c31        32    -0.06869       12.0110 ; qtot   -2.273
        33           c32bf         1   UNL       c32        33     0.23145       12.0110 ; qtot   -2.042
        34           n33bf         1   UNL       n33        34    -0.35686       14.0070 ; qtot   -2.398
        35           c34bf         1   UNL       c34        35    -0.06423       12.0110 ; qtot   -2.463
        36           c35bf         1   UNL       c35        36    -0.09746       12.0110 ; qtot   -2.560
        37           c36bf         1   UNL       c36        37     0.14165       12.0110 ; qtot   -2.418
        38           h37bf         1   UNL       h37        38     0.10283        1.0080 ; qtot   -2.316
        39           h38bf         1   UNL       h38        39     0.10283        1.0080 ; qtot   -2.213
        40           h39bf         1   UNL       h39        40     0.10283        1.0080 ; qtot   -2.110
        41           h40bf         1   UNL       h40        41     0.09870        1.0080 ; qtot   -2.011
        42           h41bf         1   UNL       h41        42     0.09870        1.0080 ; qtot   -1.913
        43           h42bf         1   UNL       h42        43     0.08764        1.0080 ; qtot   -1.825
        44           h43bf         1   UNL       h43        44     0.08764        1.0080 ; qtot   -1.737
        45           h44bf         1   UNL       h44        45     0.08121        1.0080 ; qtot   -1.656
        46           h45bf         1   UNL       h45        46     0.05119        1.0080 ; qtot   -1.605
        47           h46bf         1   UNL       h46        47     0.05119        1.0080 ; qtot   -1.554
        48           h47bf         1   UNL       h47        48     0.03603        1.0080 ; qtot   -1.518
        49           h48bf         1   UNL       h48        49     0.03603        1.0080 ; qtot   -1.482
        50           h49bf         1   UNL       h49        50     0.15226        1.0080 ; qtot   -1.329
        51           h50bf         1   UNL       h50        51     0.13595        1.0080 ; qtot   -1.193
        52           h51bf         1   UNL       h51        52     0.13982        1.0080 ; qtot   -1.054
        53           h52bf         1   UNL       h52        53     0.08064        1.0080 ; qtot   -0.973
        54           h53bf         1   UNL       h53        54     0.08064        1.0080 ; qtot   -0.892
        55           h54bf         1   UNL       h54        55     0.15224        1.0080 ; qtot   -0.740
        56           h55bf         1   UNL       h55        56     0.16763        1.0080 ; qtot   -0.572
        57           h56bf         1   UNL       h56        57     0.14378        1.0080 ; qtot   -0.429
        58           h57bf         1   UNL       h57        58     0.14619        1.0080 ; qtot   -0.282
        59           h58bf         1   UNL       h58        59     0.14719        1.0080 ; qtot   -0.135
        60           h59bf         1   UNL       h59        60     0.15869        1.0080 ; qtot    0.023
        61           h60bf         1   UNL       h60        61     0.15650        1.0080 ; qtot    0.180
        62           h61bf         1   UNL       h61        62     0.08764        1.0080 ; qtot    0.268
        63           h62bf         1   UNL       h62        63     0.08764        1.0080 ; qtot    0.355
        64           h63bf         1   UNL       h63        64     0.09870        1.0080 ; qtot    0.454
        65           h64bf         1   UNL       h64        65     0.09870        1.0080 ; qtot    0.553
        66           h65bf         1   UNL       h65        66     0.44742        1.0080 ; qtot    1.000

[ bonds ]
;       ai        aj funct               r               k
         1         2     1        0.150373   206367.462134    ;  uncertainty r = 0.000046, k = 26.113749
         1        38     1        0.109000   315038.447656    ;  uncertainty r = 0.000021, k = 4.201431
         1        39     1        0.109000   315038.447656    ;  uncertainty r = 0.000021, k = 4.201431
         1        40     1        0.109000   315038.447656    ;  uncertainty r = 0.000021, k = 4.201431
         2         3     1        0.152385   180928.951538    ;  uncertainty r = 0.000025, k = 11.501890
         2        37     1        0.152385   180928.951538    ;  uncertainty r = 0.000025, k = 11.501890
         2        66     1        0.102672   387940.817090    ;  uncertainty r = 0.000042, k = 5.246061
         3         4     1        0.152720   207324.899438    ;  uncertainty r = 0.000037, k = 8.101823
         3        41     1        0.109163   310184.915723    ;  uncertainty r = 0.000019, k = 1.594780
         3        42     1        0.109163   310184.915723    ;  uncertainty r = 0.000019, k = 1.594780
         4         5     1        0.153673   207119.606616    ;  uncertainty r = 0.000129, k = 4.091968
         4        43     1        0.109512   310209.686719    ;  uncertainty r = 0.000027, k = 1.081386
         4        44     1        0.109512   310209.686719    ;  uncertainty r = 0.000027, k = 1.081386
         5         6     1        0.152389   200903.018701    ;  uncertainty r = 0.000113, k = 5.767785
         5        36     1        0.153673   207119.606616    ;  uncertainty r = 0.000129, k = 4.091968
         5        45     1        0.109626   306426.976855    ;  uncertainty r = 0.000018, k = 2.832343
         6         7     1        0.142731   234718.748193    ;  uncertainty r = 0.000142, k = 10.620674
         6        46     1        0.109804   309404.322900    ;  uncertainty r = 0.000043, k = 2.513546
         6        47     1        0.109804   309404.322900    ;  uncertainty r = 0.000043, k = 2.513546
         7         8     1        0.135672   319072.851270    ;  uncertainty r = 0.000196, k = 7.649026
         8         9     1        0.139650   371234.465674    ;  uncertainty r = 0.000057, k = 9.327244
         8        13     1        0.139650   371234.465674    ;  uncertainty r = 0.000057, k = 9.327244
         9        10     1        0.133052   409507.289014    ;  uncertainty r = 0.000045, k = 3.978596
         9        48     1        0.109049   334674.033203    ;  uncertainty r = 0.000040, k = 3.955281
        10        11     1        0.135006   359311.214844    ;  uncertainty r = 0.000174, k = 8.718504
        11        12     1        0.135006   359311.214844    ;  uncertainty r = 0.000174, k = 8.718504
        11        14     1        0.146856   259787.021777    ;  uncertainty r = 0.000158, k = 4.145137
        12        13     1        0.133052   409507.289014    ;  uncertainty r = 0.000045, k = 3.978596
        13        49     1        0.109049   334674.033203    ;  uncertainty r = 0.000040, k = 3.955281
        14        15     1        0.139722   342720.214551    ;  uncertainty r = 0.000075, k = 2.913374
        14        35     1        0.139409   336931.871191    ;  uncertainty r = 0.000073, k = 5.943882
        15        16     1        0.139280   367550.865332    ;  uncertainty r = 0.000042, k = 4.029705
        15        50     1        0.108616   332854.973828    ;  uncertainty r = 0.000026, k = 0.969505
        16        17     1        0.139534   371200.960986    ;  uncertainty r = 0.000016, k = 1.371976
        16        51     1        0.108831   333139.355078    ;  uncertainty r = 0.000017, k = 1.252003
        17        18     1        0.139703   354765.558301    ;  uncertainty r = 0.000069, k = 2.816841
        17        52     1        0.108845   333137.720703    ;  uncertainty r = 0.000012, k = 0.688242
        18        19     1        0.151483   229275.104736    ;  uncertainty r = 0.000030, k = 5.987406
        18        35     1        0.139276   349283.149512    ;  uncertainty r = 0.000051, k = 4.888109
        19        20     1        0.146958   226285.092285    ;  uncertainty r = 0.000082, k = 7.991835
        19        53     1        0.109288   307627.680664    ;  uncertainty r = 0.000019, k = 0.761514
        19        54     1        0.109288   307627.680664    ;  uncertainty r = 0.000019, k = 0.761514
        20        21     1        0.133719   291839.975684    ;  uncertainty r = 0.000103, k = 13.619035
        20        25     1        0.139210   287082.488818    ;  uncertainty r = 0.000112, k = 8.370549
        21        22     1        0.130289   485921.751563    ;  uncertainty r = 0.000125, k = 7.398597
        22        23     1        0.143231   248898.100488    ;  uncertainty r = 0.000132, k = 12.892403
        22        27     1        0.147209   259830.485937    ;  uncertainty r = 0.000076, k = 3.054597
        23        24     1        0.134977   481508.785840    ;  uncertainty r = 0.000047, k = 10.409232
        23        55     1        0.108783   336902.886572    ;  uncertainty r = 0.000050, k = 1.619692
        24        25     1        0.145432   272577.129785    ;  uncertainty r = 0.000089, k = 4.402628
        24        56     1        0.108708   341990.721484    ;  uncertainty r = 0.000030, k = 2.410396
        25        26     1        0.124008   735950.328809    ;  uncertainty r = 0.000059, k = 6.569289
        27        28     1        0.140023   343325.750488    ;  uncertainty r = 0.000056, k = 1.895607
        27        32     1        0.139519   345222.953418    ;  uncertainty r = 0.000071, k = 1.383678
        28        29     1        0.139387   366922.243848    ;  uncertainty r = 0.000026, k = 2.833713
        28        57     1        0.108734   334090.612402    ;  uncertainty r = 0.000017, k = 0.499588
        29        30     1        0.139214   371154.355762    ;  uncertainty r = 0.000024, k = 1.187547
        29        58     1        0.108757   333316.531543    ;  uncertainty r = 0.000013, k = 0.993034
        30        31     1        0.140449   359897.546875    ;  uncertainty r = 0.000023, k = 1.366515
        30        59     1        0.108671   332748.279785    ;  uncertainty r = 0.000012, k = 0.493514
        31        32     1        0.140171   355207.452441    ;  uncertainty r = 0.000060, k = 2.408052
        31        33     1        0.143741   315919.554541    ;  uncertainty r = 0.000019, k = 3.318070
        32        60     1        0.108628   333098.087109    ;  uncertainty r = 0.000028, k = 1.127196
        33        34     1        0.116666  1127116.482813    ;  uncertainty r = 0.000023, k = 3.045821
        35        61     1        0.108682   331298.767920    ;  uncertainty r = 0.000030, k = 1.060854
        36        37     1        0.152720   207324.899438    ;  uncertainty r = 0.000037, k = 8.101851
        36        62     1        0.109512   310209.661182    ;  uncertainty r = 0.000027, k = 1.081392
        36        63     1        0.109512   310209.661182    ;  uncertainty r = 0.000027, k = 1.081392
        37        64     1        0.109163   310184.915723    ;  uncertainty r = 0.000019, k = 1.594782
        37        65     1        0.109163   310184.941260    ;  uncertainty r = 0.000019, k = 1.594785

[ angles ]
;       ai        aj        ak funct           theta             cth
         1         2         3     1      111.952988      656.165619    ;  uncertainty theta = 0.002038, k = 0.216409
         1         2        37     1      111.952988      656.165619    ;  uncertainty theta = 0.002038, k = 0.216409
         1         2        66     1      106.449265      462.830836    ;  uncertainty theta = 0.003028, k = 0.196508
         2         1        38     1      108.064407      475.124751    ;  uncertainty theta = 0.002496, k = 0.077785
         2         1        39     1      108.064407      475.124751    ;  uncertainty theta = 0.002496, k = 0.077785
         2         1        40     1      108.064407      475.124751    ;  uncertainty theta = 0.002496, k = 0.077785
         2         3         4     1      110.648300      714.584885    ;  uncertainty theta = 0.001835, k = 0.084787
         2         3        41     1      106.208534      470.918502    ;  uncertainty theta = 0.002465, k = 0.128544
         2         3        42     1      106.208534      470.918502    ;  uncertainty theta = 0.002465, k = 0.128544
         2        37        36     1      110.648300      714.584885    ;  uncertainty theta = 0.001835, k = 0.084787
         2        37        64     1      106.208534      470.918502    ;  uncertainty theta = 0.002465, k = 0.128544
         2        37        65     1      106.208534      470.918502    ;  uncertainty theta = 0.002465, k = 0.128544
         3         2        37     1      111.532616      638.006500    ;  uncertainty theta = 0.003086, k = 0.260680
         3         2        66     1      106.340111      443.963157    ;  uncertainty theta = 0.002797, k = 0.220931
         3         4         5     1      110.311317      590.637716    ;  uncertainty theta = 0.002833, k = 0.100685
         3         4        43     1      107.232910      412.037110    ;  uncertainty theta = 0.001500, k = 0.050282
         3         4        44     1      107.232910      412.037110    ;  uncertainty theta = 0.001500, k = 0.050282
         4         3        41     1      110.996681      412.191226    ;  uncertainty theta = 0.002390, k = 0.094725
         4         3        42     1      110.996681      412.191226    ;  uncertainty theta = 0.002390, k = 0.094725
         4         5         6     1      109.618141      553.987878    ;  uncertainty theta = 0.003368, k = 0.084760
         4         5        36     1      108.675171      610.626441    ;  uncertainty theta = 0.007147, k = 0.120429
         4         5        45     1      107.493835      399.239092    ;  uncertainty theta = 0.001829, k = 0.072022
         5         4        43     1      108.723389      393.962710    ;  uncertainty theta = 0.000931, k = 0.049004
         5         4        44     1      108.723389      393.962710    ;  uncertainty theta = 0.000931, k = 0.049004
         5         6         7     1      108.662796      572.844224    ;  uncertainty theta = 0.004131, k = 0.063084
         5         6        46     1      109.610313      402.419579    ;  uncertainty theta = 0.001613, k = 0.079597
         5         6        47     1      109.610313      402.419579    ;  uncertainty theta = 0.001613, k = 0.079597
         5        36        37     1      110.311317      590.637716    ;  uncertainty theta = 0.002833, k = 0.100685
         5        36        62     1      108.723389      393.962710    ;  uncertainty theta = 0.000931, k = 0.049004
         5        36        63     1      108.723389      393.962710    ;  uncertainty theta = 0.000931, k = 0.049004
         6         5        36     1      109.618141      553.987878    ;  uncertainty theta = 0.003368, k = 0.084760
         6         5        45     1      105.221962      396.503397    ;  uncertainty theta = 0.000678, k = 0.044309
         6         7         8     1      110.494240      503.277786    ;  uncertainty theta = 0.004149, k = 0.131074
         7         6        46     1      107.176613      433.948588    ;  uncertainty theta = 0.002835, k = 0.054213
         7         6        47     1      107.176613      433.948588    ;  uncertainty theta = 0.002835, k = 0.054213
         7         8         9     1      120.421509      397.745777    ;  uncertainty theta = 0.006284, k = 0.203226
         7         8        13     1      120.421509      397.745777    ;  uncertainty theta = 0.006284, k = 0.203226
         8         9        10     1      121.459816      687.052370    ;  uncertainty theta = 0.002770, k = 0.096907
         8         9        48     1      120.807884      255.585127    ;  uncertainty theta = 0.002857, k = 0.156130
         8        13        12     1      121.459816      687.052370    ;  uncertainty theta = 0.002770, k = 0.096907
         8        13        49     1      120.807884      255.585127    ;  uncertainty theta = 0.002857, k = 0.156130
         9         8        13     1      117.787918      353.429987    ;  uncertainty theta = 0.006786, k = 0.461603
         9        10        11     1      117.400002      371.939826    ;  uncertainty theta = 0.006314, k = 0.311534
        10         9        48     1      117.328102      329.482403    ;  uncertainty theta = 0.004684, k = 0.095959
        10        11        12     1      127.269669      797.523607    ;  uncertainty theta = 0.000954, k = 0.105380
        10        11        14     1      117.590942      445.732624    ;  uncertainty theta = 0.004282, k = 0.099810
        11        12        13     1      117.400002      371.939826    ;  uncertainty theta = 0.006314, k = 0.311534
        11        14        15     1      116.993896      401.563575    ;  uncertainty theta = 0.006089, k = 0.080841
        11        14        35     1      116.438187      397.763334    ;  uncertainty theta = 0.006185, k = 0.074267
        12        11        14     1      117.590942      445.732624    ;  uncertainty theta = 0.004282, k = 0.099810
        12        13        49     1      117.328102      329.482403    ;  uncertainty theta = 0.004684, k = 0.095959
        14        15        16     1      120.232346      524.525332    ;  uncertainty theta = 0.000782, k = 0.072775
        14        15        50     1      117.565109      261.796837    ;  uncertainty theta = 0.001353, k = 0.076979
        14        35        18     1      121.979675      528.275711    ;  uncertainty theta = 0.001822, k = 0.081800
        14        35        61     1      117.407730      263.631583    ;  uncertainty theta = 0.002520, k = 0.101620
        15        14        35     1      121.895348      436.115923    ;  uncertainty theta = 0.002603, k = 0.071744
        15        16        17     1      120.290504      506.484577    ;  uncertainty theta = 0.001272, k = 0.077873
        15        16        51     1      120.239822      284.659030    ;  uncertainty theta = 0.001522, k = 0.023723
        16        15        50     1      120.926468      288.832017    ;  uncertainty theta = 0.001396, k = 0.073927
        16        17        18     1      119.885025      524.221759    ;  uncertainty theta = 0.002065, k = 0.043778
        16        17        52     1      120.372025      293.531196    ;  uncertainty theta = 0.002545, k = 0.019543
        17        16        51     1      120.362267      284.047991    ;  uncertainty theta = 0.001711, k = 0.048928
        17        18        19     1      120.426491      424.552145    ;  uncertainty theta = 0.001183, k = 0.075232
        17        18        35     1      120.774338      455.617368    ;  uncertainty theta = 0.001449, k = 0.156970
        18        17        52     1      119.030472      270.213389    ;  uncertainty theta = 0.002268, k = 0.024349
        18        19        20     1      111.862549      642.493561    ;  uncertainty theta = 0.001364, k = 0.091263
        18        19        53     1      108.739967      417.311545    ;  uncertainty theta = 0.001881, k = 0.053917
        18        19        54     1      108.739967      417.311545    ;  uncertainty theta = 0.001881, k = 0.053917
        18        35        61     1      119.316833      276.390561    ;  uncertainty theta = 0.001305, k = 0.080104
        19        18        35     1      119.739639      404.422104    ;  uncertainty theta = 0.001445, k = 0.125283
        19        20        21     1      110.577988      500.240115    ;  uncertainty theta = 0.005833, k = 0.098935
        19        20        25     1      115.546555      389.353581    ;  uncertainty theta = 0.005911, k = 0.248842
        20        19        53     1      105.434021      444.191906    ;  uncertainty theta = 0.001612, k = 0.053315
        20        19        54     1      105.434021      444.191906    ;  uncertainty theta = 0.001612, k = 0.053315
        20        21        22     1      119.450600      508.727629    ;  uncertainty theta = 0.009321, k = 0.201408
        20        25        24     1      111.385643      354.543852    ;  uncertainty theta = 0.004876, k = 0.498397
        20        25        26     1      122.027390      653.228724    ;  uncertainty theta = 0.001797, k = 0.051888
        21        20        25     1      124.130821      552.011880    ;  uncertainty theta = 0.006513, k = 0.232379
        21        22        23     1      126.007484      532.717892    ;  uncertainty theta = 0.003400, k = 0.215105
        21        22        27     1      116.306534      445.678070    ;  uncertainty theta = 0.005685, k = 0.252427
        22        23        24     1      119.161461      481.776466    ;  uncertainty theta = 0.004785, k = 0.319757
        22        23        55     1      118.654724      262.502124    ;  uncertainty theta = 0.005379, k = 0.054973
        22        27        28     1      119.294250      392.640622    ;  uncertainty theta = 0.001890, k = 0.136995
        22        27        32     1      118.377304      398.312095    ;  uncertainty theta = 0.002136, k = 0.165419
        23        22        27     1      120.210983      387.197738    ;  uncertainty theta = 0.001472, k = 0.060395
        23        24        25     1      119.665359      523.118939    ;  uncertainty theta = 0.005349, k = 0.100266
        23        24        56     1      123.138992      265.276013    ;  uncertainty theta = 0.005028, k = 0.152927
        24        23        55     1      122.361343      282.774455    ;  uncertainty theta = 0.005531, k = 0.167097
        24        25        26     1      127.351974      536.919129    ;  uncertainty theta = 0.003562, k = 0.161864
        25        24        56     1      117.583885      254.681464    ;  uncertainty theta = 0.006644, k = 0.184684
        27        28        29     1      120.728432      531.409115    ;  uncertainty theta = 0.001088, k = 0.055647
        27        28        57     1      118.283035      265.226678    ;  uncertainty theta = 0.002384, k = 0.096901
        27        32        31     1      121.176956      527.098961    ;  uncertainty theta = 0.001539, k = 0.210044
        27        32        60     1      118.831528      266.008752    ;  uncertainty theta = 0.002520, k = 0.053619
        28        27        32     1      120.917435      435.258897    ;  uncertainty theta = 0.001988, k = 0.050253
        28        29        30     1      120.357773      513.305028    ;  uncertainty theta = 0.001195, k = 0.044943
        28        29        58     1      120.181786      285.648082    ;  uncertainty theta = 0.001415, k = 0.026175
        29        28        57     1      120.260780      291.050521    ;  uncertainty theta = 0.001952, k = 0.023667
        29        30        31     1      119.056808      528.205325    ;  uncertainty theta = 0.001455, k = 0.066558
        29        30        59     1      120.928673      284.795015    ;  uncertainty theta = 0.001593, k = 0.041022
        30        29        58     1      120.082779      285.777523    ;  uncertainty theta = 0.001663, k = 0.017613
        30        31        32     1      121.522682      453.057624    ;  uncertainty theta = 0.001015, k = 0.127241
        30        31        33     1      119.684837      375.502061    ;  uncertainty theta = 0.001761, k = 0.107159
        31        30        59     1      119.454544      281.924420    ;  uncertainty theta = 0.002619, k = 0.023302
        31        32        60     1      119.646629      285.302437    ;  uncertainty theta = 0.003448, k = 0.122220
        31        33        34     1      180.000000      234.872664    ;  uncertainty theta = 0.000000, k = 0.682644
        32        31        33     1      119.103981      372.342483    ;  uncertainty theta = 0.002619, k = 0.114759
        36         5        45     1      107.493835      399.239060    ;  uncertainty theta = 0.001829, k = 0.072022
        36        37        64     1      110.996666      412.191226    ;  uncertainty theta = 0.002390, k = 0.094725
        36        37        65     1      110.996666      412.191226    ;  uncertainty theta = 0.002390, k = 0.094725
        37         2        66     1      106.340111      443.963157    ;  uncertainty theta = 0.002797, k = 0.220931
        37        36        62     1      107.232910      412.037110    ;  uncertainty theta = 0.001500, k = 0.050282
        37        36        63     1      107.232910      412.037110    ;  uncertainty theta = 0.001500, k = 0.050282
        38         1        39     1      108.531784      323.850704    ;  uncertainty theta = 0.003642, k = 0.038982
        38         1        40     1      108.531784      323.850704    ;  uncertainty theta = 0.003642, k = 0.038982
        39         1        40     1      108.531784      323.850704    ;  uncertainty theta = 0.003642, k = 0.038982
        41         3        42     1      107.539284      325.846940    ;  uncertainty theta = 0.002892, k = 0.047937
        43         4        44     1      105.171669      316.053650    ;  uncertainty theta = 0.001990, k = 0.058446
        46         6        47     1      107.504700      333.912836    ;  uncertainty theta = 0.002332, k = 0.078856
        53        19        54     1      106.067017      312.923981    ;  uncertainty theta = 0.003423, k = 0.065436
        62        36        63     1      105.171669      316.053650    ;  uncertainty theta = 0.001990, k = 0.058446
        64        37        65     1      107.539284      325.846940    ;  uncertainty theta = 0.002892, k = 0.047937

[ dihedrals ] ; propers for gromacs 4.5 or higher, use funct 9
;       ai        aj        ak        al funct           phase               k        pn
         1         2         3         4     9        0.000000       -2.519607         1    ;  uncertainty k = 0.646144
         1         2         3         4     9      180.000000        0.991454         2    ;  uncertainty k = 0.472667
         1         2         3         4     9        0.000000        0.947609         3    ;  uncertainty k = 0.101192
         1         2         3         4     9      180.000000       -0.063788         4    ;  uncertainty k = 0.114090
         1         2         3        41     9        0.000000       -0.319814         1    ;  uncertainty k = 0.345214
         1         2         3        41     9      180.000000       -0.640414         2    ;  uncertainty k = 0.178768
         1         2         3        41     9        0.000000        0.822625         3    ;  uncertainty k = 0.124587
         1         2         3        41     9      180.000000       -0.021207         4    ;  uncertainty k = 0.090066
         1         2         3        42     9        0.000000       -0.319814         1    ;  uncertainty k = 0.345214
         1         2         3        42     9      180.000000       -0.640414         2    ;  uncertainty k = 0.178768
         1         2         3        42     9        0.000000        0.822625         3    ;  uncertainty k = 0.124587
         1         2         3        42     9      180.000000       -0.021207         4    ;  uncertainty k = 0.090066
         1         2        37        36     9        0.000000       -2.519607         1    ;  uncertainty k = 0.646144
         1         2        37        36     9      180.000000        0.991454         2    ;  uncertainty k = 0.472667
         1         2        37        36     9        0.000000        0.947609         3    ;  uncertainty k = 0.101192
         1         2        37        36     9      180.000000       -0.063788         4    ;  uncertainty k = 0.114090
         1         2        37        64     9        0.000000       -0.319814         1    ;  uncertainty k = 0.345214
         1         2        37        64     9      180.000000       -0.640414         2    ;  uncertainty k = 0.178768
         1         2        37        64     9        0.000000        0.822625         3    ;  uncertainty k = 0.124587
         1         2        37        64     9      180.000000       -0.021207         4    ;  uncertainty k = 0.090066
         1         2        37        65     9        0.000000       -0.319814         1    ;  uncertainty k = 0.345214
         1         2        37        65     9      180.000000       -0.640414         2    ;  uncertainty k = 0.178768
         1         2        37        65     9        0.000000        0.822625         3    ;  uncertainty k = 0.124587
         1         2        37        65     9      180.000000       -0.021207         4    ;  uncertainty k = 0.090066
         2         3         4         5     9        0.000000        0.398984         1    ;  uncertainty k = 1.403043
         2         3         4         5     9      180.000000       -2.524273         2    ;  uncertainty k = 0.825815
         2         3         4         5     9        0.000000        1.732723         3    ;  uncertainty k = 0.334765
         2         3         4         5     9      180.000000       -0.907264         4    ;  uncertainty k = 0.260768
         2         3         4        43     9        0.000000       -0.405988         1    ;  uncertainty k = 0.628416
         2         3         4        43     9      180.000000       -1.679536         2    ;  uncertainty k = 0.300234
         2         3         4        43     9        0.000000        0.759477         3    ;  uncertainty k = 0.081580
         2         3         4        43     9      180.000000       -0.078739         4    ;  uncertainty k = 0.128254
         2         3         4        44     9        0.000000       -0.405988         1    ;  uncertainty k = 0.628416
         2         3         4        44     9      180.000000       -1.679536         2    ;  uncertainty k = 0.300234
         2         3         4        44     9        0.000000        0.759477         3    ;  uncertainty k = 0.081580
         2         3         4        44     9      180.000000       -0.078739         4    ;  uncertainty k = 0.128254
         2        37        36         5     9        0.000000        0.398984         1    ;  uncertainty k = 1.403043
         2        37        36         5     9      180.000000       -2.524273         2    ;  uncertainty k = 0.825815
         2        37        36         5     9        0.000000        1.732723         3    ;  uncertainty k = 0.334765
         2        37        36         5     9      180.000000       -0.907264         4    ;  uncertainty k = 0.260768
         2        37        36        62     9        0.000000       -0.405988         1    ;  uncertainty k = 0.628416
         2        37        36        62     9      180.000000       -1.679536         2    ;  uncertainty k = 0.300234
         2        37        36        62     9        0.000000        0.759477         3    ;  uncertainty k = 0.081580
         2        37        36        62     9      180.000000       -0.078739         4    ;  uncertainty k = 0.128254
         2        37        36        63     9        0.000000       -0.405988         1    ;  uncertainty k = 0.628416
         2        37        36        63     9      180.000000       -1.679536         2    ;  uncertainty k = 0.300234
         2        37        36        63     9        0.000000        0.759477         3    ;  uncertainty k = 0.081580
         2        37        36        63     9      180.000000       -0.078739         4    ;  uncertainty k = 0.128254
         3         2         1        38     9        0.000000       -0.440901         1    ;  uncertainty k = 0.600354
         3         2         1        38     9      180.000000       -0.913489         2    ;  uncertainty k = 0.315633
         3         2         1        38     9        0.000000        1.091136         3    ;  uncertainty k = 0.084658
         3         2         1        38     9      180.000000        0.005835         4    ;  uncertainty k = 0.129478
         3         2         1        39     9        0.000000       -0.440901         1    ;  uncertainty k = 0.600354
         3         2         1        39     9      180.000000       -0.913489         2    ;  uncertainty k = 0.315633
         3         2         1        39     9        0.000000        1.091136         3    ;  uncertainty k = 0.084658
         3         2         1        39     9      180.000000        0.005835         4    ;  uncertainty k = 0.129478
         3         2         1        40     9        0.000000       -0.440901         1    ;  uncertainty k = 0.600354
         3         2         1        40     9      180.000000       -0.913489         2    ;  uncertainty k = 0.315633
         3         2         1        40     9        0.000000        1.091136         3    ;  uncertainty k = 0.084658
         3         2         1        40     9      180.000000        0.005835         4    ;  uncertainty k = 0.129478
         3         2        37        36     9        0.000000       -0.936979         1    ;  uncertainty k = 0.564826
         3         2        37        36     9      180.000000       -0.001060         2    ;  uncertainty k = 0.579648
         3         2        37        36     9        0.000000        0.664277         3    ;  uncertainty k = 0.317326
         3         2        37        36     9      180.000000       -0.352987         4    ;  uncertainty k = 0.297070
         3         2        37        64     9        0.000000       -0.346811         1    ;  uncertainty k = 0.635702
         3         2        37        64     9      180.000000       -0.926001         2    ;  uncertainty k = 0.358522
         3         2        37        64     9        0.000000        0.367676         3    ;  uncertainty k = 0.237407
         3         2        37        64     9      180.000000        0.005730         4    ;  uncertainty k = 0.189716
         3         2        37        65     9        0.000000       -0.346811         1    ;  uncertainty k = 0.635702
         3         2        37        65     9      180.000000       -0.926001         2    ;  uncertainty k = 0.358522
         3         2        37        65     9        0.000000        0.367676         3    ;  uncertainty k = 0.237407
         3         2        37        65     9      180.000000        0.005730         4    ;  uncertainty k = 0.189716
         3         4         5         6     9        0.000000       -4.126076         1    ;  uncertainty k = 0.388989
         3         4         5         6     9      180.000000       -0.127161         2    ;  uncertainty k = 0.359186
         3         4         5         6     9        0.000000        0.599420         3    ;  uncertainty k = 0.129961
         3         4         5         6     9      180.000000       -0.379716         4    ;  uncertainty k = 0.113198
         3         4         5        36     9        0.000000       -5.654378         1    ;  uncertainty k = 1.197525
         3         4         5        36     9      180.000000        0.496249         2    ;  uncertainty k = 1.054345
         3         4         5        36     9        0.000000        1.236100         3    ;  uncertainty k = 0.211090
         3         4         5        36     9      180.000000       -1.042471         4    ;  uncertainty k = 0.165882
         3         4         5        45     9        0.000000       -2.081717         1    ;  uncertainty k = 0.362678
         3         4         5        45     9      180.000000       -0.632078         2    ;  uncertainty k = 0.201597
         3         4         5        45     9        0.000000        0.126658         3    ;  uncertainty k = 0.087452
         3         4         5        45     9      180.000000       -0.202512         4    ;  uncertainty k = 0.057227
         4         3         2        37     9        0.000000       -0.936979         1    ;  uncertainty k = 0.564826
         4         3         2        37     9      180.000000       -0.001060         2    ;  uncertainty k = 0.579648
         4         3         2        37     9        0.000000        0.664277         3    ;  uncertainty k = 0.317326
         4         3         2        37     9      180.000000       -0.352987         4    ;  uncertainty k = 0.297070
         4         3         2        66     9        0.000000       -0.664667         1    ;  uncertainty k = 0.380232
         4         3         2        66     9      180.000000       -0.308455         2    ;  uncertainty k = 0.221417
         4         3         2        66     9        0.000000        0.356160         3    ;  uncertainty k = 0.143499
         4         3         2        66     9      180.000000       -0.146905         4    ;  uncertainty k = 0.073326
         4         5         6         7     9        0.000000       -1.016567         1    ;  uncertainty k = 0.468496
         4         5         6         7     9      180.000000       -1.045537         2    ;  uncertainty k = 0.531180
         4         5         6         7     9        0.000000        1.361833         3    ;  uncertainty k = 0.233793
         4         5         6         7     9      180.000000       -0.267243         4    ;  uncertainty k = 0.201823
         4         5         6        46     9        0.000000       -1.580961         1    ;  uncertainty k = 0.332879
         4         5         6        46     9      180.000000       -0.011004         2    ;  uncertainty k = 0.066121
         4         5         6        46     9        0.000000        0.593237         3    ;  uncertainty k = 0.086074
         4         5         6        46     9      180.000000       -0.264701         4    ;  uncertainty k = 0.088323
         4         5         6        47     9        0.000000       -1.580961         1    ;  uncertainty k = 0.332879
         4         5         6        47     9      180.000000       -0.011004         2    ;  uncertainty k = 0.066121
         4         5         6        47     9        0.000000        0.593237         3    ;  uncertainty k = 0.086074
         4         5         6        47     9      180.000000       -0.264701         4    ;  uncertainty k = 0.088323
         4         5        36        37     9        0.000000       -5.654378         1    ;  uncertainty k = 1.197525
         4         5        36        37     9      180.000000        0.496249         2    ;  uncertainty k = 1.054345
         4         5        36        37     9        0.000000        1.236100         3    ;  uncertainty k = 0.211090
         4         5        36        37     9      180.000000       -1.042471         4    ;  uncertainty k = 0.165882
         4         5        36        62     9        0.000000       -1.492213         1    ;  uncertainty k = 0.239561
         4         5        36        62     9      180.000000       -0.397689         2    ;  uncertainty k = 0.204644
         4         5        36        62     9        0.000000        0.213018         3    ;  uncertainty k = 0.210735
         4         5        36        62     9      180.000000       -0.061338         4    ;  uncertainty k = 0.055036
         4         5        36        63     9        0.000000       -1.492213         1    ;  uncertainty k = 0.239561
         4         5        36        63     9      180.000000       -0.397689         2    ;  uncertainty k = 0.204644
         4         5        36        63     9        0.000000        0.213018         3    ;  uncertainty k = 0.210735
         4         5        36        63     9      180.000000       -0.061338         4    ;  uncertainty k = 0.055036
         5         4         3        41     9        0.000000        0.557905         1    ;  uncertainty k = 0.612422
         5         4         3        41     9      180.000000       -0.997285         2    ;  uncertainty k = 0.235720
         5         4         3        41     9        0.000000        0.453597         3    ;  uncertainty k = 0.175598
         5         4         3        41     9      180.000000        0.135118         4    ;  uncertainty k = 0.055602
         5         4         3        42     9        0.000000        0.557905         1    ;  uncertainty k = 0.612422
         5         4         3        42     9      180.000000       -0.997285         2    ;  uncertainty k = 0.235720
         5         4         3        42     9        0.000000        0.453597         3    ;  uncertainty k = 0.175598
         5         4         3        42     9      180.000000        0.135118         4    ;  uncertainty k = 0.055602
         5         6         7         8     9        0.000000       -2.264798         1    ;  uncertainty k = 1.606892
         5         6         7         8     9      180.000000        0.271226         2    ;  uncertainty k = 0.768099
         5         6         7         8     9        0.000000        0.578466         3    ;  uncertainty k = 0.297370
         5         6         7         8     9      180.000000        0.505740         4    ;  uncertainty k = 0.151264
         5        36        37        64     9        0.000000        0.557905         1    ;  uncertainty k = 0.612422
         5        36        37        64     9      180.000000       -0.997285         2    ;  uncertainty k = 0.235720
         5        36        37        64     9        0.000000        0.453597         3    ;  uncertainty k = 0.175598
         5        36        37        64     9      180.000000        0.135118         4    ;  uncertainty k = 0.055602
         5        36        37        65     9        0.000000        0.557905         1    ;  uncertainty k = 0.612422
         5        36        37        65     9      180.000000       -0.997285         2    ;  uncertainty k = 0.235720
         5        36        37        65     9        0.000000        0.453597         3    ;  uncertainty k = 0.175598
         5        36        37        65     9      180.000000        0.135118         4    ;  uncertainty k = 0.055602
         6         5         4        43     9        0.000000       -0.017121         1    ;  uncertainty k = 0.702895
         6         5         4        43     9      180.000000       -0.741907         2    ;  uncertainty k = 0.280662
         6         5         4        43     9        0.000000        0.463534         3    ;  uncertainty k = 0.148661
         6         5         4        43     9      180.000000       -0.175996         4    ;  uncertainty k = 0.060390
         6         5         4        44     9        0.000000       -0.017121         1    ;  uncertainty k = 0.702895
         6         5         4        44     9      180.000000       -0.741907         2    ;  uncertainty k = 0.280662
         6         5         4        44     9        0.000000        0.463534         3    ;  uncertainty k = 0.148661
         6         5         4        44     9      180.000000       -0.175996         4    ;  uncertainty k = 0.060390
         6         5        36        37     9        0.000000       -4.126076         1    ;  uncertainty k = 0.388989
         6         5        36        37     9      180.000000       -0.127161         2    ;  uncertainty k = 0.359186
         6         5        36        37     9        0.000000        0.599420         3    ;  uncertainty k = 0.129961
         6         5        36        37     9      180.000000       -0.379716         4    ;  uncertainty k = 0.113198
         6         5        36        62     9        0.000000       -0.017121         1    ;  uncertainty k = 0.702895
         6         5        36        62     9      180.000000       -0.741907         2    ;  uncertainty k = 0.280662
         6         5        36        62     9        0.000000        0.463534         3    ;  uncertainty k = 0.148661
         6         5        36        62     9      180.000000       -0.175996         4    ;  uncertainty k = 0.060390
         6         5        36        63     9        0.000000       -0.017121         1    ;  uncertainty k = 0.702895
         6         5        36        63     9      180.000000       -0.741907         2    ;  uncertainty k = 0.280662
         6         5        36        63     9        0.000000        0.463534         3    ;  uncertainty k = 0.148661
         6         5        36        63     9      180.000000       -0.175996         4    ;  uncertainty k = 0.060390
         6         7         8         9     9        0.000000        0.922264         1    ;  uncertainty k = 0.752119
         6         7         8         9     9      180.000000        6.210908         2    ;  uncertainty k = 0.135173
         6         7         8         9     9        0.000000        0.366465         3    ;  uncertainty k = 0.249898
         6         7         8         9     9      180.000000        0.219984         4    ;  uncertainty k = 0.113901
         6         7         8        13     9        0.000000        0.922264         1    ;  uncertainty k = 0.752119
         6         7         8        13     9      180.000000        6.210908         2    ;  uncertainty k = 0.135173
         6         7         8        13     9        0.000000        0.366465         3    ;  uncertainty k = 0.249898
         6         7         8        13     9      180.000000        0.219984         4    ;  uncertainty k = 0.113901
         7         6         5        36     9        0.000000       -1.016567         1    ;  uncertainty k = 0.468496
         7         6         5        36     9      180.000000       -1.045537         2    ;  uncertainty k = 0.531180
         7         6         5        36     9        0.000000        1.361833         3    ;  uncertainty k = 0.233793
         7         6         5        36     9      180.000000       -0.267243         4    ;  uncertainty k = 0.201823
         7         6         5        45     9        0.000000        0.404795         1    ;  uncertainty k = 0.310686
         7         6         5        45     9      180.000000       -1.996352         2    ;  uncertainty k = 0.418410
         7         6         5        45     9        0.000000        0.851129         3    ;  uncertainty k = 0.393088
         7         6         5        45     9      180.000000       -0.012053         4    ;  uncertainty k = 0.102169
         7         8         9        10     9        0.000000       -0.049028         1    ;  uncertainty k = 0.233167
         7         8         9        10     9      180.000000       11.370364         2    ;  uncertainty k = 0.559764
         7         8         9        10     9        0.000000        0.884991         3    ;  uncertainty k = 0.296400
         7         8         9        10     9      180.000000        1.343490         4    ;  uncertainty k = 0.383991
         7         8         9        48     9        0.000000        0.043725         1    ;  uncertainty k = 0.285555
         7         8         9        48     9      180.000000        7.252155         2    ;  uncertainty k = 0.313494
         7         8         9        48     9        0.000000        0.673477         3    ;  uncertainty k = 0.131037
         7         8         9        48     9      180.000000        1.003642         4    ;  uncertainty k = 0.184860
         7         8        13        12     9        0.000000       -0.049028         1    ;  uncertainty k = 0.233167
         7         8        13        12     9      180.000000       11.370364         2    ;  uncertainty k = 0.559764
         7         8        13        12     9        0.000000        0.884991         3    ;  uncertainty k = 0.296400
         7         8        13        12     9      180.000000        1.343490         4    ;  uncertainty k = 0.383991
         7         8        13        49     9        0.000000        0.043725         1    ;  uncertainty k = 0.285555
         7         8        13        49     9      180.000000        7.252155         2    ;  uncertainty k = 0.313494
         7         8        13        49     9        0.000000        0.673477         3    ;  uncertainty k = 0.131037
         7         8        13        49     9      180.000000        1.003642         4    ;  uncertainty k = 0.184860
         8         7         6        46     9        0.000000        0.616885         1    ;  uncertainty k = 0.422527
         8         7         6        46     9      180.000000       -1.179742         2    ;  uncertainty k = 0.314151
         8         7         6        46     9        0.000000        0.555279         3    ;  uncertainty k = 0.089955
         8         7         6        46     9      180.000000        0.271357         4    ;  uncertainty k = 0.096985
         8         7         6        47     9        0.000000        0.616885         1    ;  uncertainty k = 0.422527
         8         7         6        47     9      180.000000       -1.179742         2    ;  uncertainty k = 0.314151
         8         7         6        47     9        0.000000        0.555279         3    ;  uncertainty k = 0.089955
         8         7         6        47     9      180.000000        0.271357         4    ;  uncertainty k = 0.096985
         8         9        10        11     9        0.000000       -0.191055         1    ;  uncertainty k = 0.312910
         8         9        10        11     9      180.000000       16.086154         2    ;  uncertainty k = 0.230623
         8         9        10        11     9        0.000000        0.217895         3    ;  uncertainty k = 0.569229
         8         9        10        11     9      180.000000        1.542459         4    ;  uncertainty k = 0.352513
         8        13        12        11     9        0.000000       -0.191055         1    ;  uncertainty k = 0.312910
         8        13        12        11     9      180.000000       16.086154         2    ;  uncertainty k = 0.230623
         8        13        12        11     9        0.000000        0.217895         3    ;  uncertainty k = 0.569229
         8        13        12        11     9      180.000000        1.542459         4    ;  uncertainty k = 0.352513
         9         8        13        12     9        0.000000       -0.286092         1    ;  uncertainty k = 0.390484
         9         8        13        12     9      180.000000        9.134154         2    ;  uncertainty k = 0.597579
         9         8        13        12     9        0.000000       -0.532926         3    ;  uncertainty k = 0.190598
         9         8        13        12     9      180.000000        1.157192         4    ;  uncertainty k = 0.360962
         9         8        13        49     9        0.000000       -0.526830         1    ;  uncertainty k = 0.500085
         9         8        13        49     9      180.000000        3.946136         2    ;  uncertainty k = 1.306566
         9         8        13        49     9        0.000000        0.775346         3    ;  uncertainty k = 0.095618
         9         8        13        49     9      180.000000        1.090344         4    ;  uncertainty k = 0.213367
         9        10        11        12     9        0.000000       -0.496627         1    ;  uncertainty k = 0.589506
         9        10        11        12     9      180.000000       12.106989         2    ;  uncertainty k = 0.192738
         9        10        11        12     9        0.000000        1.089664         3    ;  uncertainty k = 0.440436
         9        10        11        12     9      180.000000        0.982881         4    ;  uncertainty k = 0.101610
         9        10        11        14     9        0.000000       -0.043102         1    ;  uncertainty k = 1.040715
         9        10        11        14     9      180.000000       11.594911         2    ;  uncertainty k = 0.448665
         9        10        11        14     9        0.000000        2.086066         3    ;  uncertainty k = 0.283350
         9        10        11        14     9      180.000000        1.036872         4    ;  uncertainty k = 0.401628
        10         9         8        13     9        0.000000       -0.286092         1    ;  uncertainty k = 0.390484
        10         9         8        13     9      180.000000        9.134154         2    ;  uncertainty k = 0.597579
        10         9         8        13     9        0.000000       -0.532926         3    ;  uncertainty k = 0.190598
        10         9         8        13     9      180.000000        1.157192         4    ;  uncertainty k = 0.360962
        10        11        12        13     9        0.000000       -0.496627         1    ;  uncertainty k = 0.589506
        10        11        12        13     9      180.000000       12.106989         2    ;  uncertainty k = 0.192738
        10        11        12        13     9        0.000000        1.089664         3    ;  uncertainty k = 0.440436
        10        11        12        13     9      180.000000        0.982881         4    ;  uncertainty k = 0.101610
        10        11        14        15     9        0.000000        0.480083         1    ;  uncertainty k = 0.594424
        10        11        14        15     9      180.000000        4.691411         2    ;  uncertainty k = 0.172267
        10        11        14        15     9        0.000000        0.515016         3    ;  uncertainty k = 0.136639
        10        11        14        15     9      180.000000        0.033086         4    ;  uncertainty k = 0.042749
        10        11        14        35     9        0.000000        0.460214         1    ;  uncertainty k = 0.593510
        10        11        14        35     9      180.000000        4.674515         2    ;  uncertainty k = 0.148568
        10        11        14        35     9        0.000000        0.513355         3    ;  uncertainty k = 0.124842
        10        11        14        35     9      180.000000        0.023824         4    ;  uncertainty k = 0.044346
        11        10         9        48     9        0.000000        0.346250         1    ;  uncertainty k = 0.600743
        11        10         9        48     9      180.000000       15.436621         2    ;  uncertainty k = 0.478776
        11        10         9        48     9        0.000000        1.770862         3    ;  uncertainty k = 0.811563
        11        10         9        48     9      180.000000        1.581644         4    ;  uncertainty k = 0.328822
        11        12        13        49     9        0.000000        0.346250         1    ;  uncertainty k = 0.600743
        11        12        13        49     9      180.000000       15.436621         2    ;  uncertainty k = 0.478776
        11        12        13        49     9        0.000000        1.770862         3    ;  uncertainty k = 0.811563
        11        12        13        49     9      180.000000        1.581644         4    ;  uncertainty k = 0.328822
        11        14        15        16     9        0.000000        0.339849         1    ;  uncertainty k = 0.442812
        11        14        15        16     9      180.000000        9.060792         2    ;  uncertainty k = 0.586016
        11        14        15        16     9        0.000000        1.180519         3    ;  uncertainty k = 0.373561
        11        14        15        16     9      180.000000        1.741148         4    ;  uncertainty k = 0.148940
        11        14        15        50     9        0.000000       -0.226945         1    ;  uncertainty k = 0.381912
        11        14        15        50     9      180.000000        7.648230         2    ;  uncertainty k = 0.403961
        11        14        15        50     9        0.000000        0.669874         3    ;  uncertainty k = 0.181969
        11        14        15        50     9      180.000000        1.201642         4    ;  uncertainty k = 0.104618
        11        14        35        18     9        0.000000        0.279164         1    ;  uncertainty k = 0.321563
        11        14        35        18     9      180.000000        8.837917         2    ;  uncertainty k = 0.475964
        11        14        35        18     9        0.000000        1.187741         3    ;  uncertainty k = 0.267359
        11        14        35        18     9      180.000000        1.682796         4    ;  uncertainty k = 0.105273
        11        14        35        61     9        0.000000       -0.127596         1    ;  uncertainty k = 0.220581
        11        14        35        61     9      180.000000        7.665700         2    ;  uncertainty k = 0.373039
        11        14        35        61     9        0.000000        0.717375         3    ;  uncertainty k = 0.167858
        11        14        35        61     9      180.000000        1.266451         4    ;  uncertainty k = 0.117304
        12        11        14        15     9        0.000000        0.480083         1    ;  uncertainty k = 0.594424
        12        11        14        15     9      180.000000        4.691411         2    ;  uncertainty k = 0.172267
        12        11        14        15     9        0.000000        0.515016         3    ;  uncertainty k = 0.136639
        12        11        14        15     9      180.000000        0.033086         4    ;  uncertainty k = 0.042749
        12        11        14        35     9        0.000000        0.460214         1    ;  uncertainty k = 0.593510
        12        11        14        35     9      180.000000        4.674515         2    ;  uncertainty k = 0.148568
        12        11        14        35     9        0.000000        0.513355         3    ;  uncertainty k = 0.124842
        12        11        14        35     9      180.000000        0.023824         4    ;  uncertainty k = 0.044346
        13         8         9        48     9        0.000000       -0.526830         1    ;  uncertainty k = 0.500085
        13         8         9        48     9      180.000000        3.946136         2    ;  uncertainty k = 1.306566
        13         8         9        48     9        0.000000        0.775346         3    ;  uncertainty k = 0.095618
        13         8         9        48     9      180.000000        1.090344         4    ;  uncertainty k = 0.213367
        13        12        11        14     9        0.000000       -0.043102         1    ;  uncertainty k = 1.040715
        13        12        11        14     9      180.000000       11.594911         2    ;  uncertainty k = 0.448665
        13        12        11        14     9        0.000000        2.086066         3    ;  uncertainty k = 0.283350
        13        12        11        14     9      180.000000        1.036872         4    ;  uncertainty k = 0.401628
        14        15        16        17     9        0.000000       -0.088013         1    ;  uncertainty k = 0.116953
        14        15        16        17     9      180.000000       13.336528         2    ;  uncertainty k = 0.272805
        14        15        16        17     9        0.000000       -0.705599         3    ;  uncertainty k = 0.378681
        14        15        16        17     9      180.000000        0.796969         4    ;  uncertainty k = 0.231917
        14        15        16        51     9        0.000000       -0.041389         1    ;  uncertainty k = 0.161787
        14        15        16        51     9      180.000000        7.886653         2    ;  uncertainty k = 0.569641
        14        15        16        51     9        0.000000        1.380914         3    ;  uncertainty k = 0.236625
        14        15        16        51     9      180.000000        1.750718         4    ;  uncertainty k = 0.174638
        14        35        18        17     9        0.000000       -0.291847         1    ;  uncertainty k = 0.244096
        14        35        18        17     9      180.000000       10.704492         2    ;  uncertainty k = 0.719215
        14        35        18        17     9        0.000000       -0.107596         3    ;  uncertainty k = 0.114191
        14        35        18        17     9      180.000000        1.012333         4    ;  uncertainty k = 0.477813
        14        35        18        19     9        0.000000        0.118765         1    ;  uncertainty k = 0.282848
        14        35        18        19     9      180.000000        9.675913         2    ;  uncertainty k = 0.673834
        14        35        18        19     9        0.000000        1.284045         3    ;  uncertainty k = 0.243148
        14        35        18        19     9      180.000000        1.626378         4    ;  uncertainty k = 0.321831
        15        14        35        18     9        0.000000        0.048057         1    ;  uncertainty k = 0.220107
        15        14        35        18     9      180.000000       10.093092         2    ;  uncertainty k = 0.340528
        15        14        35        18     9        0.000000       -0.353064         3    ;  uncertainty k = 0.243860
        15        14        35        18     9      180.000000        1.031206         4    ;  uncertainty k = 0.212000
        15        14        35        61     9        0.000000        0.354884         1    ;  uncertainty k = 0.112925
        15        14        35        61     9      180.000000        7.246115         2    ;  uncertainty k = 0.602096
        15        14        35        61     9        0.000000        1.301880         3    ;  uncertainty k = 0.265984
        15        14        35        61     9      180.000000        1.658007         4    ;  uncertainty k = 0.260696
        15        16        17        18     9        0.000000       -0.198151         1    ;  uncertainty k = 0.198432
        15        16        17        18     9      180.000000       13.546945         2    ;  uncertainty k = 0.336771
        15        16        17        18     9        0.000000       -0.836209         3    ;  uncertainty k = 0.420104
        15        16        17        18     9      180.000000        0.757474         4    ;  uncertainty k = 0.245679
        15        16        17        52     9        0.000000        0.056860         1    ;  uncertainty k = 0.128734
        15        16        17        52     9      180.000000        7.661114         2    ;  uncertainty k = 0.430435
        15        16        17        52     9        0.000000        1.432914         3    ;  uncertainty k = 0.237269
        15        16        17        52     9      180.000000        1.776467         4    ;  uncertainty k = 0.116767
        16        15        14        35     9        0.000000        0.024908         1    ;  uncertainty k = 0.222940
        16        15        14        35     9      180.000000       10.946211         2    ;  uncertainty k = 0.223707
        16        15        14        35     9        0.000000       -0.601144         3    ;  uncertainty k = 0.171401
        16        15        14        35     9      180.000000        0.902861         4    ;  uncertainty k = 0.223031
        16        17        18        19     9        0.000000        0.224490         1    ;  uncertainty k = 0.225258
        16        17        18        19     9      180.000000        9.771504         2    ;  uncertainty k = 0.581586
        16        17        18        19     9        0.000000        1.297805         3    ;  uncertainty k = 0.327208
        16        17        18        19     9      180.000000        1.799937         4    ;  uncertainty k = 0.234902
        16        17        18        35     9        0.000000       -0.215689         1    ;  uncertainty k = 0.137642
        16        17        18        35     9      180.000000       11.477599         2    ;  uncertainty k = 0.433453
        16        17        18        35     9        0.000000       -0.531144         3    ;  uncertainty k = 0.269027
        16        17        18        35     9      180.000000        0.839994         4    ;  uncertainty k = 0.394475
        17        16        15        50     9        0.000000        0.032234         1    ;  uncertainty k = 0.139810
        17        16        15        50     9      180.000000        7.347841         2    ;  uncertainty k = 0.261636
        17        16        15        50     9        0.000000        1.375632         3    ;  uncertainty k = 0.194678
        17        16        15        50     9      180.000000        1.836254         4    ;  uncertainty k = 0.206650
        17        18        19        20     9        0.000000        1.872177         1    ;  uncertainty k = 0.800661
        17        18        19        20     9      180.000000        2.343493         2    ;  uncertainty k = 0.316384
        17        18        19        20     9        0.000000        0.624301         3    ;  uncertainty k = 0.152598
        17        18        19        20     9      180.000000        0.095646         4    ;  uncertainty k = 0.049875
        17        18        19        53     9        0.000000       -0.527351         1    ;  uncertainty k = 0.230407
        17        18        19        53     9      180.000000        2.024930         2    ;  uncertainty k = 0.120208
        17        18        19        53     9        0.000000        0.504963         3    ;  uncertainty k = 0.061193
        17        18        19        53     9      180.000000        0.145045         4    ;  uncertainty k = 0.047061
        17        18        19        54     9        0.000000       -0.527351         1    ;  uncertainty k = 0.230407
        17        18        19        54     9      180.000000        2.024930         2    ;  uncertainty k = 0.120208
        17        18        19        54     9        0.000000        0.504963         3    ;  uncertainty k = 0.061193
        17        18        19        54     9      180.000000        0.145045         4    ;  uncertainty k = 0.047061
        17        18        35        61     9        0.000000        0.202165         1    ;  uncertainty k = 0.173866
        17        18        35        61     9      180.000000        7.402417         2    ;  uncertainty k = 0.589116
        17        18        35        61     9        0.000000        1.310844         3    ;  uncertainty k = 0.225603
        17        18        35        61     9      180.000000        1.667004         4    ;  uncertainty k = 0.181393
        18        17        16        51     9        0.000000        0.034905         1    ;  uncertainty k = 0.206612
        18        17        16        51     9      180.000000        7.538889         2    ;  uncertainty k = 0.336447
        18        17        16        51     9        0.000000        1.380115         3    ;  uncertainty k = 0.190288
        18        17        16        51     9      180.000000        1.793403         4    ;  uncertainty k = 0.112528
        18        19        20        21     9        0.000000        0.436873         1    ;  uncertainty k = 0.691877
        18        19        20        21     9      180.000000        0.068826         2    ;  uncertainty k = 0.314385
        18        19        20        21     9        0.000000        0.773357         3    ;  uncertainty k = 0.370061
        18        19        20        21     9      180.000000        0.186066         4    ;  uncertainty k = 0.072048
        18        19        20        25     9        0.000000        1.507108         1    ;  uncertainty k = 0.389926
        18        19        20        25     9      180.000000       -0.022657         2    ;  uncertainty k = 0.137067
        18        19        20        25     9        0.000000        0.224963         3    ;  uncertainty k = 0.239203
        18        19        20        25     9      180.000000        0.248492         4    ;  uncertainty k = 0.123687
        19        18        17        52     9        0.000000        0.024908         1    ;  uncertainty k = 0.237816
        19        18        17        52     9      180.000000        7.591234         2    ;  uncertainty k = 0.209683
        19        18        17        52     9        0.000000        0.605780         3    ;  uncertainty k = 0.275316
        19        18        17        52     9      180.000000        1.047429         4    ;  uncertainty k = 0.187217
        19        18        35        61     9        0.000000       -0.028495         1    ;  uncertainty k = 0.275424
        19        18        35        61     9      180.000000        7.704185         2    ;  uncertainty k = 0.344090
        19        18        35        61     9        0.000000        0.555185         3    ;  uncertainty k = 0.312928
        19        18        35        61     9      180.000000        1.094337         4    ;  uncertainty k = 0.153018
        19        20        21        22     9        0.000000       -0.841726         1    ;  uncertainty k = 4.229624
        19        20        21        22     9      180.000000       12.726663         2    ;  uncertainty k = 0.800491
        19        20        21        22     9        0.000000        1.869817         3    ;  uncertainty k = 0.921637
        19        20        21        22     9      180.000000        0.104957         4    ;  uncertainty k = 0.375843
        19        20        25        24     9        0.000000        0.634210         1    ;  uncertainty k = 1.109144
        19        20        25        24     9      180.000000        7.729795         2    ;  uncertainty k = 0.355043
        19        20        25        24     9        0.000000        1.756335         3    ;  uncertainty k = 0.398208
        19        20        25        24     9      180.000000       -0.228898         4    ;  uncertainty k = 0.310568
        19        20        25        26     9        0.000000        0.936356         1    ;  uncertainty k = 1.270752
        19        20        25        26     9      180.000000       11.759397         2    ;  uncertainty k = 0.389289
        19        20        25        26     9        0.000000        0.652543         3    ;  uncertainty k = 0.132949
        19        20        25        26     9      180.000000       -0.183660         4    ;  uncertainty k = 0.344177
        20        19        18        35     9        0.000000        1.978358         1    ;  uncertainty k = 0.908938
        20        19        18        35     9      180.000000        2.263896         2    ;  uncertainty k = 0.392654
        20        19        18        35     9        0.000000        0.571493         3    ;  uncertainty k = 0.238357
        20        19        18        35     9      180.000000        0.100637         4    ;  uncertainty k = 0.060188
        20        21        22        23     9        0.000000        0.183577         1    ;  uncertainty k = 0.771397
        20        21        22        23     9      180.000000       24.456369         2    ;  uncertainty k = 0.187579
        20        21        22        23     9        0.000000        1.990465         3    ;  uncertainty k = 0.597466
        20        21        22        23     9      180.000000        0.718991         4    ;  uncertainty k = 0.279944
        20        21        22        27     9        0.000000       -0.103645         1    ;  uncertainty k = 0.626560
        20        21        22        27     9      180.000000       25.528347         2    ;  uncertainty k = 0.237554
        20        21        22        27     9        0.000000        2.937623         3    ;  uncertainty k = 0.130188
        20        21        22        27     9      180.000000        0.708424         4    ;  uncertainty k = 0.580748
        20        25        24        23     9        0.000000        0.419279         1    ;  uncertainty k = 2.274474
        20        25        24        23     9      180.000000        1.605237         2    ;  uncertainty k = 0.697545
        20        25        24        23     9        0.000000       -0.163993         3    ;  uncertainty k = 0.200173
        20        25        24        23     9      180.000000        0.325528         4    ;  uncertainty k = 0.077907
        20        25        24        56     9        0.000000       -1.120180         1    ;  uncertainty k = 2.456072
        20        25        24        56     9      180.000000        2.364370         2    ;  uncertainty k = 0.329359
        20        25        24        56     9        0.000000        0.459246         3    ;  uncertainty k = 0.206810
        20        25        24        56     9      180.000000        0.273913         4    ;  uncertainty k = 0.151694
        21        20        19        53     9        0.000000        0.383408         1    ;  uncertainty k = 0.534068
        21        20        19        53     9      180.000000        1.169990         2    ;  uncertainty k = 0.403949
        21        20        19        53     9        0.000000        0.582239         3    ;  uncertainty k = 0.072429
        21        20        19        53     9      180.000000        0.242243         4    ;  uncertainty k = 0.129086
        21        20        19        54     9        0.000000        0.383408         1    ;  uncertainty k = 0.534068
        21        20        19        54     9      180.000000        1.169990         2    ;  uncertainty k = 0.403949
        21        20        19        54     9        0.000000        0.582239         3    ;  uncertainty k = 0.072429
        21        20        19        54     9      180.000000        0.242243         4    ;  uncertainty k = 0.129086
        21        20        25        24     9        0.000000        2.898928         1    ;  uncertainty k = 2.397582
        21        20        25        24     9      180.000000        2.029915         2    ;  uncertainty k = 0.771882
        21        20        25        24     9        0.000000        1.223010         3    ;  uncertainty k = 0.519453
        21        20        25        24     9      180.000000        0.577304         4    ;  uncertainty k = 0.261783
        21        20        25        26     9        0.000000        2.605132         1    ;  uncertainty k = 1.172603
        21        20        25        26     9      180.000000       10.822446         2    ;  uncertainty k = 0.452984
        21        20        25        26     9        0.000000        1.231348         3    ;  uncertainty k = 0.502016
        21        20        25        26     9      180.000000       -0.281985         4    ;  uncertainty k = 0.368205
        21        22        23        24     9        0.000000        0.332928         1    ;  uncertainty k = 1.374902
        21        22        23        24     9      180.000000        4.367813         2    ;  uncertainty k = 0.787662
        21        22        23        24     9        0.000000        0.207936         3    ;  uncertainty k = 0.459080
        21        22        23        24     9      180.000000        0.601057         4    ;  uncertainty k = 0.186301
        21        22        23        55     9        0.000000       -0.995677         1    ;  uncertainty k = 0.817236
        21        22        23        55     9      180.000000        4.518457         2    ;  uncertainty k = 0.798379
        21        22        23        55     9        0.000000        0.750755         3    ;  uncertainty k = 0.441553
        21        22        23        55     9      180.000000        0.508658         4    ;  uncertainty k = 0.169761
        21        22        27        28     9        0.000000        0.450024         1    ;  uncertainty k = 0.969157
        21        22        27        28     9      180.000000        4.481247         2    ;  uncertainty k = 0.238894
        21        22        27        28     9        0.000000        0.231510         3    ;  uncertainty k = 0.269013
        21        22        27        28     9      180.000000       -0.033000         4    ;  uncertainty k = 0.107216
        21        22        27        32     9        0.000000        0.831236         1    ;  uncertainty k = 1.042168
        21        22        27        32     9      180.000000        4.421241         2    ;  uncertainty k = 0.088421
        21        22        27        32     9        0.000000        0.359942         3    ;  uncertainty k = 0.162332
        21        22        27        32     9      180.000000       -0.017074         4    ;  uncertainty k = 0.107059
        22        21        20        25     9        0.000000        3.689482         1    ;  uncertainty k = 2.497348
        22        21        20        25     9      180.000000        4.718592         2    ;  uncertainty k = 1.301299
        22        21        20        25     9        0.000000        1.829216         3    ;  uncertainty k = 0.697913
        22        21        20        25     9      180.000000        0.352681         4    ;  uncertainty k = 0.591003
        22        23        24        25     9        0.000000       -0.226613         1    ;  uncertainty k = 0.711952
        22        23        24        25     9      180.000000       17.793693         2    ;  uncertainty k = 0.299835
        22        23        24        25     9        0.000000        0.661316         3    ;  uncertainty k = 0.442288
        22        23        24        25     9      180.000000        0.994176         4    ;  uncertainty k = 0.355851
        22        23        24        56     9        0.000000       -0.368061         1    ;  uncertainty k = 0.793287
        22        23        24        56     9      180.000000       16.599943         2    ;  uncertainty k = 0.645992
        22        23        24        56     9        0.000000        1.946855         3    ;  uncertainty k = 0.318383
        22        23        24        56     9      180.000000        1.166107         4    ;  uncertainty k = 0.576711
        22        27        28        29     9        0.000000        0.139722         1    ;  uncertainty k = 0.238434
        22        27        28        29     9      180.000000        9.391652         2    ;  uncertainty k = 0.440156
        22        27        28        29     9        0.000000        1.295370         3    ;  uncertainty k = 0.189111
        22        27        28        29     9      180.000000        1.674447         4    ;  uncertainty k = 0.231371
        22        27        28        57     9        0.000000       -0.031085         1    ;  uncertainty k = 0.413275
        22        27        28        57     9      180.000000        7.342513         2    ;  uncertainty k = 0.480430
        22        27        28        57     9        0.000000        0.672130         3    ;  uncertainty k = 0.217925
        22        27        28        57     9      180.000000        1.109317         4    ;  uncertainty k = 0.195987
        22        27        32        31     9        0.000000        0.015391         1    ;  uncertainty k = 0.247470
        22        27        32        31     9      180.000000        9.478616         2    ;  uncertainty k = 0.560198
        22        27        32        31     9        0.000000        1.276693         3    ;  uncertainty k = 0.096054
        22        27        32        31     9      180.000000        1.725697         4    ;  uncertainty k = 0.203576
        22        27        32        60     9        0.000000        0.097423         1    ;  uncertainty k = 0.521560
        22        27        32        60     9      180.000000        7.608775         2    ;  uncertainty k = 0.470786
        22        27        32        60     9        0.000000        0.721452         3    ;  uncertainty k = 0.263816
        22        27        32        60     9      180.000000        1.189966         4    ;  uncertainty k = 0.211660
        23        22        27        28     9        0.000000       -0.132028         1    ;  uncertainty k = 0.620574
        23        22        27        28     9      180.000000        3.996164         2    ;  uncertainty k = 0.207999
        23        22        27        28     9        0.000000        0.691203         3    ;  uncertainty k = 0.235478
        23        22        27        28     9      180.000000       -0.174521         4    ;  uncertainty k = 0.094533
        23        22        27        32     9        0.000000       -0.150048         1    ;  uncertainty k = 0.687250
        23        22        27        32     9      180.000000        3.972332         2    ;  uncertainty k = 0.208132
        23        22        27        32     9        0.000000        0.617903         3    ;  uncertainty k = 0.137439
        23        22        27        32     9      180.000000       -0.161033         4    ;  uncertainty k = 0.081562
        23        24        25        26     9        0.000000       -2.001816         1    ;  uncertainty k = 1.317036
        23        24        25        26     9      180.000000        3.389784         2    ;  uncertainty k = 0.746167
        23        24        25        26     9        0.000000       -0.174174         3    ;  uncertainty k = 0.227865
        23        24        25        26     9      180.000000        0.016096         4    ;  uncertainty k = 0.112369
        24        23        22        27     9        0.000000        0.456530         1    ;  uncertainty k = 0.879607
        24        23        22        27     9      180.000000        4.650708         2    ;  uncertainty k = 0.970400
        24        23        22        27     9        0.000000        0.700521         3    ;  uncertainty k = 0.353872
        24        23        22        27     9      180.000000        0.562543         4    ;  uncertainty k = 0.325359
        25        20        19        53     9        0.000000       -0.473768         1    ;  uncertainty k = 0.528511
        25        20        19        53     9      180.000000        1.255513         2    ;  uncertainty k = 0.273074
        25        20        19        53     9        0.000000        0.779239         3    ;  uncertainty k = 0.054623
        25        20        19        53     9      180.000000        0.411931         4    ;  uncertainty k = 0.034525
        25        20        19        54     9        0.000000       -0.473768         1    ;  uncertainty k = 0.528511
        25        20        19        54     9      180.000000        1.255513         2    ;  uncertainty k = 0.273074
        25        20        19        54     9        0.000000        0.779239         3    ;  uncertainty k = 0.054623
        25        20        19        54     9      180.000000        0.411931         4    ;  uncertainty k = 0.034525
        25        24        23        55     9        0.000000       -0.328809         1    ;  uncertainty k = 0.661923
        25        24        23        55     9      180.000000       15.838401         2    ;  uncertainty k = 0.436273
        25        24        23        55     9        0.000000        1.792267         3    ;  uncertainty k = 0.273245
        25        24        23        55     9      180.000000        1.039596         4    ;  uncertainty k = 0.351736
        26        25        24        56     9        0.000000       -3.368927         1    ;  uncertainty k = 1.838216
        26        25        24        56     9      180.000000        6.946406         2    ;  uncertainty k = 0.848338
        26        25        24        56     9        0.000000        0.461530         3    ;  uncertainty k = 0.415057
        26        25        24        56     9      180.000000       -0.155191         4    ;  uncertainty k = 0.180479
        27        22        23        55     9        0.000000       -0.756845         1    ;  uncertainty k = 0.933434
        27        22        23        55     9      180.000000        5.249261         2    ;  uncertainty k = 0.446027
        27        22        23        55     9        0.000000        1.040735         3    ;  uncertainty k = 0.191588
        27        22        23        55     9      180.000000        0.377706         4    ;  uncertainty k = 0.178387
        27        28        29        30     9        0.000000       -0.049203         1    ;  uncertainty k = 0.163556
        27        28        29        30     9      180.000000       13.686620         2    ;  uncertainty k = 0.375868
        27        28        29        30     9        0.000000       -0.763032         3    ;  uncertainty k = 0.333531
        27        28        29        30     9      180.000000        0.699278         4    ;  uncertainty k = 0.301187
        27        28        29        58     9        0.000000        0.092118         1    ;  uncertainty k = 0.147462
        27        28        29        58     9      180.000000        7.738783         2    ;  uncertainty k = 0.435916
        27        28        29        58     9        0.000000        1.464006         3    ;  uncertainty k = 0.192246
        27        28        29        58     9      180.000000        1.863951         4    ;  uncertainty k = 0.082875
        27        32        31        30     9        0.000000        0.026291         1    ;  uncertainty k = 0.163719
        27        32        31        30     9      180.000000       10.780341         2    ;  uncertainty k = 0.535459
        27        32        31        30     9        0.000000       -0.553721         3    ;  uncertainty k = 0.298857
        27        32        31        30     9      180.000000        1.007541         4    ;  uncertainty k = 0.374932
        27        32        31        33     9        0.000000        0.158262         1    ;  uncertainty k = 0.128544
        27        32        31        33     9      180.000000       10.701149         2    ;  uncertainty k = 0.404544
        27        32        31        33     9        0.000000        1.289757         3    ;  uncertainty k = 0.239427
        27        32        31        33     9      180.000000        1.577318         4    ;  uncertainty k = 0.195413
        28        27        32        31     9        0.000000       -0.088161         1    ;  uncertainty k = 0.275859
        28        27        32        31     9      180.000000       11.403860         2    ;  uncertainty k = 0.293423
        28        27        32        31     9        0.000000       -0.190114         3    ;  uncertainty k = 0.257035
        28        27        32        31     9      180.000000        1.014693         4    ;  uncertainty k = 0.277823
        28        27        32        60     9        0.000000        0.195105         1    ;  uncertainty k = 0.123804
        28        27        32        60     9      180.000000        7.312792         2    ;  uncertainty k = 0.486605
        28        27        32        60     9        0.000000        1.334755         3    ;  uncertainty k = 0.135466
        28        27        32        60     9      180.000000        1.624675         4    ;  uncertainty k = 0.204583
        28        29        30        31     9        0.000000       -0.162374         1    ;  uncertainty k = 0.127360
        28        29        30        31     9      180.000000       14.375994         2    ;  uncertainty k = 0.235445
        28        29        30        31     9        0.000000       -0.845739         3    ;  uncertainty k = 0.412730
        28        29        30        31     9      180.000000        0.712699         4    ;  uncertainty k = 0.185358
        28        29        30        59     9        0.000000        0.062261         1    ;  uncertainty k = 0.071515
        28        29        30        59     9      180.000000        7.544121         2    ;  uncertainty k = 0.342884
        28        29        30        59     9        0.000000        1.407577         3    ;  uncertainty k = 0.184411
        28        29        30        59     9      180.000000        1.750791         4    ;  uncertainty k = 0.062065
        29        28        27        32     9        0.000000        0.064792         1    ;  uncertainty k = 0.137897
        29        28        27        32     9      180.000000       10.697737         2    ;  uncertainty k = 0.350667
        29        28        27        32     9        0.000000       -0.484690         3    ;  uncertainty k = 0.257404
        29        28        27        32     9      180.000000        0.939268         4    ;  uncertainty k = 0.268725
        29        30        31        32     9        0.000000       -0.046891         1    ;  uncertainty k = 0.148970
        29        30        31        32     9      180.000000       11.402564         2    ;  uncertainty k = 0.388987
        29        30        31        32     9        0.000000       -0.802294         3    ;  uncertainty k = 0.386160
        29        30        31        32     9      180.000000        0.851169         4    ;  uncertainty k = 0.306482
        29        30        31        33     9        0.000000        0.196047         1    ;  uncertainty k = 0.151235
        29        30        31        33     9      180.000000       10.173626         2    ;  uncertainty k = 0.441274
        29        30        31        33     9        0.000000        1.269732         3    ;  uncertainty k = 0.268430
        29        30        31        33     9      180.000000        1.597184         4    ;  uncertainty k = 0.173239
        30        29        28        57     9        0.000000        0.040010         1    ;  uncertainty k = 0.127743
        30        29        28        57     9      180.000000        7.549360         2    ;  uncertainty k = 0.281909
        30        29        28        57     9        0.000000        1.439906         3    ;  uncertainty k = 0.224819
        30        29        28        57     9      180.000000        1.850184         4    ;  uncertainty k = 0.149466
        30        31        32        60     9        0.000000        0.153167         1    ;  uncertainty k = 0.327139
        30        31        32        60     9      180.000000        7.014317         2    ;  uncertainty k = 0.561901
        30        31        32        60     9        0.000000        1.332491         3    ;  uncertainty k = 0.267776
        30        31        32        60     9      180.000000        1.619938         4    ;  uncertainty k = 0.119489
        30        31        33        34     9        0.000000        0.000000         1    ;  uncertainty k = 0.000000
        30        31        33        34     9      180.000000        0.000000         2    ;  uncertainty k = 0.000000
        30        31        33        34     9        0.000000        0.000000         3    ;  uncertainty k = 0.000000
        30        31        33        34     9      180.000000        0.000000         4    ;  uncertainty k = 0.000000
        31        30        29        58     9        0.000000        0.035706         1    ;  uncertainty k = 0.160038
        31        30        29        58     9      180.000000        8.241760         2    ;  uncertainty k = 0.493552
        31        30        29        58     9        0.000000        1.350729         3    ;  uncertainty k = 0.294396
        31        30        29        58     9      180.000000        1.737960         4    ;  uncertainty k = 0.138863
        32        27        28        57     9        0.000000        0.203726         1    ;  uncertainty k = 0.142455
        32        27        28        57     9      180.000000        6.874535         2    ;  uncertainty k = 0.468715
        32        27        28        57     9        0.000000        1.375969         3    ;  uncertainty k = 0.157999
        32        27        28        57     9      180.000000        1.642494         4    ;  uncertainty k = 0.249857
        32        31        30        59     9        0.000000        0.186347         1    ;  uncertainty k = 0.437953
        32        31        30        59     9      180.000000        6.718599         2    ;  uncertainty k = 0.518043
        32        31        30        59     9        0.000000        1.387209         3    ;  uncertainty k = 0.305000
        32        31        30        59     9      180.000000        1.607519         4    ;  uncertainty k = 0.112944
        32        31        33        34     9        0.000000        0.000000         1    ;  uncertainty k = 0.000000
        32        31        33        34     9      180.000000        0.000000         2    ;  uncertainty k = 0.000000
        32        31        33        34     9        0.000000        0.000000         3    ;  uncertainty k = 0.000000
        32        31        33        34     9      180.000000        0.000000         4    ;  uncertainty k = 0.000000
        33        31        30        59     9        0.000000       -0.347396         1    ;  uncertainty k = 0.499938
        33        31        30        59     9      180.000000        7.212457         2    ;  uncertainty k = 0.171135
        33        31        30        59     9        0.000000        0.556733         3    ;  uncertainty k = 0.082525
        33        31        30        59     9      180.000000        1.010123         4    ;  uncertainty k = 0.159681
        33        31        32        60     9        0.000000       -0.241041         1    ;  uncertainty k = 0.290798
        33        31        32        60     9      180.000000        7.609150         2    ;  uncertainty k = 0.185744
        33        31        32        60     9        0.000000        0.564403         3    ;  uncertainty k = 0.131948
        33        31        32        60     9      180.000000        1.095746         4    ;  uncertainty k = 0.165903
        35        14        15        50     9        0.000000        0.242998         1    ;  uncertainty k = 0.116871
        35        14        15        50     9      180.000000        7.003600         2    ;  uncertainty k = 0.458505
        35        14        15        50     9        0.000000        1.292743         3    ;  uncertainty k = 0.255453
        35        14        15        50     9      180.000000        1.631586         4    ;  uncertainty k = 0.270965
        35        18        17        52     9        0.000000        0.259376         1    ;  uncertainty k = 0.177208
        35        18        17        52     9      180.000000        7.185688         2    ;  uncertainty k = 0.664902
        35        18        17        52     9        0.000000        1.407609         3    ;  uncertainty k = 0.323470
        35        18        17        52     9      180.000000        1.653410         4    ;  uncertainty k = 0.179616
        35        18        19        53     9        0.000000       -0.467501         1    ;  uncertainty k = 0.342458
        35        18        19        53     9      180.000000        1.866854         2    ;  uncertainty k = 0.132943
        35        18        19        53     9        0.000000        0.468388         3    ;  uncertainty k = 0.097662
        35        18        19        53     9      180.000000        0.149866         4    ;  uncertainty k = 0.032013
        35        18        19        54     9        0.000000       -0.467501         1    ;  uncertainty k = 0.342458
        35        18        19        54     9      180.000000        1.866854         2    ;  uncertainty k = 0.132943
        35        18        19        54     9        0.000000        0.468388         3    ;  uncertainty k = 0.097662
        35        18        19        54     9      180.000000        0.149866         4    ;  uncertainty k = 0.032013
        36         5         4        43     9        0.000000       -1.492213         1    ;  uncertainty k = 0.239561
        36         5         4        43     9      180.000000       -0.397689         2    ;  uncertainty k = 0.204644
        36         5         4        43     9        0.000000        0.213018         3    ;  uncertainty k = 0.210735
        36         5         4        43     9      180.000000       -0.061338         4    ;  uncertainty k = 0.055036
        36         5         4        44     9        0.000000       -1.492213         1    ;  uncertainty k = 0.239561
        36         5         4        44     9      180.000000       -0.397689         2    ;  uncertainty k = 0.204644
        36         5         4        44     9        0.000000        0.213018         3    ;  uncertainty k = 0.210735
        36         5         4        44     9      180.000000       -0.061338         4    ;  uncertainty k = 0.055036
        36         5         6        46     9        0.000000       -1.580961         1    ;  uncertainty k = 0.332879
        36         5         6        46     9      180.000000       -0.011004         2    ;  uncertainty k = 0.066121
        36         5         6        46     9        0.000000        0.593237         3    ;  uncertainty k = 0.086074
        36         5         6        46     9      180.000000       -0.264701         4    ;  uncertainty k = 0.088323
        36         5         6        47     9        0.000000       -1.580961         1    ;  uncertainty k = 0.332879
        36         5         6        47     9      180.000000       -0.011004         2    ;  uncertainty k = 0.066121
        36         5         6        47     9        0.000000        0.593237         3    ;  uncertainty k = 0.086074
        36         5         6        47     9      180.000000       -0.264701         4    ;  uncertainty k = 0.088323
        36        37         2        66     9        0.000000       -0.664667         1    ;  uncertainty k = 0.380232
        36        37         2        66     9      180.000000       -0.308455         2    ;  uncertainty k = 0.221417
        36        37         2        66     9        0.000000        0.356160         3    ;  uncertainty k = 0.143499
        36        37         2        66     9      180.000000       -0.146905         4    ;  uncertainty k = 0.073326
        37         2         1        38     9        0.000000       -0.440901         1    ;  uncertainty k = 0.600354
        37         2         1        38     9      180.000000       -0.913489         2    ;  uncertainty k = 0.315633
        37         2         1        38     9        0.000000        1.091136         3    ;  uncertainty k = 0.084658
        37         2         1        38     9      180.000000        0.005835         4    ;  uncertainty k = 0.129478
        37         2         1        39     9        0.000000       -0.440901         1    ;  uncertainty k = 0.600354
        37         2         1        39     9      180.000000       -0.913489         2    ;  uncertainty k = 0.315633
        37         2         1        39     9        0.000000        1.091136         3    ;  uncertainty k = 0.084658
        37         2         1        39     9      180.000000        0.005835         4    ;  uncertainty k = 0.129478
        37         2         1        40     9        0.000000       -0.440901         1    ;  uncertainty k = 0.600354
        37         2         1        40     9      180.000000       -0.913489         2    ;  uncertainty k = 0.315633
        37         2         1        40     9        0.000000        1.091136         3    ;  uncertainty k = 0.084658
        37         2         1        40     9      180.000000        0.005835         4    ;  uncertainty k = 0.129478
        37         2         3        41     9        0.000000       -0.346811         1    ;  uncertainty k = 0.635702
        37         2         3        41     9      180.000000       -0.926001         2    ;  uncertainty k = 0.358522
        37         2         3        41     9        0.000000        0.367676         3    ;  uncertainty k = 0.237407
        37         2         3        41     9      180.000000        0.005730         4    ;  uncertainty k = 0.189716
        37         2         3        42     9        0.000000       -0.346811         1    ;  uncertainty k = 0.635702
        37         2         3        42     9      180.000000       -0.926001         2    ;  uncertainty k = 0.358522
        37         2         3        42     9        0.000000        0.367676         3    ;  uncertainty k = 0.237407
        37         2         3        42     9      180.000000        0.005730         4    ;  uncertainty k = 0.189716
        37        36         5        45     9        0.000000       -2.081717         1    ;  uncertainty k = 0.362678
        37        36         5        45     9      180.000000       -0.632078         2    ;  uncertainty k = 0.201597
        37        36         5        45     9        0.000000        0.126658         3    ;  uncertainty k = 0.087452
        37        36         5        45     9      180.000000       -0.202512         4    ;  uncertainty k = 0.057227
        38         1         2        66     9        0.000000        0.394915         1    ;  uncertainty k = 0.538747
        38         1         2        66     9      180.000000       -0.562803         2    ;  uncertainty k = 0.517563
        38         1         2        66     9        0.000000        0.367114         3    ;  uncertainty k = 0.090420
        38         1         2        66     9      180.000000        0.077962         4    ;  uncertainty k = 0.062929
        39         1         2        66     9        0.000000        0.394915         1    ;  uncertainty k = 0.538747
        39         1         2        66     9      180.000000       -0.562803         2    ;  uncertainty k = 0.517563
        39         1         2        66     9        0.000000        0.367114         3    ;  uncertainty k = 0.090420
        39         1         2        66     9      180.000000        0.077962         4    ;  uncertainty k = 0.062929
        40         1         2        66     9        0.000000        0.394915         1    ;  uncertainty k = 0.538747
        40         1         2        66     9      180.000000       -0.562803         2    ;  uncertainty k = 0.517563
        40         1         2        66     9        0.000000        0.367114         3    ;  uncertainty k = 0.090420
        40         1         2        66     9      180.000000        0.077962         4    ;  uncertainty k = 0.062929
        41         3         2        66     9        0.000000        0.588697         1    ;  uncertainty k = 0.592787
        41         3         2        66     9      180.000000       -0.434629         2    ;  uncertainty k = 0.276285
        41         3         2        66     9        0.000000        0.041116         3    ;  uncertainty k = 0.184854
        41         3         2        66     9      180.000000        0.023048         4    ;  uncertainty k = 0.093194
        41         3         4        43     9        0.000000        0.337309         1    ;  uncertainty k = 0.300408
        41         3         4        43     9      180.000000        0.412420         2    ;  uncertainty k = 0.122851
        41         3         4        43     9        0.000000        0.235990         3    ;  uncertainty k = 0.060274
        41         3         4        43     9      180.000000       -0.060002         4    ;  uncertainty k = 0.035888
        41         3         4        44     9        0.000000        0.337309         1    ;  uncertainty k = 0.300408
        41         3         4        44     9      180.000000        0.412420         2    ;  uncertainty k = 0.122851
        41         3         4        44     9        0.000000        0.235990         3    ;  uncertainty k = 0.060274
        41         3         4        44     9      180.000000       -0.060002         4    ;  uncertainty k = 0.035888
        42         3         2        66     9        0.000000        0.588697         1    ;  uncertainty k = 0.592787
        42         3         2        66     9      180.000000       -0.434629         2    ;  uncertainty k = 0.276285
        42         3         2        66     9        0.000000        0.041116         3    ;  uncertainty k = 0.184854
        42         3         2        66     9      180.000000        0.023048         4    ;  uncertainty k = 0.093194
        42         3         4        43     9        0.000000        0.337309         1    ;  uncertainty k = 0.300408
        42         3         4        43     9      180.000000        0.412420         2    ;  uncertainty k = 0.122851
        42         3         4        43     9        0.000000        0.235990         3    ;  uncertainty k = 0.060274
        42         3         4        43     9      180.000000       -0.060002         4    ;  uncertainty k = 0.035888
        42         3         4        44     9        0.000000        0.337309         1    ;  uncertainty k = 0.300408
        42         3         4        44     9      180.000000        0.412420         2    ;  uncertainty k = 0.122851
        42         3         4        44     9        0.000000        0.235990         3    ;  uncertainty k = 0.060274
        42         3         4        44     9      180.000000       -0.060002         4    ;  uncertainty k = 0.035888
        43         4         5        45     9        0.000000        1.685304         1    ;  uncertainty k = 0.357533
        43         4         5        45     9      180.000000       -0.042147         2    ;  uncertainty k = 0.139977
        43         4         5        45     9        0.000000       -0.124314         3    ;  uncertainty k = 0.070123
        43         4         5        45     9      180.000000        0.109754         4    ;  uncertainty k = 0.045889
        44         4         5        45     9        0.000000        1.685304         1    ;  uncertainty k = 0.357533
        44         4         5        45     9      180.000000       -0.042147         2    ;  uncertainty k = 0.139977
        44         4         5        45     9        0.000000       -0.124314         3    ;  uncertainty k = 0.070123
        44         4         5        45     9      180.000000        0.109754         4    ;  uncertainty k = 0.045889
        45         5         6        46     9        0.000000        0.686185         1    ;  uncertainty k = 0.345234
        45         5         6        46     9      180.000000       -0.302672         2    ;  uncertainty k = 0.319458
        45         5         6        46     9        0.000000       -0.149651         3    ;  uncertainty k = 0.155940
        45         5         6        46     9      180.000000       -0.103867         4    ;  uncertainty k = 0.034099
        45         5         6        47     9        0.000000        0.686185         1    ;  uncertainty k = 0.345234
        45         5         6        47     9      180.000000       -0.302672         2    ;  uncertainty k = 0.319458
        45         5         6        47     9        0.000000       -0.149651         3    ;  uncertainty k = 0.155940
        45         5         6        47     9      180.000000       -0.103867         4    ;  uncertainty k = 0.034099
        45         5        36        62     9        0.000000        1.685304         1    ;  uncertainty k = 0.357533
        45         5        36        62     9      180.000000       -0.042147         2    ;  uncertainty k = 0.139977
        45         5        36        62     9        0.000000       -0.124314         3    ;  uncertainty k = 0.070123
        45         5        36        62     9      180.000000        0.109754         4    ;  uncertainty k = 0.045889
        45         5        36        63     9        0.000000        1.685304         1    ;  uncertainty k = 0.357533
        45         5        36        63     9      180.000000       -0.042147         2    ;  uncertainty k = 0.139977
        45         5        36        63     9        0.000000       -0.124314         3    ;  uncertainty k = 0.070123
        45         5        36        63     9      180.000000        0.109754         4    ;  uncertainty k = 0.045889
        50        15        16        51     9        0.000000       -0.114476         1    ;  uncertainty k = 0.217567
        50        15        16        51     9      180.000000        7.749079         2    ;  uncertainty k = 0.386438
        50        15        16        51     9        0.000000       -0.417170         3    ;  uncertainty k = 0.284412
        50        15        16        51     9      180.000000        0.165523         4    ;  uncertainty k = 0.153515
        51        16        17        52     9        0.000000       -0.204014         1    ;  uncertainty k = 0.108871
        51        16        17        52     9      180.000000        7.603271         2    ;  uncertainty k = 0.277409
        51        16        17        52     9        0.000000       -0.440239         3    ;  uncertainty k = 0.271538
        51        16        17        52     9      180.000000        0.118646         4    ;  uncertainty k = 0.133309
        55        23        24        56     9        0.000000       -0.308547         1    ;  uncertainty k = 0.397502
        55        23        24        56     9      180.000000       12.289338         2    ;  uncertainty k = 0.583479
        55        23        24        56     9        0.000000        1.036027         3    ;  uncertainty k = 0.400452
        55        23        24        56     9      180.000000        0.764718         4    ;  uncertainty k = 0.591320
        57        28        29        58     9        0.000000       -0.142400         1    ;  uncertainty k = 0.199277
        57        28        29        58     9      180.000000        8.031573         2    ;  uncertainty k = 0.296573
        57        28        29        58     9        0.000000       -0.405730         3    ;  uncertainty k = 0.243463
        57        28        29        58     9      180.000000        0.178288         4    ;  uncertainty k = 0.169733
        58        29        30        59     9        0.000000       -0.170044         1    ;  uncertainty k = 0.151694
        58        29        30        59     9      180.000000        7.931560         2    ;  uncertainty k = 0.498079
        58        29        30        59     9        0.000000       -0.392734         3    ;  uncertainty k = 0.250814
        58        29        30        59     9      180.000000        0.104340         4    ;  uncertainty k = 0.185206
        62        36        37        64     9        0.000000        0.337309         1    ;  uncertainty k = 0.300408
        62        36        37        64     9      180.000000        0.412420         2    ;  uncertainty k = 0.122851
        62        36        37        64     9        0.000000        0.235990         3    ;  uncertainty k = 0.060274
        62        36        37        64     9      180.000000       -0.060002         4    ;  uncertainty k = 0.035888
        62        36        37        65     9        0.000000        0.337309         1    ;  uncertainty k = 0.300408
        62        36        37        65     9      180.000000        0.412420         2    ;  uncertainty k = 0.122851
        62        36        37        65     9        0.000000        0.235990         3    ;  uncertainty k = 0.060274
        62        36        37        65     9      180.000000       -0.060002         4    ;  uncertainty k = 0.035888
        63        36        37        64     9        0.000000        0.337309         1    ;  uncertainty k = 0.300408
        63        36        37        64     9      180.000000        0.412420         2    ;  uncertainty k = 0.122851
        63        36        37        64     9        0.000000        0.235990         3    ;  uncertainty k = 0.060274
        63        36        37        64     9      180.000000       -0.060002         4    ;  uncertainty k = 0.035888
        63        36        37        65     9        0.000000        0.337309         1    ;  uncertainty k = 0.300408
        63        36        37        65     9      180.000000        0.412420         2    ;  uncertainty k = 0.122851
        63        36        37        65     9        0.000000        0.235990         3    ;  uncertainty k = 0.060274
        63        36        37        65     9      180.000000       -0.060002         4    ;  uncertainty k = 0.035888
        64        37         2        66     9        0.000000        0.588697         1    ;  uncertainty k = 0.592787
        64        37         2        66     9      180.000000       -0.434629         2    ;  uncertainty k = 0.276285
        64        37         2        66     9        0.000000        0.041116         3    ;  uncertainty k = 0.184854
        64        37         2        66     9      180.000000        0.023048         4    ;  uncertainty k = 0.093194
        65        37         2        66     9        0.000000        0.588697         1    ;  uncertainty k = 0.592787
        65        37         2        66     9      180.000000       -0.434629         2    ;  uncertainty k = 0.276285
        65        37         2        66     9        0.000000        0.041116         3    ;  uncertainty k = 0.184854
        65        37         2        66     9      180.000000        0.023048         4    ;  uncertainty k = 0.093194

[ dihedrals ] ; impropers
;       ai        aj        ak        al funct           phase               k        pn
         8         7         9        13     4      180.000000       16.195701         2    ;  uncertainty k = 0.270899
         8         9        13         7     4      180.000000       16.195701         2    ;  uncertainty k = 0.270899
         8        13         7         9     4      180.000000       16.195701         2    ;  uncertainty k = 0.270899
         9         8        10        48     4      180.000000       13.771761         2    ;  uncertainty k = 0.098116
         9        10        48         8     4      180.000000       13.771761         2    ;  uncertainty k = 0.098116
         9        48         8        10     4      180.000000       13.771761         2    ;  uncertainty k = 0.098116
        11        10        12        14     4      180.000000       34.296168         2    ;  uncertainty k = 0.051725
        11        12        14        10     4      180.000000       34.296168         2    ;  uncertainty k = 0.051725
        11        14        10        12     4      180.000000       34.296168         2    ;  uncertainty k = 0.051725
        13         8        12        49     4      180.000000       13.771761         2    ;  uncertainty k = 0.098116
        13        12        49         8     4      180.000000       13.771761         2    ;  uncertainty k = 0.098116
        13        49         8        12     4      180.000000       13.771761         2    ;  uncertainty k = 0.098116
        14        11        15        35     4      180.000000        9.567881         2    ;  uncertainty k = 0.137648
        14        15        35        11     4      180.000000        9.567881         2    ;  uncertainty k = 0.137648
        14        35        11        15     4      180.000000        9.567881         2    ;  uncertainty k = 0.137648
        15        14        16        50     4      180.000000        4.639723         2    ;  uncertainty k = 0.104777
        15        16        50        14     4      180.000000        4.639723         2    ;  uncertainty k = 0.104777
        15        50        14        16     4      180.000000        4.639723         2    ;  uncertainty k = 0.104777
        16        15        17        51     4      180.000000        3.987253         2    ;  uncertainty k = 0.165459
        16        17        51        15     4      180.000000        3.987253         2    ;  uncertainty k = 0.165459
        16        51        15        17     4      180.000000        3.987253         2    ;  uncertainty k = 0.165459
        17        16        18        52     4      180.000000        4.730525         2    ;  uncertainty k = 0.200294
        17        18        52        16     4      180.000000        4.730525         2    ;  uncertainty k = 0.200294
        17        52        16        18     4      180.000000        4.730525         2    ;  uncertainty k = 0.200294
        18        17        19        35     4      180.000000       11.595324         2    ;  uncertainty k = 0.103518
        18        19        35        17     4      180.000000       11.595324         2    ;  uncertainty k = 0.103518
        18        35        17        19     4      180.000000       11.595324         2    ;  uncertainty k = 0.103518
        20        19        21        25     4      180.000000        4.907153         2    ;  uncertainty k = 0.611202
        20        21        25        19     4      180.000000        4.907153         2    ;  uncertainty k = 0.611202
        20        25        19        21     4      180.000000        4.907153         2    ;  uncertainty k = 0.611202
        22        21        23        27     4      180.000000       18.081278         2    ;  uncertainty k = 0.102545
        22        23        27        21     4      180.000000       18.081278         2    ;  uncertainty k = 0.102545
        22        27        21        23     4      180.000000       18.081278         2    ;  uncertainty k = 0.102545
        23        22        24        55     4      180.000000        6.587587         2    ;  uncertainty k = 0.347155
        23        24        55        22     4      180.000000        6.587587         2    ;  uncertainty k = 0.347155
        23        55        22        24     4      180.000000        6.587587         2    ;  uncertainty k = 0.347155
        24        23        25        56     4      180.000000        3.715532         2    ;  uncertainty k = 0.270487
        24        25        56        23     4      180.000000        3.715532         2    ;  uncertainty k = 0.270487
        24        56        23        25     4      180.000000        3.715532         2    ;  uncertainty k = 0.270487
        25        20        24        26     4      180.000000       49.481400         2    ;  uncertainty k = 0.023227
        25        24        26        20     4      180.000000       49.481400         2    ;  uncertainty k = 0.023227
        25        26        20        24     4      180.000000       49.481400         2    ;  uncertainty k = 0.023227
        27        22        28        32     4      180.000000       11.255808         2    ;  uncertainty k = 0.090474
        27        28        32        22     4      180.000000       11.255808         2    ;  uncertainty k = 0.090474
        27        32        22        28     4      180.000000       11.255808         2    ;  uncertainty k = 0.090474
        28        27        29        57     4      180.000000        5.237686         2    ;  uncertainty k = 0.184986
        28        29        57        27     4      180.000000        5.237686         2    ;  uncertainty k = 0.184986
        28        57        27        29     4      180.000000        5.237686         2    ;  uncertainty k = 0.184986
        29        28        30        58     4      180.000000        3.830731         2    ;  uncertainty k = 0.180188
        29        30        58        28     4      180.000000        3.830731         2    ;  uncertainty k = 0.180188
        29        58        28        30     4      180.000000        3.830731         2    ;  uncertainty k = 0.180188
        30        29        31        59     4      180.000000        4.720884         2    ;  uncertainty k = 0.228279
        30        31        59        29     4      180.000000        4.720884         2    ;  uncertainty k = 0.228279
        30        59        29        31     4      180.000000        4.720884         2    ;  uncertainty k = 0.228279
        31        30        32        33     4      180.000000       10.250147         2    ;  uncertainty k = 0.195667
        31        32        33        30     4      180.000000       10.250147         2    ;  uncertainty k = 0.195667
        31        33        30        32     4      180.000000       10.250147         2    ;  uncertainty k = 0.195667
        32        27        31        60     4      180.000000        4.749884         2    ;  uncertainty k = 0.233907
        32        31        60        27     4      180.000000        4.749884         2    ;  uncertainty k = 0.233907
        32        60        27        31     4      180.000000        4.749884         2    ;  uncertainty k = 0.233907
        35        14        18        61     4      180.000000        5.120076         2    ;  uncertainty k = 0.187805
        35        18        61        14     4      180.000000        5.120076         2    ;  uncertainty k = 0.187805
        35        61        14        18     4      180.000000        5.120076         2    ;  uncertainty k = 0.187805

[ pairs ]
;       ai        aj funct
         1         4     1
         1        36     1
         1        41     1
         1        42     1
         1        64     1
         1        65     1
         2         5     1
         2        43     1
         2        44     1
         2        62     1
         2        63     1
         3         6     1
         3        36     1
         3        38     1
         3        39     1
         3        40     1
         3        45     1
         3        64     1
         3        65     1
         4         7     1
         4        37     1
         4        46     1
         4        47     1
         4        62     1
         4        63     1
         4        66     1
         5         8     1
         5        41     1
         5        42     1
         5        64     1
         5        65     1
         6         9     1
         6        13     1
         6        37     1
         6        43     1
         6        44     1
         6        62     1
         6        63     1
         7        10     1
         7        12     1
         7        36     1
         7        45     1
         7        48     1
         7        49     1
         8        11     1
         8        46     1
         8        47     1
         9        12     1
         9        14     1
         9        49     1
        10        13     1
        10        15     1
        10        35     1
        11        16     1
        11        18     1
        11        48     1
        11        49     1
        11        50     1
        11        61     1
        12        15     1
        12        35     1
        13        14     1
        13        48     1
        14        17     1
        14        19     1
        14        51     1
        15        18     1
        15        52     1
        15        61     1
        16        19     1
        16        35     1
        17        20     1
        17        50     1
        17        53     1
        17        54     1
        17        61     1
        18        21     1
        18        25     1
        18        51     1
        19        22     1
        19        24     1
        19        26     1
        19        52     1
        19        61     1
        20        23     1
        20        27     1
        20        35     1
        20        56     1
        21        24     1
        21        26     1
        21        28     1
        21        32     1
        21        53     1
        21        54     1
        21        55     1
        22        25     1
        22        29     1
        22        31     1
        22        56     1
        22        57     1
        22        60     1
        23        26     1
        23        28     1
        23        32     1
        24        27     1
        25        53     1
        25        54     1
        25        55     1
        26        56     1
        27        30     1
        27        33     1
        27        55     1
        27        58     1
        28        31     1
        28        59     1
        28        60     1
        29        32     1
        29        33     1
        30        34     1
        30        57     1
        30        60     1
        31        58     1
        32        34     1
        32        57     1
        32        59     1
        33        59     1
        33        60     1
        35        50     1
        35        52     1
        35        53     1
        35        54     1
        36        43     1
        36        44     1
        36        46     1
        36        47     1
        36        66     1
        37        38     1
        37        39     1
        37        40     1
        37        41     1
        37        42     1
        37        45     1
        38        66     1
        39        66     1
        40        66     1
        41        43     1
        41        44     1
        41        66     1
        42        43     1
        42        44     1
        42        66     1
        43        45     1
        44        45     1
        45        46     1
        45        47     1
        45        62     1
        45        63     1
        50        51     1
        51        52     1
        55        56     1
        57        58     1
        58        59     1
        62        64     1
        62        65     1
        63        64     1
        63        65     1
        64        66     1
        65        66     1
