; ITP file created by ByteFF-joint-25, 2026-02-17 09:10:48.953238

[ atomtypes ]
;name           bonded.type        at.num        mass        charge   ptype           sigma         epsilon
 c0bf                                   6      0.0000       0.00000       A     3.39771e-01     4.50757e-01    ;  uncertainty sigma = 0.000009, epsilon = 0.000727
 c1bf                                   6      0.0000       0.00000       A     3.31520e-01     4.13555e-01    ;  uncertainty sigma = 0.000013, epsilon = 0.000397
 c2bf                                   6      0.0000       0.00000       A     3.31528e-01     4.13603e-01    ;  uncertainty sigma = 0.000006, epsilon = 0.000848
 n3bf                                   7      0.0000       0.00000       A     3.38426e-01     3.93104e-01    ;  uncertainty sigma = 0.000009, epsilon = 0.001070
 c4bf                                   6      0.0000       0.00000       A     3.31525e-01     4.13009e-01    ;  uncertainty sigma = 0.000024, epsilon = 0.000771
 s5bf                                  16      0.0000       0.00000       A     3.53273e-01     1.18165e+00    ;  uncertainty sigma = 0.000017, epsilon = 0.000896
 c6bf                                   6      0.0000       0.00000       A     3.31526e-01     4.13028e-01    ;  uncertainty sigma = 0.000005, epsilon = 0.000642
 c7bf                                   6      0.0000       0.00000       A     3.31526e-01     4.13360e-01    ;  uncertainty sigma = 0.000003, epsilon = 0.000633
 c8bf                                   6      0.0000       0.00000       A     3.31517e-01     4.13457e-01    ;  uncertainty sigma = 0.000002, epsilon = 0.000638
 c9bf                                   6      0.0000       0.00000       A     3.31517e-01     4.13357e-01    ;  uncertainty sigma = 0.000003, epsilon = 0.000532
 c10bf                                  6      0.0000       0.00000       A     3.31503e-01     4.13459e-01    ;  uncertainty sigma = 0.000003, epsilon = 0.000377
 c11bf                                  6      0.0000       0.00000       A     3.39766e-01     4.50445e-01    ;  uncertainty sigma = 0.000009, epsilon = 0.000437
 n12bf                                  7      0.0000       0.00000       A     3.18130e-01     6.84059e-01    ;  uncertainty sigma = 0.000031, epsilon = 0.002260
 n13bf                                  7      0.0000       0.00000       A     3.38449e-01     3.94403e-01    ;  uncertainty sigma = 0.000019, epsilon = 0.001004
 c14bf                                  6      0.0000       0.00000       A     3.31498e-01     4.13397e-01    ;  uncertainty sigma = 0.000033, epsilon = 0.001041
 c15bf                                  6      0.0000       0.00000       A     3.31517e-01     4.13271e-01    ;  uncertainty sigma = 0.000015, epsilon = 0.000991
 c16bf                                  6      0.0000       0.00000       A     3.31479e-01     4.13326e-01    ;  uncertainty sigma = 0.000018, epsilon = 0.001521
 c17bf                                  6      0.0000       0.00000       A     3.31546e-01     4.13945e-01    ;  uncertainty sigma = 0.000006, epsilon = 0.001637
 o18bf                                  8      0.0000       0.00000       A     3.04802e-01     6.12255e-01    ;  uncertainty sigma = 0.000021, epsilon = 0.001274
 c19bf                                  6      0.0000       0.00000       A     3.31515e-01     4.13249e-01    ;  uncertainty sigma = 0.000015, epsilon = 0.000665
 c20bf                                  6      0.0000       0.00000       A     3.31520e-01     4.13570e-01    ;  uncertainty sigma = 0.000012, epsilon = 0.000687
 c21bf                                  6      0.0000       0.00000       A     3.31510e-01     4.13332e-01    ;  uncertainty sigma = 0.000009, epsilon = 0.000445
 f22bf                                  9      0.0000       0.00000       A     3.03433e-01     3.47910e-01    ;  uncertainty sigma = 0.000006, epsilon = 0.000761
 c23bf                                  6      0.0000       0.00000       A     3.31522e-01     4.13593e-01    ;  uncertainty sigma = 0.000007, epsilon = 0.000737
 c24bf                                  6      0.0000       0.00000       A     3.31510e-01     4.13332e-01    ;  uncertainty sigma = 0.000009, epsilon = 0.000445
 f25bf                                  9      0.0000       0.00000       A     3.03433e-01     3.47910e-01    ;  uncertainty sigma = 0.000006, epsilon = 0.000762
 c26bf                                  6      0.0000       0.00000       A     3.31520e-01     4.13570e-01    ;  uncertainty sigma = 0.000012, epsilon = 0.000687
 c27bf                                  6      0.0000       0.00000       A     3.31520e-01     4.13280e-01    ;  uncertainty sigma = 0.000009, epsilon = 0.000806
 h28bf                                  1      0.0000       0.00000       A     2.60036e-01     8.68270e-02    ;  uncertainty sigma = 0.000008, epsilon = 0.000360
 h29bf                                  1      0.0000       0.00000       A     2.60036e-01     8.68270e-02    ;  uncertainty sigma = 0.000008, epsilon = 0.000360
 h30bf                                  1      0.0000       0.00000       A     2.60036e-01     8.68270e-02    ;  uncertainty sigma = 0.000008, epsilon = 0.000360
 h31bf                                  1      0.0000       0.00000       A     2.53603e-01     6.68399e-02    ;  uncertainty sigma = 0.000046, epsilon = 0.000831
 h32bf                                  1      0.0000       0.00000       A     2.62565e-01     6.70406e-02    ;  uncertainty sigma = 0.000011, epsilon = 0.000476
 h33bf                                  1      0.0000       0.00000       A     2.62563e-01     6.70163e-02    ;  uncertainty sigma = 0.000010, epsilon = 0.000415
 h34bf                                  1      0.0000       0.00000       A     2.62563e-01     6.70957e-02    ;  uncertainty sigma = 0.000006, epsilon = 0.000591
 h35bf                                  1      0.0000       0.00000       A     2.42236e-01     8.69097e-02    ;  uncertainty sigma = 0.000033, epsilon = 0.000580
 h36bf                                  1      0.0000       0.00000       A     2.42236e-01     8.69097e-02    ;  uncertainty sigma = 0.000033, epsilon = 0.000580
 h37bf                                  1      0.0000       0.00000       A     2.62549e-01     6.67404e-02    ;  uncertainty sigma = 0.000015, epsilon = 0.000444
 h38bf                                  1      0.0000       0.00000       A     2.62519e-01     6.70320e-02    ;  uncertainty sigma = 0.000024, epsilon = 0.000745
 h39bf                                  1      0.0000       0.00000       A     2.62551e-01     6.70389e-02    ;  uncertainty sigma = 0.000014, epsilon = 0.000667
 h40bf                                  1      0.0000       0.00000       A     2.62567e-01     6.73684e-02    ;  uncertainty sigma = 0.000010, epsilon = 0.000382
 h41bf                                  1      0.0000       0.00000       A     2.62551e-01     6.70389e-02    ;  uncertainty sigma = 0.000014, epsilon = 0.000667
 h42bf                                  1      0.0000       0.00000       A     2.62562e-01     6.70502e-02    ;  uncertainty sigma = 0.000011, epsilon = 0.000707

[ moleculetype ]
;name             nrexcl
 MOL                   3

[ atoms ]
;       nr            type      resi   res      atom      cgnr      charge          mass ; qtot
         1            c0bf         1   UNL        c0         1    -0.01762       12.0110 ; qtot   -0.018
         2            c1bf         1   UNL        c1         2    -0.12331       12.0110 ; qtot   -0.141
         3            c2bf         1   UNL        c2         3     0.33367       12.0110 ; qtot    0.193
         4            n3bf         1   UNL        n3         4    -0.63966       14.0070 ; qtot   -0.447
         5            c4bf         1   UNL        c4         5     0.50859       12.0110 ; qtot    0.062
         6            s5bf         1   UNL        s5         6    -0.23134       32.0670 ; qtot   -0.170
         7            c6bf         1   UNL        c6         7    -0.13716       12.0110 ; qtot   -0.307
         8            c7bf         1   UNL        c7         8    -0.09753       12.0110 ; qtot   -0.404
         9            c8bf         1   UNL        c8         9    -0.13568       12.0110 ; qtot   -0.540
        10            c9bf         1   UNL        c9        10    -0.09213       12.0110 ; qtot   -0.632
        11           c10bf         1   UNL       c10        11    -0.12041       12.0110 ; qtot   -0.753
        12           c11bf         1   UNL       c11        12     0.15970       12.0110 ; qtot   -0.593
        13           n12bf         1   UNL       n12        13    -0.20398       14.0070 ; qtot   -0.797
        14           n13bf         1   UNL       n13        14    -0.40752       14.0070 ; qtot   -1.204
        15           c14bf         1   UNL       c14        15     0.39145       12.0110 ; qtot   -0.813
        16           c15bf         1   UNL       c15        16    -0.16644       12.0110 ; qtot   -0.979
        17           c16bf         1   UNL       c16        17    -0.21412       12.0110 ; qtot   -1.193
        18           c17bf         1   UNL       c17        18     0.67439       12.0110 ; qtot   -0.519
        19           o18bf         1   UNL       o18        19    -0.61615       15.9990 ; qtot   -1.135
        20           c19bf         1   UNL       c19        20    -0.06971       12.0110 ; qtot   -1.205
        21           c20bf         1   UNL       c20        21    -0.15743       12.0110 ; qtot   -1.362
        22           c21bf         1   UNL       c21        22     0.15364       12.0110 ; qtot   -1.209
        23           f22bf         1   UNL       f22        23    -0.13656       18.9980 ; qtot   -1.345
        24           c23bf         1   UNL       c23        24    -0.19537       12.0110 ; qtot   -1.541
        25           c24bf         1   UNL       c24        25     0.15364       12.0110 ; qtot   -1.387
        26           f25bf         1   UNL       f25        26    -0.13656       18.9980 ; qtot   -1.524
        27           c26bf         1   UNL       c26        27    -0.15743       12.0110 ; qtot   -1.681
        28           c27bf         1   UNL       c27        28    -0.07892       12.0110 ; qtot   -1.760
        29           h28bf         1   UNL       h28        29     0.05186        1.0080 ; qtot   -1.708
        30           h29bf         1   UNL       h29        30     0.05186        1.0080 ; qtot   -1.656
        31           h30bf         1   UNL       h30        31     0.05186        1.0080 ; qtot   -1.604
        32           h31bf         1   UNL       h31        32     0.04221        1.0080 ; qtot   -1.562
        33           h32bf         1   UNL       h32        33     0.14650        1.0080 ; qtot   -1.416
        34           h33bf         1   UNL       h33        34     0.13730        1.0080 ; qtot   -1.278
        35           h34bf         1   UNL       h34        35     0.13990        1.0080 ; qtot   -1.138
        36           h35bf         1   UNL       h35        36     0.08066        1.0080 ; qtot   -1.058
        37           h36bf         1   UNL       h36        37     0.08066        1.0080 ; qtot   -0.977
        38           h37bf         1   UNL       h37        38     0.15224        1.0080 ; qtot   -0.825
        39           h38bf         1   UNL       h38        39     0.16763        1.0080 ; qtot   -0.657
        40           h39bf         1   UNL       h39        40     0.16641        1.0080 ; qtot   -0.491
        41           h40bf         1   UNL       h40        41     0.17223        1.0080 ; qtot   -0.319
        42           h41bf         1   UNL       h41        42     0.16641        1.0080 ; qtot   -0.152
        43           h42bf         1   UNL       h42        43     0.15222        1.0080 ; qtot   -0.000

[ bonds ]
;       ai        aj funct               r               k
         1         2     1        0.150078   245085.078076    ;  uncertainty r = 0.000045, k = 6.651924
         1        29     1        0.109508   309590.794873    ;  uncertainty r = 0.000019, k = 1.818233
         1        30     1        0.109508   309590.794873    ;  uncertainty r = 0.000019, k = 1.818233
         1        31     1        0.109508   309590.794873    ;  uncertainty r = 0.000019, k = 1.818233
         2         3     1        0.137199   419105.769092    ;  uncertainty r = 0.000035, k = 7.735660
         2         6     1        0.174413   184936.349658    ;  uncertainty r = 0.000052, k = 9.037971
         3         4     1        0.137412   296832.480566    ;  uncertainty r = 0.000060, k = 6.748787
         3        32     1        0.108660   334844.008203    ;  uncertainty r = 0.000018, k = 3.388000
         4         5     1        0.130773   430400.807031    ;  uncertainty r = 0.000030, k = 6.150844
         5         6     1        0.176833   155815.413428    ;  uncertainty r = 0.000151, k = 11.930533
         5         7     1        0.145932   256904.827002    ;  uncertainty r = 0.000095, k = 3.639122
         7         8     1        0.139973   347705.977637    ;  uncertainty r = 0.000022, k = 1.841645
         7        28     1        0.139719   342611.630762    ;  uncertainty r = 0.000018, k = 2.961306
         8         9     1        0.139219   367425.478125    ;  uncertainty r = 0.000035, k = 1.741724
         8        33     1        0.108723   333859.016357    ;  uncertainty r = 0.000039, k = 0.574583
         9        10     1        0.139542   371295.116309    ;  uncertainty r = 0.000014, k = 1.494710
         9        34     1        0.108823   333120.687451    ;  uncertainty r = 0.000020, k = 1.171788
        10        11     1        0.139712   355003.487549    ;  uncertainty r = 0.000071, k = 2.617992
        10        35     1        0.108844   333129.599902    ;  uncertainty r = 0.000013, k = 0.702691
        11        12     1        0.151484   229196.246143    ;  uncertainty r = 0.000029, k = 6.097473
        11        28     1        0.139207   348394.662402    ;  uncertainty r = 0.000046, k = 4.868655
        12        13     1        0.146956   226312.927734    ;  uncertainty r = 0.000082, k = 7.993260
        12        36     1        0.109288   307624.258691    ;  uncertainty r = 0.000019, k = 0.768082
        12        37     1        0.109288   307624.258691    ;  uncertainty r = 0.000019, k = 0.768082
        13        14     1        0.133719   291839.975684    ;  uncertainty r = 0.000103, k = 13.619026
        13        18     1        0.139210   287082.463281    ;  uncertainty r = 0.000112, k = 8.370610
        14        15     1        0.130260   486820.964258    ;  uncertainty r = 0.000104, k = 8.324314
        15        16     1        0.143148   246844.814746    ;  uncertainty r = 0.000136, k = 10.011203
        15        20     1        0.147088   262485.477051    ;  uncertainty r = 0.000091, k = 9.142570
        16        17     1        0.134977   481508.785840    ;  uncertainty r = 0.000047, k = 10.409223
        16        38     1        0.108783   336902.886572    ;  uncertainty r = 0.000050, k = 1.619691
        17        18     1        0.145432   272577.129785    ;  uncertainty r = 0.000089, k = 4.402721
        17        39     1        0.108708   341990.721484    ;  uncertainty r = 0.000030, k = 2.410372
        18        19     1        0.124008   735950.379883    ;  uncertainty r = 0.000059, k = 6.569265
        20        21     1        0.139863   351792.144971    ;  uncertainty r = 0.000071, k = 3.727366
        20        27     1        0.139863   351792.144971    ;  uncertainty r = 0.000071, k = 3.727335
        21        22     1        0.138801   355605.524902    ;  uncertainty r = 0.000040, k = 2.002096
        21        40     1        0.108712   335835.333252    ;  uncertainty r = 0.000032, k = 0.851157
        22        23     1        0.135275   339582.852979    ;  uncertainty r = 0.000035, k = 2.432568
        22        24     1        0.139032   365693.244922    ;  uncertainty r = 0.000026, k = 3.713255
        24        25     1        0.139032   365693.193848    ;  uncertainty r = 0.000026, k = 3.713232
        24        41     1        0.108762   339358.024268    ;  uncertainty r = 0.000015, k = 0.997650
        25        26     1        0.135275   339582.852979    ;  uncertainty r = 0.000035, k = 2.432590
        25        27     1        0.138801   355605.524902    ;  uncertainty r = 0.000040, k = 2.002129
        27        42     1        0.108712   335835.307715    ;  uncertainty r = 0.000032, k = 0.851177
        28        43     1        0.108769   332018.173828    ;  uncertainty r = 0.000042, k = 2.047263

[ angles ]
;       ai        aj        ak funct           theta             cth
         1         2         3     1      128.329132      344.634527    ;  uncertainty theta = 0.002936, k = 0.085491
         1         2         6     1      120.828415      363.327596    ;  uncertainty theta = 0.004195, k = 0.289094
         2         1        29     1      109.584190      406.792426    ;  uncertainty theta = 0.001399, k = 0.039650
         2         1        30     1      109.584190      406.792426    ;  uncertainty theta = 0.001399, k = 0.039650
         2         1        31     1      109.584190      406.792426    ;  uncertainty theta = 0.001399, k = 0.039650
         2         3         4     1      116.319092      764.795566    ;  uncertainty theta = 0.002394, k = 0.061671
         2         3        32     1      122.320656      248.918840    ;  uncertainty theta = 0.005384, k = 0.103515
         2         6         5     1       90.853836     1169.189739    ;  uncertainty theta = 0.000821, k = 0.084990
         3         2         6     1      109.407127      493.167804    ;  uncertainty theta = 0.004506, k = 0.088067
         3         4         5     1      111.004799      613.759781    ;  uncertainty theta = 0.004288, k = 0.095292
         4         3        32     1      117.577721      296.952371    ;  uncertainty theta = 0.003704, k = 0.164754
         4         5         6     1      115.117653      644.416889    ;  uncertainty theta = 0.003299, k = 0.189543
         4         5         7     1      124.169724      403.512663    ;  uncertainty theta = 0.005596, k = 0.208042
         5         7         8     1      119.008972      409.974095    ;  uncertainty theta = 0.003312, k = 0.101539
         5         7        28     1      118.508072      407.827445    ;  uncertainty theta = 0.003754, k = 0.110555
         6         5         7     1      117.759315      329.306516    ;  uncertainty theta = 0.003892, k = 0.247122
         7         8         9     1      120.077591      527.914553    ;  uncertainty theta = 0.002047, k = 0.051946
         7         8        33     1      118.428444      271.418294    ;  uncertainty theta = 0.001498, k = 0.045441
         7        28        11     1      121.803040      530.057787    ;  uncertainty theta = 0.002507, k = 0.065825
         7        28        43     1      118.263000      273.884892    ;  uncertainty theta = 0.001226, k = 0.104619
         8         7        28     1      121.574318      404.554897    ;  uncertainty theta = 0.001165, k = 0.114447
         8         9        10     1      120.238876      504.260965    ;  uncertainty theta = 0.001502, k = 0.078000
         8         9        34     1      120.109024      283.651591    ;  uncertainty theta = 0.001544, k = 0.022773
         9         8        33     1      120.787415      291.922263    ;  uncertainty theta = 0.001681, k = 0.058935
         9        10        11     1      119.807373      523.578064    ;  uncertainty theta = 0.001626, k = 0.034993
         9        10        35     1      120.382812      293.646879    ;  uncertainty theta = 0.002535, k = 0.022492
        10         9        34     1      120.370872      284.001034    ;  uncertainty theta = 0.001818, k = 0.055477
        10        11        12     1      120.443542      424.596739    ;  uncertainty theta = 0.001144, k = 0.079312
        10        11        28     1      120.716103      453.562110    ;  uncertainty theta = 0.001608, k = 0.150388
        11        10        35     1      119.041092      270.205249    ;  uncertainty theta = 0.002292, k = 0.027763
        11        12        13     1      111.850136      640.946332    ;  uncertainty theta = 0.001558, k = 0.086404
        11        12        36     1      108.737137      417.208119    ;  uncertainty theta = 0.001799, k = 0.052263
        11        12        37     1      108.737137      417.208119    ;  uncertainty theta = 0.001799, k = 0.052263
        11        28        43     1      119.191055      277.093661    ;  uncertainty theta = 0.001509, k = 0.085112
        12        11        28     1      119.631516      405.799256    ;  uncertainty theta = 0.001979, k = 0.140756
        12        13        14     1      110.577248      500.232199    ;  uncertainty theta = 0.005826, k = 0.099148
        12        13        18     1      115.544518      389.337684    ;  uncertainty theta = 0.005902, k = 0.248675
        13        12        36     1      105.434692      444.216134    ;  uncertainty theta = 0.001608, k = 0.052914
        13        12        37     1      105.434692      444.216134    ;  uncertainty theta = 0.001608, k = 0.052914
        13        14        15     1      119.599083      506.750546    ;  uncertainty theta = 0.009383, k = 0.233462
        13        18        17     1      111.385658      354.543852    ;  uncertainty theta = 0.004876, k = 0.498398
        13        18        19     1      122.027390      653.228724    ;  uncertainty theta = 0.001797, k = 0.051888
        14        13        18     1      124.130821      552.011816    ;  uncertainty theta = 0.006513, k = 0.232378
        14        15        16     1      126.192650      534.970839    ;  uncertainty theta = 0.003715, k = 0.203915
        14        15        20     1      116.228676      442.181529    ;  uncertainty theta = 0.006577, k = 0.257504
        15        16        17     1      119.137741      483.732417    ;  uncertainty theta = 0.004425, k = 0.316234
        15        16        38     1      118.496231      262.252068    ;  uncertainty theta = 0.005672, k = 0.058663
        15        20        21     1      118.724350      391.877126    ;  uncertainty theta = 0.002727, k = 0.206133
        15        20        27     1      118.724350      391.877094    ;  uncertainty theta = 0.002727, k = 0.206133
        16        15        20     1      120.406021      386.651563    ;  uncertainty theta = 0.002392, k = 0.102654
        16        17        18     1      119.665359      523.118907    ;  uncertainty theta = 0.005349, k = 0.100266
        16        17        39     1      123.138992      265.275997    ;  uncertainty theta = 0.005028, k = 0.152927
        17        16        38     1      122.361343      282.774455    ;  uncertainty theta = 0.005531, k = 0.167097
        17        18        19     1      127.351967      536.919129    ;  uncertainty theta = 0.003562, k = 0.161864
        18        17        39     1      117.583885      254.681432    ;  uncertainty theta = 0.006644, k = 0.184684
        20        21        22     1      118.720169      498.330993    ;  uncertainty theta = 0.002325, k = 0.126937
        20        21        40     1      120.100601      263.055497    ;  uncertainty theta = 0.002410, k = 0.043472
        20        27        25     1      118.720169      498.330993    ;  uncertainty theta = 0.002325, k = 0.126937
        20        27        42     1      120.100601      263.055497    ;  uncertainty theta = 0.002410, k = 0.043473
        21        20        27     1      122.382584      431.454570    ;  uncertainty theta = 0.000960, k = 0.097327
        21        22        23     1      118.785866      507.579768    ;  uncertainty theta = 0.002109, k = 0.057206
        21        22        24     1      123.859070      366.023038    ;  uncertainty theta = 0.005134, k = 0.176821
        22        21        40     1      120.887062      288.478009    ;  uncertainty theta = 0.000717, k = 0.013022
        22        24        25     1      115.525330      473.107958    ;  uncertainty theta = 0.002651, k = 0.198626
        22        24        41     1      122.239304      279.302525    ;  uncertainty theta = 0.002821, k = 0.053520
        23        22        24     1      118.429832      503.503534    ;  uncertainty theta = 0.002161, k = 0.048154
        24        25        26     1      118.429825      503.503502    ;  uncertainty theta = 0.002161, k = 0.048153
        24        25        27     1      123.859070      366.023069    ;  uncertainty theta = 0.005134, k = 0.176822
        25        24        41     1      122.239304      279.302525    ;  uncertainty theta = 0.002821, k = 0.053520
        25        27        42     1      120.887062      288.478041    ;  uncertainty theta = 0.000717, k = 0.013022
        26        25        27     1      118.785866      507.579768    ;  uncertainty theta = 0.002109, k = 0.057206
        29         1        30     1      106.733055      311.192980    ;  uncertainty theta = 0.001212, k = 0.041533
        29         1        31     1      106.733055      311.192980    ;  uncertainty theta = 0.001212, k = 0.041533
        30         1        31     1      106.733055      311.192980    ;  uncertainty theta = 0.001212, k = 0.041533
        36        12        37     1      106.066360      312.941538    ;  uncertainty theta = 0.003423, k = 0.065195

[ dihedrals ] ; propers for gromacs 4.5 or higher, use funct 9
;       ai        aj        ak        al funct           phase               k        pn
         1         2         3         4     9        0.000000        0.414402         1    ;  uncertainty k = 0.669566
         1         2         3         4     9      180.000000       17.549469         2    ;  uncertainty k = 0.514115
         1         2         3         4     9        0.000000        2.064021         3    ;  uncertainty k = 0.614961
         1         2         3         4     9      180.000000        1.019360         4    ;  uncertainty k = 0.428681
         1         2         3        32     9        0.000000       -0.127586         1    ;  uncertainty k = 0.507589
         1         2         3        32     9      180.000000        8.356117         2    ;  uncertainty k = 0.364954
         1         2         3        32     9        0.000000        1.138209         3    ;  uncertainty k = 0.252468
         1         2         3        32     9      180.000000        0.700050         4    ;  uncertainty k = 0.174057
         1         2         6         5     9        0.000000        0.838534         1    ;  uncertainty k = 1.203962
         1         2         6         5     9      180.000000        9.571878         2    ;  uncertainty k = 0.882216
         1         2         6         5     9        0.000000        1.317664         3    ;  uncertainty k = 0.339237
         1         2         6         5     9      180.000000        0.242567         4    ;  uncertainty k = 0.306395
         2         3         4         5     9        0.000000       -0.066704         1    ;  uncertainty k = 0.473455
         2         3         4         5     9      180.000000       14.666443         2    ;  uncertainty k = 0.781796
         2         3         4         5     9        0.000000       -2.608998         3    ;  uncertainty k = 0.595793
         2         3         4         5     9      180.000000        1.666618         4    ;  uncertainty k = 0.375003
         2         6         5         4     9        0.000000       -0.056915         1    ;  uncertainty k = 0.423353
         2         6         5         4     9      180.000000       15.391365         2    ;  uncertainty k = 1.037853
         2         6         5         4     9        0.000000       -9.210666         3    ;  uncertainty k = 1.448438
         2         6         5         4     9      180.000000        1.730636         4    ;  uncertainty k = 0.737987
         2         6         5         7     9        0.000000        0.852085         1    ;  uncertainty k = 1.372890
         2         6         5         7     9      180.000000       10.756468         2    ;  uncertainty k = 1.030568
         2         6         5         7     9        0.000000        0.665792         3    ;  uncertainty k = 0.518029
         2         6         5         7     9      180.000000        0.526697         4    ;  uncertainty k = 0.482342
         3         2         1        29     9        0.000000        0.453189         1    ;  uncertainty k = 0.336004
         3         2         1        29     9      180.000000        0.559527         2    ;  uncertainty k = 0.287569
         3         2         1        29     9        0.000000       -0.101053         3    ;  uncertainty k = 0.030701
         3         2         1        29     9      180.000000        0.066741         4    ;  uncertainty k = 0.088373
         3         2         1        30     9        0.000000        0.453189         1    ;  uncertainty k = 0.336004
         3         2         1        30     9      180.000000        0.559527         2    ;  uncertainty k = 0.287569
         3         2         1        30     9        0.000000       -0.101053         3    ;  uncertainty k = 0.030701
         3         2         1        30     9      180.000000        0.066741         4    ;  uncertainty k = 0.088373
         3         2         1        31     9        0.000000        0.453189         1    ;  uncertainty k = 0.336004
         3         2         1        31     9      180.000000        0.559527         2    ;  uncertainty k = 0.287569
         3         2         1        31     9        0.000000       -0.101053         3    ;  uncertainty k = 0.030701
         3         2         1        31     9      180.000000        0.066741         4    ;  uncertainty k = 0.088373
         3         2         6         5     9        0.000000        0.072660         1    ;  uncertainty k = 0.797518
         3         2         6         5     9      180.000000       10.529798         2    ;  uncertainty k = 1.051792
         3         2         6         5     9        0.000000       -8.009733         3    ;  uncertainty k = 1.461103
         3         2         6         5     9      180.000000        1.973288         4    ;  uncertainty k = 0.281548
         3         4         5         6     9        0.000000       -0.219362         1    ;  uncertainty k = 0.783760
         3         4         5         6     9      180.000000       20.436682         2    ;  uncertainty k = 0.436885
         3         4         5         6     9        0.000000       -2.303403         3    ;  uncertainty k = 1.266632
         3         4         5         6     9      180.000000        1.819292         4    ;  uncertainty k = 0.534214
         3         4         5         7     9        0.000000        0.120087         1    ;  uncertainty k = 0.689600
         3         4         5         7     9      180.000000       20.196945         2    ;  uncertainty k = 0.244405
         3         4         5         7     9        0.000000        2.274348         3    ;  uncertainty k = 0.303150
         3         4         5         7     9      180.000000        1.167969         4    ;  uncertainty k = 0.302924
         4         3         2         6     9        0.000000       -0.168748         1    ;  uncertainty k = 0.276014
         4         3         2         6     9      180.000000       20.706592         2    ;  uncertainty k = 0.696357
         4         3         2         6     9        0.000000       -4.292244         3    ;  uncertainty k = 0.957726
         4         3         2         6     9      180.000000        1.026016         4    ;  uncertainty k = 0.960269
         4         5         7         8     9        0.000000        0.716472         1    ;  uncertainty k = 0.554220
         4         5         7         8     9      180.000000        3.852246         2    ;  uncertainty k = 0.176275
         4         5         7         8     9        0.000000        0.674498         3    ;  uncertainty k = 0.066884
         4         5         7         8     9      180.000000       -0.058627         4    ;  uncertainty k = 0.086969
         4         5         7        28     9        0.000000        0.717378         1    ;  uncertainty k = 0.885592
         4         5         7        28     9      180.000000        3.842081         2    ;  uncertainty k = 0.201608
         4         5         7        28     9        0.000000        0.637414         3    ;  uncertainty k = 0.099722
         4         5         7        28     9      180.000000       -0.066578         4    ;  uncertainty k = 0.085035
         5         4         3        32     9        0.000000        0.619076         1    ;  uncertainty k = 0.760942
         5         4         3        32     9      180.000000       10.114589         2    ;  uncertainty k = 0.829934
         5         4         3        32     9        0.000000        1.260238         3    ;  uncertainty k = 0.750370
         5         4         3        32     9      180.000000        0.631471         4    ;  uncertainty k = 0.214276
         5         7         8         9     9        0.000000       -0.019174         1    ;  uncertainty k = 0.499686
         5         7         8         9     9      180.000000        8.963061         2    ;  uncertainty k = 0.518656
         5         7         8         9     9        0.000000        1.143392         3    ;  uncertainty k = 0.207022
         5         7         8         9     9      180.000000        1.710099         4    ;  uncertainty k = 0.169468
         5         7         8        33     9        0.000000       -0.329837         1    ;  uncertainty k = 0.374754
         5         7         8        33     9      180.000000        7.239353         2    ;  uncertainty k = 0.379407
         5         7         8        33     9        0.000000        0.734995         3    ;  uncertainty k = 0.276158
         5         7         8        33     9      180.000000        1.186664         4    ;  uncertainty k = 0.230230
         5         7        28        11     9        0.000000        0.212807         1    ;  uncertainty k = 0.228472
         5         7        28        11     9      180.000000        8.783356         2    ;  uncertainty k = 0.479910
         5         7        28        11     9        0.000000        1.177423         3    ;  uncertainty k = 0.128912
         5         7        28        11     9      180.000000        1.706410         4    ;  uncertainty k = 0.130967
         5         7        28        43     9        0.000000       -0.285487         1    ;  uncertainty k = 0.387693
         5         7        28        43     9      180.000000        7.341783         2    ;  uncertainty k = 0.355420
         5         7        28        43     9        0.000000        0.743039         3    ;  uncertainty k = 0.264874
         5         7        28        43     9      180.000000        1.219221         4    ;  uncertainty k = 0.233043
         6         2         1        29     9        0.000000        0.305030         1    ;  uncertainty k = 0.197903
         6         2         1        29     9      180.000000       -0.331426         2    ;  uncertainty k = 0.062179
         6         2         1        29     9        0.000000        0.703457         3    ;  uncertainty k = 0.101472
         6         2         1        29     9      180.000000        0.221799         4    ;  uncertainty k = 0.037477
         6         2         1        30     9        0.000000        0.305030         1    ;  uncertainty k = 0.197903
         6         2         1        30     9      180.000000       -0.331426         2    ;  uncertainty k = 0.062179
         6         2         1        30     9        0.000000        0.703457         3    ;  uncertainty k = 0.101472
         6         2         1        30     9      180.000000        0.221799         4    ;  uncertainty k = 0.037477
         6         2         1        31     9        0.000000        0.305030         1    ;  uncertainty k = 0.197903
         6         2         1        31     9      180.000000       -0.331426         2    ;  uncertainty k = 0.062179
         6         2         1        31     9        0.000000        0.703457         3    ;  uncertainty k = 0.101472
         6         2         1        31     9      180.000000        0.221799         4    ;  uncertainty k = 0.037477
         6         2         3        32     9        0.000000        0.130708         1    ;  uncertainty k = 0.728706
         6         2         3        32     9      180.000000       11.610487         2    ;  uncertainty k = 0.477862
         6         2         3        32     9        0.000000        2.041998         3    ;  uncertainty k = 0.249961
         6         2         3        32     9      180.000000        1.037087         4    ;  uncertainty k = 0.351624
         6         5         7         8     9        0.000000       -0.524676         1    ;  uncertainty k = 1.018831
         6         5         7         8     9      180.000000        2.881526         2    ;  uncertainty k = 0.260037
         6         5         7         8     9        0.000000        0.576492         3    ;  uncertainty k = 0.216175
         6         5         7         8     9      180.000000        0.022591         4    ;  uncertainty k = 0.051553
         6         5         7        28     9        0.000000       -0.509585         1    ;  uncertainty k = 1.025571
         6         5         7        28     9      180.000000        2.885281         2    ;  uncertainty k = 0.348899
         6         5         7        28     9        0.000000        0.584996         3    ;  uncertainty k = 0.246283
         6         5         7        28     9      180.000000        0.014995         4    ;  uncertainty k = 0.026616
         7         8         9        10     9        0.000000       -0.082776         1    ;  uncertainty k = 0.090209
         7         8         9        10     9      180.000000       13.904866         2    ;  uncertainty k = 0.254859
         7         8         9        10     9        0.000000       -0.796633         3    ;  uncertainty k = 0.285974
         7         8         9        10     9      180.000000        0.729969         4    ;  uncertainty k = 0.230679
         7         8         9        34     9        0.000000        0.015964         1    ;  uncertainty k = 0.137986
         7         8         9        34     9      180.000000        7.928739         2    ;  uncertainty k = 0.337899
         7         8         9        34     9        0.000000        1.409116         3    ;  uncertainty k = 0.273485
         7         8         9        34     9      180.000000        1.833803         4    ;  uncertainty k = 0.160683
         7        28        11        10     9        0.000000       -0.276062         1    ;  uncertainty k = 0.224720
         7        28        11        10     9      180.000000       11.317837         2    ;  uncertainty k = 0.564482
         7        28        11        10     9        0.000000       -0.165836         3    ;  uncertainty k = 0.220837
         7        28        11        10     9      180.000000        0.947744         4    ;  uncertainty k = 0.473246
         7        28        11        12     9        0.000000        0.189079         1    ;  uncertainty k = 0.098185
         7        28        11        12     9      180.000000        9.761938         2    ;  uncertainty k = 0.348548
         7        28        11        12     9        0.000000        1.317003         3    ;  uncertainty k = 0.179727
         7        28        11        12     9      180.000000        1.721651         4    ;  uncertainty k = 0.276985
         8         7        28        11     9        0.000000        0.042094         1    ;  uncertainty k = 0.093519
         8         7        28        11     9      180.000000       10.161730         2    ;  uncertainty k = 0.318936
         8         7        28        11     9        0.000000       -0.268369         3    ;  uncertainty k = 0.215844
         8         7        28        11     9      180.000000        1.073815         4    ;  uncertainty k = 0.253005
         8         7        28        43     9        0.000000        0.264260         1    ;  uncertainty k = 0.073647
         8         7        28        43     9      180.000000        7.131255         2    ;  uncertainty k = 0.686671
         8         7        28        43     9        0.000000        1.415646         3    ;  uncertainty k = 0.209689
         8         7        28        43     9      180.000000        1.658707         4    ;  uncertainty k = 0.256570
         8         9        10        11     9        0.000000       -0.179211         1    ;  uncertainty k = 0.209088
         8         9        10        11     9      180.000000       13.467737         2    ;  uncertainty k = 0.345679
         8         9        10        11     9        0.000000       -0.810570         3    ;  uncertainty k = 0.376156
         8         9        10        11     9      180.000000        0.780070         4    ;  uncertainty k = 0.251488
         8         9        10        35     9        0.000000        0.069422         1    ;  uncertainty k = 0.086914
         8         9        10        35     9      180.000000        7.624567         2    ;  uncertainty k = 0.434258
         8         9        10        35     9        0.000000        1.427685         3    ;  uncertainty k = 0.234411
         8         9        10        35     9      180.000000        1.791460         4    ;  uncertainty k = 0.117265
         9         8         7        28     9        0.000000       -0.077348         1    ;  uncertainty k = 0.310504
         9         8         7        28     9      180.000000       10.975151         2    ;  uncertainty k = 0.246181
         9         8         7        28     9        0.000000       -0.567857         3    ;  uncertainty k = 0.256279
         9         8         7        28     9      180.000000        0.929896         4    ;  uncertainty k = 0.256574
         9        10        11        12     9        0.000000        0.218039         1    ;  uncertainty k = 0.225467
         9        10        11        12     9      180.000000        9.838812         2    ;  uncertainty k = 0.571819
         9        10        11        12     9        0.000000        1.316389         3    ;  uncertainty k = 0.344704
         9        10        11        12     9      180.000000        1.797120         4    ;  uncertainty k = 0.239520
         9        10        11        28     9        0.000000       -0.233232         1    ;  uncertainty k = 0.123883
         9        10        11        28     9      180.000000       11.524472         2    ;  uncertainty k = 0.433246
         9        10        11        28     9        0.000000       -0.489590         3    ;  uncertainty k = 0.264107
         9        10        11        28     9      180.000000        0.850587         4    ;  uncertainty k = 0.384058
        10         9         8        33     9        0.000000        0.004533         1    ;  uncertainty k = 0.090737
        10         9         8        33     9      180.000000        7.564053         2    ;  uncertainty k = 0.201997
        10         9         8        33     9        0.000000        1.371004         3    ;  uncertainty k = 0.188182
        10         9         8        33     9      180.000000        1.845421         4    ;  uncertainty k = 0.205502
        10        11        12        13     9        0.000000        1.885641         1    ;  uncertainty k = 0.778318
        10        11        12        13     9      180.000000        2.356237         2    ;  uncertainty k = 0.334342
        10        11        12        13     9        0.000000        0.614656         3    ;  uncertainty k = 0.146766
        10        11        12        13     9      180.000000        0.098079         4    ;  uncertainty k = 0.052812
        10        11        12        36     9        0.000000       -0.523198         1    ;  uncertainty k = 0.216079
        10        11        12        36     9      180.000000        2.017358         2    ;  uncertainty k = 0.114025
        10        11        12        36     9        0.000000        0.499828         3    ;  uncertainty k = 0.059032
        10        11        12        36     9      180.000000        0.146967         4    ;  uncertainty k = 0.046852
        10        11        12        37     9        0.000000       -0.523198         1    ;  uncertainty k = 0.216079
        10        11        12        37     9      180.000000        2.017358         2    ;  uncertainty k = 0.114025
        10        11        12        37     9        0.000000        0.499828         3    ;  uncertainty k = 0.059032
        10        11        12        37     9      180.000000        0.146967         4    ;  uncertainty k = 0.046852
        10        11        28        43     9        0.000000        0.176272         1    ;  uncertainty k = 0.193046
        10        11        28        43     9      180.000000        7.487736         2    ;  uncertainty k = 0.590227
        10        11        28        43     9        0.000000        1.341204         3    ;  uncertainty k = 0.220732
        10        11        28        43     9      180.000000        1.698789         4    ;  uncertainty k = 0.171816
        11        10         9        34     9        0.000000        0.030624         1    ;  uncertainty k = 0.208421
        11        10         9        34     9      180.000000        7.566902         2    ;  uncertainty k = 0.327077
        11        10         9        34     9        0.000000        1.371020         3    ;  uncertainty k = 0.193687
        11        10         9        34     9      180.000000        1.780918         4    ;  uncertainty k = 0.107696
        11        12        13        14     9        0.000000        0.444676         1    ;  uncertainty k = 0.694102
        11        12        13        14     9      180.000000        0.069801         2    ;  uncertainty k = 0.312467
        11        12        13        14     9        0.000000        0.769669         3    ;  uncertainty k = 0.370246
        11        12        13        14     9      180.000000        0.186064         4    ;  uncertainty k = 0.073124
        11        12        13        18     9        0.000000        1.481797         1    ;  uncertainty k = 0.448569
        11        12        13        18     9      180.000000       -0.036440         2    ;  uncertainty k = 0.153281
        11        12        13        18     9        0.000000        0.231350         3    ;  uncertainty k = 0.247739
        11        12        13        18     9      180.000000        0.254040         4    ;  uncertainty k = 0.124788
        12        11        10        35     9        0.000000        0.027341         1    ;  uncertainty k = 0.256084
        12        11        10        35     9      180.000000        7.587405         2    ;  uncertainty k = 0.204487
        12        11        10        35     9        0.000000        0.609222         3    ;  uncertainty k = 0.269376
        12        11        10        35     9      180.000000        1.046091         4    ;  uncertainty k = 0.190563
        12        11        28        43     9        0.000000        0.001966         1    ;  uncertainty k = 0.214412
        12        11        28        43     9      180.000000        7.823256         2    ;  uncertainty k = 0.326123
        12        11        28        43     9        0.000000        0.540801         3    ;  uncertainty k = 0.326244
        12        11        28        43     9      180.000000        1.085908         4    ;  uncertainty k = 0.179522
        12        13        14        15     9        0.000000       -0.896071         1    ;  uncertainty k = 4.127420
        12        13        14        15     9      180.000000       12.848550         2    ;  uncertainty k = 0.830289
        12        13        14        15     9        0.000000        1.812857         3    ;  uncertainty k = 0.971748
        12        13        14        15     9      180.000000        0.130899         4    ;  uncertainty k = 0.444620
        12        13        18        17     9        0.000000        0.633860         1    ;  uncertainty k = 1.108312
        12        13        18        17     9      180.000000        7.728876         2    ;  uncertainty k = 0.354944
        12        13        18        17     9        0.000000        1.756833         3    ;  uncertainty k = 0.398229
        12        13        18        17     9      180.000000       -0.228865         4    ;  uncertainty k = 0.310355
        12        13        18        19     9        0.000000        0.937716         1    ;  uncertainty k = 1.270707
        12        13        18        19     9      180.000000       11.758630         2    ;  uncertainty k = 0.388798
        12        13        18        19     9        0.000000        0.652776         3    ;  uncertainty k = 0.132590
        12        13        18        19     9      180.000000       -0.183371         4    ;  uncertainty k = 0.344050
        13        12        11        28     9        0.000000        1.971640         1    ;  uncertainty k = 0.883238
        13        12        11        28     9      180.000000        2.304611         2    ;  uncertainty k = 0.411384
        13        12        11        28     9        0.000000        0.572842         3    ;  uncertainty k = 0.217748
        13        12        11        28     9      180.000000        0.086852         4    ;  uncertainty k = 0.062892
        13        14        15        16     9        0.000000        0.188393         1    ;  uncertainty k = 0.780216
        13        14        15        16     9      180.000000       24.687753         2    ;  uncertainty k = 0.176803
        13        14        15        16     9        0.000000        1.985802         3    ;  uncertainty k = 0.563904
        13        14        15        16     9      180.000000        0.690133         4    ;  uncertainty k = 0.279420
        13        14        15        20     9        0.000000       -0.043172         1    ;  uncertainty k = 0.548350
        13        14        15        20     9      180.000000       25.753064         2    ;  uncertainty k = 0.233339
        13        14        15        20     9        0.000000        2.942378         3    ;  uncertainty k = 0.125640
        13        14        15        20     9      180.000000        0.686554         4    ;  uncertainty k = 0.574272
        13        18        17        16     9        0.000000        0.419278         1    ;  uncertainty k = 2.274473
        13        18        17        16     9      180.000000        1.605236         2    ;  uncertainty k = 0.697545
        13        18        17        16     9        0.000000       -0.163994         3    ;  uncertainty k = 0.200172
        13        18        17        16     9      180.000000        0.325528         4    ;  uncertainty k = 0.077908
        13        18        17        39     9        0.000000       -1.120179         1    ;  uncertainty k = 2.456073
        13        18        17        39     9      180.000000        2.364370         2    ;  uncertainty k = 0.329357
        13        18        17        39     9        0.000000        0.459246         3    ;  uncertainty k = 0.206811
        13        18        17        39     9      180.000000        0.273913         4    ;  uncertainty k = 0.151693
        14        13        12        36     9        0.000000        0.384448         1    ;  uncertainty k = 0.533469
        14        13        12        36     9      180.000000        1.169938         2    ;  uncertainty k = 0.403681
        14        13        12        36     9        0.000000        0.582237         3    ;  uncertainty k = 0.072383
        14        13        12        36     9      180.000000        0.242295         4    ;  uncertainty k = 0.129100
        14        13        12        37     9        0.000000        0.384448         1    ;  uncertainty k = 0.533469
        14        13        12        37     9      180.000000        1.169938         2    ;  uncertainty k = 0.403681
        14        13        12        37     9        0.000000        0.582237         3    ;  uncertainty k = 0.072383
        14        13        12        37     9      180.000000        0.242295         4    ;  uncertainty k = 0.129100
        14        13        18        17     9        0.000000        2.898929         1    ;  uncertainty k = 2.397583
        14        13        18        17     9      180.000000        2.029916         2    ;  uncertainty k = 0.771883
        14        13        18        17     9        0.000000        1.223010         3    ;  uncertainty k = 0.519452
        14        13        18        17     9      180.000000        0.577304         4    ;  uncertainty k = 0.261783
        14        13        18        19     9        0.000000        2.605133         1    ;  uncertainty k = 1.172602
        14        13        18        19     9      180.000000       10.822449         2    ;  uncertainty k = 0.452983
        14        13        18        19     9        0.000000        1.231348         3    ;  uncertainty k = 0.502016
        14        13        18        19     9      180.000000       -0.281985         4    ;  uncertainty k = 0.368205
        14        15        16        17     9        0.000000        0.352014         1    ;  uncertainty k = 1.410780
        14        15        16        17     9      180.000000        4.437856         2    ;  uncertainty k = 0.753046
        14        15        16        17     9        0.000000        0.213422         3    ;  uncertainty k = 0.453700
        14        15        16        17     9      180.000000        0.599744         4    ;  uncertainty k = 0.185202
        14        15        16        38     9        0.000000       -0.968928         1    ;  uncertainty k = 0.799755
        14        15        16        38     9      180.000000        4.602265         2    ;  uncertainty k = 0.838958
        14        15        16        38     9        0.000000        0.753727         3    ;  uncertainty k = 0.438991
        14        15        16        38     9      180.000000        0.503348         4    ;  uncertainty k = 0.169976
        14        15        20        21     9        0.000000        0.577113         1    ;  uncertainty k = 0.839214
        14        15        20        21     9      180.000000        4.374001         2    ;  uncertainty k = 0.259899
        14        15        20        21     9        0.000000        0.310715         3    ;  uncertainty k = 0.200156
        14        15        20        21     9      180.000000       -0.034774         4    ;  uncertainty k = 0.102004
        14        15        20        27     9        0.000000        0.577112         1    ;  uncertainty k = 0.839214
        14        15        20        27     9      180.000000        4.374001         2    ;  uncertainty k = 0.259898
        14        15        20        27     9        0.000000        0.310715         3    ;  uncertainty k = 0.200157
        14        15        20        27     9      180.000000       -0.034774         4    ;  uncertainty k = 0.102004
        15        14        13        18     9        0.000000        3.891956         1    ;  uncertainty k = 2.526573
        15        14        13        18     9      180.000000        4.735669         2    ;  uncertainty k = 1.364246
        15        14        13        18     9        0.000000        1.841464         3    ;  uncertainty k = 0.687599
        15        14        13        18     9      180.000000        0.376448         4    ;  uncertainty k = 0.594894
        15        16        17        18     9        0.000000       -0.247895         1    ;  uncertainty k = 0.726732
        15        16        17        18     9      180.000000       17.791948         2    ;  uncertainty k = 0.335371
        15        16        17        18     9        0.000000        0.675076         3    ;  uncertainty k = 0.419223
        15        16        17        18     9      180.000000        0.996301         4    ;  uncertainty k = 0.368800
        15        16        17        39     9        0.000000       -0.353358         1    ;  uncertainty k = 0.789416
        15        16        17        39     9      180.000000       16.620934         2    ;  uncertainty k = 0.655545
        15        16        17        39     9        0.000000        1.944682         3    ;  uncertainty k = 0.309791
        15        16        17        39     9      180.000000        1.162896         4    ;  uncertainty k = 0.587297
        15        20        21        22     9        0.000000        0.184078         1    ;  uncertainty k = 0.251452
        15        20        21        22     9      180.000000        9.064982         2    ;  uncertainty k = 0.510143
        15        20        21        22     9        0.000000        1.393257         3    ;  uncertainty k = 0.168521
        15        20        21        22     9      180.000000        1.772060         4    ;  uncertainty k = 0.162457
        15        20        21        40     9        0.000000       -0.174783         1    ;  uncertainty k = 0.349607
        15        20        21        40     9      180.000000        7.187869         2    ;  uncertainty k = 0.358632
        15        20        21        40     9        0.000000        0.677750         3    ;  uncertainty k = 0.291506
        15        20        21        40     9      180.000000        1.081331         4    ;  uncertainty k = 0.227152
        15        20        27        25     9        0.000000        0.184079         1    ;  uncertainty k = 0.251450
        15        20        27        25     9      180.000000        9.064984         2    ;  uncertainty k = 0.510143
        15        20        27        25     9        0.000000        1.393256         3    ;  uncertainty k = 0.168522
        15        20        27        25     9      180.000000        1.772060         4    ;  uncertainty k = 0.162456
        15        20        27        42     9        0.000000       -0.174783         1    ;  uncertainty k = 0.349608
        15        20        27        42     9      180.000000        7.187870         2    ;  uncertainty k = 0.358633
        15        20        27        42     9        0.000000        0.677750         3    ;  uncertainty k = 0.291506
        15        20        27        42     9      180.000000        1.081331         4    ;  uncertainty k = 0.227152
        16        15        20        21     9        0.000000        0.063923         1    ;  uncertainty k = 0.802333
        16        15        20        21     9      180.000000        3.869396         2    ;  uncertainty k = 0.175768
        16        15        20        21     9        0.000000        0.641555         3    ;  uncertainty k = 0.157661
        16        15        20        21     9      180.000000       -0.162970         4    ;  uncertainty k = 0.081803
        16        15        20        27     9        0.000000        0.063923         1    ;  uncertainty k = 0.802332
        16        15        20        27     9      180.000000        3.869397         2    ;  uncertainty k = 0.175767
        16        15        20        27     9        0.000000        0.641555         3    ;  uncertainty k = 0.157661
        16        15        20        27     9      180.000000       -0.162970         4    ;  uncertainty k = 0.081803
        16        17        18        19     9        0.000000       -2.001816         1    ;  uncertainty k = 1.317032
        16        17        18        19     9      180.000000        3.389786         2    ;  uncertainty k = 0.746169
        16        17        18        19     9        0.000000       -0.174173         3    ;  uncertainty k = 0.227865
        16        17        18        19     9      180.000000        0.016096         4    ;  uncertainty k = 0.112368
        17        16        15        20     9        0.000000        0.540598         1    ;  uncertainty k = 0.803544
        17        16        15        20     9      180.000000        4.601494         2    ;  uncertainty k = 0.981891
        17        16        15        20     9        0.000000        0.716168         3    ;  uncertainty k = 0.328634
        17        16        15        20     9      180.000000        0.575741         4    ;  uncertainty k = 0.279114
        18        13        12        36     9        0.000000       -0.473323         1    ;  uncertainty k = 0.528826
        18        13        12        36     9      180.000000        1.255553         2    ;  uncertainty k = 0.272888
        18        13        12        36     9        0.000000        0.779300         3    ;  uncertainty k = 0.054471
        18        13        12        36     9      180.000000        0.412020         4    ;  uncertainty k = 0.034766
        18        13        12        37     9        0.000000       -0.473323         1    ;  uncertainty k = 0.528826
        18        13        12        37     9      180.000000        1.255553         2    ;  uncertainty k = 0.272888
        18        13        12        37     9        0.000000        0.779300         3    ;  uncertainty k = 0.054471
        18        13        12        37     9      180.000000        0.412020         4    ;  uncertainty k = 0.034766
        18        17        16        38     9        0.000000       -0.328809         1    ;  uncertainty k = 0.661921
        18        17        16        38     9      180.000000       15.838400         2    ;  uncertainty k = 0.436273
        18        17        16        38     9        0.000000        1.792267         3    ;  uncertainty k = 0.273244
        18        17        16        38     9      180.000000        1.039596         4    ;  uncertainty k = 0.351736
        19        18        17        39     9        0.000000       -3.368927         1    ;  uncertainty k = 1.838218
        19        18        17        39     9      180.000000        6.946407         2    ;  uncertainty k = 0.848337
        19        18        17        39     9        0.000000        0.461531         3    ;  uncertainty k = 0.415057
        19        18        17        39     9      180.000000       -0.155191         4    ;  uncertainty k = 0.180479
        20        15        16        38     9        0.000000       -0.583861         1    ;  uncertainty k = 1.092916
        20        15        16        38     9      180.000000        5.200620         2    ;  uncertainty k = 0.384920
        20        15        16        38     9        0.000000        1.054483         3    ;  uncertainty k = 0.197088
        20        15        16        38     9      180.000000        0.361604         4    ;  uncertainty k = 0.155457
        20        21        22        23     9        0.000000       -0.049881         1    ;  uncertainty k = 0.257803
        20        21        22        23     9      180.000000       12.651864         2    ;  uncertainty k = 0.408915
        20        21        22        23     9        0.000000        1.531328         3    ;  uncertainty k = 0.260602
        20        21        22        23     9      180.000000        1.472262         4    ;  uncertainty k = 0.165252
        20        21        22        24     9        0.000000        0.057717         1    ;  uncertainty k = 0.164909
        20        21        22        24     9      180.000000        8.885300         2    ;  uncertainty k = 0.653772
        20        21        22        24     9        0.000000       -0.076192         3    ;  uncertainty k = 0.320382
        20        21        22        24     9      180.000000        1.240042         4    ;  uncertainty k = 0.346858
        20        27        25        24     9        0.000000        0.057718         1    ;  uncertainty k = 0.164909
        20        27        25        24     9      180.000000        8.885300         2    ;  uncertainty k = 0.653771
        20        27        25        24     9        0.000000       -0.076192         3    ;  uncertainty k = 0.320383
        20        27        25        24     9      180.000000        1.240042         4    ;  uncertainty k = 0.346858
        20        27        25        26     9        0.000000       -0.049879         1    ;  uncertainty k = 0.257803
        20        27        25        26     9      180.000000       12.651865         2    ;  uncertainty k = 0.408916
        20        27        25        26     9        0.000000        1.531328         3    ;  uncertainty k = 0.260602
        20        27        25        26     9      180.000000        1.472261         4    ;  uncertainty k = 0.165252
        21        20        27        25     9        0.000000        0.022121         1    ;  uncertainty k = 0.243825
        21        20        27        25     9      180.000000       11.046753         2    ;  uncertainty k = 0.290032
        21        20        27        25     9        0.000000       -0.498760         3    ;  uncertainty k = 0.387970
        21        20        27        25     9      180.000000        1.024180         4    ;  uncertainty k = 0.289071
        21        20        27        42     9        0.000000        0.218088         1    ;  uncertainty k = 0.243952
        21        20        27        42     9      180.000000        6.917737         2    ;  uncertainty k = 0.583903
        21        20        27        42     9        0.000000        1.463818         3    ;  uncertainty k = 0.217536
        21        20        27        42     9      180.000000        1.686540         4    ;  uncertainty k = 0.256320
        21        22        24        25     9        0.000000        0.079700         1    ;  uncertainty k = 0.154156
        21        22        24        25     9      180.000000        8.889417         2    ;  uncertainty k = 0.512494
        21        22        24        25     9        0.000000       -0.106306         3    ;  uncertainty k = 0.476972
        21        22        24        25     9      180.000000        1.234736         4    ;  uncertainty k = 0.285242
        21        22        24        41     9        0.000000        0.130307         1    ;  uncertainty k = 0.144653
        21        22        24        41     9      180.000000        5.532844         2    ;  uncertainty k = 0.680369
        21        22        24        41     9        0.000000        1.265320         3    ;  uncertainty k = 0.294957
        21        22        24        41     9      180.000000        1.481410         4    ;  uncertainty k = 0.077611
        22        21        20        27     9        0.000000        0.022121         1    ;  uncertainty k = 0.243825
        22        21        20        27     9      180.000000       11.046753         2    ;  uncertainty k = 0.290033
        22        21        20        27     9        0.000000       -0.498760         3    ;  uncertainty k = 0.387970
        22        21        20        27     9      180.000000        1.024180         4    ;  uncertainty k = 0.289072
        22        24        25        26     9        0.000000       -0.032347         1    ;  uncertainty k = 0.289699
        22        24        25        26     9      180.000000       12.548672         2    ;  uncertainty k = 0.646212
        22        24        25        26     9        0.000000        1.557435         3    ;  uncertainty k = 0.311241
        22        24        25        26     9      180.000000        1.512893         4    ;  uncertainty k = 0.296058
        22        24        25        27     9        0.000000        0.079700         1    ;  uncertainty k = 0.154156
        22        24        25        27     9      180.000000        8.889415         2    ;  uncertainty k = 0.512494
        22        24        25        27     9        0.000000       -0.106306         3    ;  uncertainty k = 0.476971
        22        24        25        27     9      180.000000        1.234736         4    ;  uncertainty k = 0.285241
        23        22        21        40     9        0.000000       -0.415350         1    ;  uncertainty k = 0.228614
        23        22        21        40     9      180.000000        9.086426         2    ;  uncertainty k = 0.377298
        23        22        21        40     9        0.000000        0.802704         3    ;  uncertainty k = 0.232488
        23        22        21        40     9      180.000000        1.043251         4    ;  uncertainty k = 0.211577
        23        22        24        25     9        0.000000       -0.032345         1    ;  uncertainty k = 0.289699
        23        22        24        25     9      180.000000       12.548672         2    ;  uncertainty k = 0.646212
        23        22        24        25     9        0.000000        1.557435         3    ;  uncertainty k = 0.311241
        23        22        24        25     9      180.000000        1.512892         4    ;  uncertainty k = 0.296059
        23        22        24        41     9        0.000000       -0.234235         1    ;  uncertainty k = 0.255322
        23        22        24        41     9      180.000000        8.539482         2    ;  uncertainty k = 0.302304
        23        22        24        41     9        0.000000        0.791090         3    ;  uncertainty k = 0.302726
        23        22        24        41     9      180.000000        0.996026         4    ;  uncertainty k = 0.177952
        24        22        21        40     9        0.000000       -0.021691         1    ;  uncertainty k = 0.235351
        24        22        21        40     9      180.000000        5.842807         2    ;  uncertainty k = 0.659900
        24        22        21        40     9        0.000000        1.305046         3    ;  uncertainty k = 0.309757
        24        22        21        40     9      180.000000        1.641078         4    ;  uncertainty k = 0.167200
        24        25        27        42     9        0.000000       -0.021690         1    ;  uncertainty k = 0.235350
        24        25        27        42     9      180.000000        5.842806         2    ;  uncertainty k = 0.659901
        24        25        27        42     9        0.000000        1.305046         3    ;  uncertainty k = 0.309758
        24        25        27        42     9      180.000000        1.641078         4    ;  uncertainty k = 0.167201
        26        25        24        41     9        0.000000       -0.234235         1    ;  uncertainty k = 0.255324
        26        25        24        41     9      180.000000        8.539485         2    ;  uncertainty k = 0.302303
        26        25        24        41     9        0.000000        0.791090         3    ;  uncertainty k = 0.302726
        26        25        24        41     9      180.000000        0.996026         4    ;  uncertainty k = 0.177952
        26        25        27        42     9        0.000000       -0.415350         1    ;  uncertainty k = 0.228614
        26        25        27        42     9      180.000000        9.086428         2    ;  uncertainty k = 0.377299
        26        25        27        42     9        0.000000        0.802705         3    ;  uncertainty k = 0.232487
        26        25        27        42     9      180.000000        1.043252         4    ;  uncertainty k = 0.211577
        27        20        21        40     9        0.000000        0.218088         1    ;  uncertainty k = 0.243952
        27        20        21        40     9      180.000000        6.917737         2    ;  uncertainty k = 0.583902
        27        20        21        40     9        0.000000        1.463818         3    ;  uncertainty k = 0.217536
        27        20        21        40     9      180.000000        1.686540         4    ;  uncertainty k = 0.256320
        27        25        24        41     9        0.000000        0.130307         1    ;  uncertainty k = 0.144654
        27        25        24        41     9      180.000000        5.532843         2    ;  uncertainty k = 0.680369
        27        25        24        41     9        0.000000        1.265320         3    ;  uncertainty k = 0.294958
        27        25        24        41     9      180.000000        1.481410         4    ;  uncertainty k = 0.077611
        28         7         8        33     9        0.000000        0.147276         1    ;  uncertainty k = 0.092220
        28         7         8        33     9      180.000000        6.949810         2    ;  uncertainty k = 0.602369
        28         7         8        33     9        0.000000        1.411050         3    ;  uncertainty k = 0.217139
        28         7         8        33     9      180.000000        1.644788         4    ;  uncertainty k = 0.264028
        28        11        10        35     9        0.000000        0.243325         1    ;  uncertainty k = 0.222320
        28        11        10        35     9      180.000000        7.184747         2    ;  uncertainty k = 0.678587
        28        11        10        35     9        0.000000        1.418963         3    ;  uncertainty k = 0.351250
        28        11        10        35     9      180.000000        1.651357         4    ;  uncertainty k = 0.169137
        28        11        12        36     9        0.000000       -0.409685         1    ;  uncertainty k = 0.304990
        28        11        12        36     9      180.000000        1.868536         2    ;  uncertainty k = 0.136083
        28        11        12        36     9        0.000000        0.464772         3    ;  uncertainty k = 0.107777
        28        11        12        36     9      180.000000        0.148843         4    ;  uncertainty k = 0.035075
        28        11        12        37     9        0.000000       -0.409685         1    ;  uncertainty k = 0.304990
        28        11        12        37     9      180.000000        1.868536         2    ;  uncertainty k = 0.136083
        28        11        12        37     9        0.000000        0.464772         3    ;  uncertainty k = 0.107777
        28        11        12        37     9      180.000000        0.148843         4    ;  uncertainty k = 0.035075
        33         8         9        34     9        0.000000       -0.048295         1    ;  uncertainty k = 0.205153
        33         8         9        34     9      180.000000        7.738084         2    ;  uncertainty k = 0.422767
        33         8         9        34     9        0.000000       -0.449456         3    ;  uncertainty k = 0.264886
        33         8         9        34     9      180.000000        0.152344         4    ;  uncertainty k = 0.126728
        34         9        10        35     9        0.000000       -0.215637         1    ;  uncertainty k = 0.099802
        34         9        10        35     9      180.000000        7.610037         2    ;  uncertainty k = 0.299637
        34         9        10        35     9        0.000000       -0.440453         3    ;  uncertainty k = 0.268337
        34         9        10        35     9      180.000000        0.120149         4    ;  uncertainty k = 0.130794
        38        16        17        39     9        0.000000       -0.308549         1    ;  uncertainty k = 0.397502
        38        16        17        39     9      180.000000       12.289337         2    ;  uncertainty k = 0.583478
        38        16        17        39     9        0.000000        1.036027         3    ;  uncertainty k = 0.400452
        38        16        17        39     9      180.000000        0.764718         4    ;  uncertainty k = 0.591319

[ dihedrals ] ; impropers
;       ai        aj        ak        al funct           phase               k        pn
         2         1         3         6     4      180.000000        3.453063         2    ;  uncertainty k = 0.654129
         2         3         6         1     4      180.000000        3.453063         2    ;  uncertainty k = 0.654129
         2         6         1         3     4      180.000000        3.453063         2    ;  uncertainty k = 0.654129
         3         2         4        32     4      180.000000        3.636174         2    ;  uncertainty k = 0.120295
         3         4        32         2     4      180.000000        3.636174         2    ;  uncertainty k = 0.120295
         3        32         2         4     4      180.000000        3.636174         2    ;  uncertainty k = 0.120295
         5         4         6         7     4      180.000000        9.996097         2    ;  uncertainty k = 0.177294
         5         6         7         4     4      180.000000        9.996097         2    ;  uncertainty k = 0.177294
         5         7         4         6     4      180.000000        9.996097         2    ;  uncertainty k = 0.177294
         7         5         8        28     4      180.000000       10.790447         2    ;  uncertainty k = 0.091565
         7         8        28         5     4      180.000000       10.790447         2    ;  uncertainty k = 0.091565
         7        28         5         8     4      180.000000       10.790447         2    ;  uncertainty k = 0.091565
         8         7         9        33     4      180.000000        4.330082         2    ;  uncertainty k = 0.184269
         8         9        33         7     4      180.000000        4.330082         2    ;  uncertainty k = 0.184269
         8        33         7         9     4      180.000000        4.330082         2    ;  uncertainty k = 0.184269
         9         8        10        34     4      180.000000        4.022470         2    ;  uncertainty k = 0.161512
         9        10        34         8     4      180.000000        4.022470         2    ;  uncertainty k = 0.161512
         9        34         8        10     4      180.000000        4.022470         2    ;  uncertainty k = 0.161512
        10         9        11        35     4      180.000000        4.680655         2    ;  uncertainty k = 0.193703
        10        11        35         9     4      180.000000        4.680655         2    ;  uncertainty k = 0.193703
        10        35         9        11     4      180.000000        4.680655         2    ;  uncertainty k = 0.193703
        11        10        12        28     4      180.000000       11.862463         2    ;  uncertainty k = 0.105856
        11        12        28        10     4      180.000000       11.862463         2    ;  uncertainty k = 0.105856
        11        28        10        12     4      180.000000       11.862463         2    ;  uncertainty k = 0.105856
        13        12        14        18     4      180.000000        4.907194         2    ;  uncertainty k = 0.610506
        13        14        18        12     4      180.000000        4.907194         2    ;  uncertainty k = 0.610506
        13        18        12        14     4      180.000000        4.907194         2    ;  uncertainty k = 0.610506
        15        14        16        20     4      180.000000       17.338875         2    ;  uncertainty k = 0.107858
        15        16        20        14     4      180.000000       17.338875         2    ;  uncertainty k = 0.107858
        15        20        14        16     4      180.000000       17.338875         2    ;  uncertainty k = 0.107858
        16        15        17        38     4      180.000000        6.632123         2    ;  uncertainty k = 0.364368
        16        17        38        15     4      180.000000        6.632123         2    ;  uncertainty k = 0.364368
        16        38        15        17     4      180.000000        6.632123         2    ;  uncertainty k = 0.364368
        17        16        18        39     4      180.000000        3.715532         2    ;  uncertainty k = 0.270488
        17        18        39        16     4      180.000000        3.715532         2    ;  uncertainty k = 0.270488
        17        39        16        18     4      180.000000        3.715532         2    ;  uncertainty k = 0.270488
        18        13        17        19     4      180.000000       49.481395         2    ;  uncertainty k = 0.023227
        18        17        19        13     4      180.000000       49.481395         2    ;  uncertainty k = 0.023227
        18        19        13        17     4      180.000000       49.481395         2    ;  uncertainty k = 0.023227
        20        15        21        27     4      180.000000       12.665951         2    ;  uncertainty k = 0.077152
        20        21        27        15     4      180.000000       12.665951         2    ;  uncertainty k = 0.077152
        20        27        15        21     4      180.000000       12.665951         2    ;  uncertainty k = 0.077152
        21        20        22        40     4      180.000000        2.108081         2    ;  uncertainty k = 0.256057
        21        22        40        20     4      180.000000        2.108081         2    ;  uncertainty k = 0.256057
        21        40        20        22     4      180.000000        2.108081         2    ;  uncertainty k = 0.256057
        22        21        23        24     4      180.000000       17.764894         2    ;  uncertainty k = 0.031615
        22        23        24        21     4      180.000000       17.764894         2    ;  uncertainty k = 0.031615
        22        24        21        23     4      180.000000       17.764894         2    ;  uncertainty k = 0.031615
        24        22        25        41     4      180.000000        1.216899         2    ;  uncertainty k = 0.080605
        24        25        41        22     4      180.000000        1.216899         2    ;  uncertainty k = 0.080605
        24        41        22        25     4      180.000000        1.216899         2    ;  uncertainty k = 0.080605
        25        24        26        27     4      180.000000       17.764895         2    ;  uncertainty k = 0.031616
        25        26        27        24     4      180.000000       17.764895         2    ;  uncertainty k = 0.031616
        25        27        24        26     4      180.000000       17.764895         2    ;  uncertainty k = 0.031616
        27        20        25        42     4      180.000000        2.108084         2    ;  uncertainty k = 0.256058
        27        25        42        20     4      180.000000        2.108084         2    ;  uncertainty k = 0.256058
        27        42        20        25     4      180.000000        2.108084         2    ;  uncertainty k = 0.256058
        28         7        11        43     4      180.000000        4.763832         2    ;  uncertainty k = 0.243383
        28        11        43         7     4      180.000000        4.763832         2    ;  uncertainty k = 0.243383
        28        43         7        11     4      180.000000        4.763832         2    ;  uncertainty k = 0.243383

[ pairs ]
;       ai        aj funct
         1         4     1
         1         5     1
         1        32     1
         2         7     1
         3         7     1
         3        29     1
         3        30     1
         3        31     1
         4         8     1
         4        28     1
         5         9     1
         5        11     1
         5        32     1
         5        33     1
         5        43     1
         6         8     1
         6        28     1
         6        29     1
         6        30     1
         6        31     1
         6        32     1
         7        10     1
         7        12     1
         7        34     1
         8        11     1
         8        35     1
         8        43     1
         9        12     1
         9        28     1
        10        13     1
        10        33     1
        10        36     1
        10        37     1
        10        43     1
        11        14     1
        11        18     1
        11        34     1
        12        15     1
        12        17     1
        12        19     1
        12        35     1
        12        43     1
        13        16     1
        13        20     1
        13        28     1
        13        39     1
        14        17     1
        14        19     1
        14        21     1
        14        27     1
        14        36     1
        14        37     1
        14        38     1
        15        18     1
        15        22     1
        15        25     1
        15        39     1
        15        40     1
        15        42     1
        16        19     1
        16        21     1
        16        27     1
        17        20     1
        18        36     1
        18        37     1
        18        38     1
        19        39     1
        20        23     1
        20        24     1
        20        26     1
        20        38     1
        21        25     1
        21        41     1
        21        42     1
        22        26     1
        22        27     1
        23        25     1
        23        40     1
        23        41     1
        24        40     1
        24        42     1
        26        41     1
        26        42     1
        27        40     1
        27        41     1
        28        33     1
        28        35     1
        28        36     1
        28        37     1
        33        34     1
        34        35     1
        38        39     1
