; ITP file created by ByteFF-joint-25, 2026-02-17 09:10:46.758337

[ atomtypes ]
;name           bonded.type        at.num        mass        charge   ptype           sigma         epsilon
 c0bf                                   6      0.0000       0.00000       A     3.39779e-01     4.50907e-01    ;  uncertainty sigma = 0.000004, epsilon = 0.000713
 c1bf                                   6      0.0000       0.00000       A     3.31519e-01     4.13124e-01    ;  uncertainty sigma = 0.000005, epsilon = 0.000854
 c2bf                                   6      0.0000       0.00000       A     3.31527e-01     4.13128e-01    ;  uncertainty sigma = 0.000008, epsilon = 0.000645
 n3bf                                   7      0.0000       0.00000       A     3.38402e-01     3.93496e-01    ;  uncertainty sigma = 0.000015, epsilon = 0.000680
 c4bf                                   6      0.0000       0.00000       A     3.31464e-01     4.13194e-01    ;  uncertainty sigma = 0.000019, epsilon = 0.000791
 n5bf                                   7      0.0000       0.00000       A     3.38402e-01     3.93496e-01    ;  uncertainty sigma = 0.000015, epsilon = 0.000680
 c6bf                                   6      0.0000       0.00000       A     3.31527e-01     4.13128e-01    ;  uncertainty sigma = 0.000008, epsilon = 0.000645
 c7bf                                   6      0.0000       0.00000       A     3.31542e-01     4.13088e-01    ;  uncertainty sigma = 0.000011, epsilon = 0.000816
 c8bf                                   6      0.0000       0.00000       A     3.31518e-01     4.13405e-01    ;  uncertainty sigma = 0.000007, epsilon = 0.000656
 c9bf                                   6      0.0000       0.00000       A     3.31517e-01     4.13451e-01    ;  uncertainty sigma = 0.000002, epsilon = 0.000661
 c10bf                                  6      0.0000       0.00000       A     3.31517e-01     4.13355e-01    ;  uncertainty sigma = 0.000004, epsilon = 0.000528
 c11bf                                  6      0.0000       0.00000       A     3.31504e-01     4.13393e-01    ;  uncertainty sigma = 0.000003, epsilon = 0.000338
 c12bf                                  6      0.0000       0.00000       A     3.39766e-01     4.50446e-01    ;  uncertainty sigma = 0.000009, epsilon = 0.000438
 n13bf                                  7      0.0000       0.00000       A     3.18130e-01     6.84059e-01    ;  uncertainty sigma = 0.000031, epsilon = 0.002260
 n14bf                                  7      0.0000       0.00000       A     3.38449e-01     3.94403e-01    ;  uncertainty sigma = 0.000019, epsilon = 0.001004
 c15bf                                  6      0.0000       0.00000       A     3.31498e-01     4.13397e-01    ;  uncertainty sigma = 0.000033, epsilon = 0.001041
 c16bf                                  6      0.0000       0.00000       A     3.31517e-01     4.13271e-01    ;  uncertainty sigma = 0.000015, epsilon = 0.000991
 c17bf                                  6      0.0000       0.00000       A     3.31479e-01     4.13326e-01    ;  uncertainty sigma = 0.000018, epsilon = 0.001521
 c18bf                                  6      0.0000       0.00000       A     3.31546e-01     4.13945e-01    ;  uncertainty sigma = 0.000006, epsilon = 0.001637
 o19bf                                  8      0.0000       0.00000       A     3.04802e-01     6.12255e-01    ;  uncertainty sigma = 0.000021, epsilon = 0.001274
 c20bf                                  6      0.0000       0.00000       A     3.31515e-01     4.13249e-01    ;  uncertainty sigma = 0.000015, epsilon = 0.000665
 c21bf                                  6      0.0000       0.00000       A     3.31520e-01     4.13570e-01    ;  uncertainty sigma = 0.000012, epsilon = 0.000687
 c22bf                                  6      0.0000       0.00000       A     3.31510e-01     4.13332e-01    ;  uncertainty sigma = 0.000009, epsilon = 0.000445
 f23bf                                  9      0.0000       0.00000       A     3.03433e-01     3.47910e-01    ;  uncertainty sigma = 0.000006, epsilon = 0.000761
 c24bf                                  6      0.0000       0.00000       A     3.31522e-01     4.13593e-01    ;  uncertainty sigma = 0.000007, epsilon = 0.000737
 c25bf                                  6      0.0000       0.00000       A     3.31510e-01     4.13332e-01    ;  uncertainty sigma = 0.000009, epsilon = 0.000445
 f26bf                                  9      0.0000       0.00000       A     3.03433e-01     3.47910e-01    ;  uncertainty sigma = 0.000006, epsilon = 0.000762
 c27bf                                  6      0.0000       0.00000       A     3.31520e-01     4.13570e-01    ;  uncertainty sigma = 0.000012, epsilon = 0.000687
 c28bf                                  6      0.0000       0.00000       A     3.31508e-01     4.13193e-01    ;  uncertainty sigma = 0.000012, epsilon = 0.000741
 h29bf                                  1      0.0000       0.00000       A     2.60049e-01     8.66960e-02    ;  uncertainty sigma = 0.000002, epsilon = 0.000351
 h30bf                                  1      0.0000       0.00000       A     2.60049e-01     8.66960e-02    ;  uncertainty sigma = 0.000002, epsilon = 0.000351
 h31bf                                  1      0.0000       0.00000       A     2.60049e-01     8.66960e-02    ;  uncertainty sigma = 0.000002, epsilon = 0.000351
 h32bf                                  1      0.0000       0.00000       A     2.53667e-01     6.71174e-02    ;  uncertainty sigma = 0.000028, epsilon = 0.000545
 h33bf                                  1      0.0000       0.00000       A     2.53667e-01     6.71174e-02    ;  uncertainty sigma = 0.000028, epsilon = 0.000545
 h34bf                                  1      0.0000       0.00000       A     2.62563e-01     6.70453e-02    ;  uncertainty sigma = 0.000011, epsilon = 0.000576
 h35bf                                  1      0.0000       0.00000       A     2.62563e-01     6.70149e-02    ;  uncertainty sigma = 0.000010, epsilon = 0.000410
 h36bf                                  1      0.0000       0.00000       A     2.62563e-01     6.70957e-02    ;  uncertainty sigma = 0.000006, epsilon = 0.000591
 h37bf                                  1      0.0000       0.00000       A     2.42236e-01     8.69097e-02    ;  uncertainty sigma = 0.000033, epsilon = 0.000580
 h38bf                                  1      0.0000       0.00000       A     2.42236e-01     8.69097e-02    ;  uncertainty sigma = 0.000033, epsilon = 0.000580
 h39bf                                  1      0.0000       0.00000       A     2.62549e-01     6.67404e-02    ;  uncertainty sigma = 0.000015, epsilon = 0.000444
 h40bf                                  1      0.0000       0.00000       A     2.62519e-01     6.70320e-02    ;  uncertainty sigma = 0.000024, epsilon = 0.000745
 h41bf                                  1      0.0000       0.00000       A     2.62551e-01     6.70389e-02    ;  uncertainty sigma = 0.000014, epsilon = 0.000667
 h42bf                                  1      0.0000       0.00000       A     2.62567e-01     6.73686e-02    ;  uncertainty sigma = 0.000010, epsilon = 0.000382
 h43bf                                  1      0.0000       0.00000       A     2.62551e-01     6.70389e-02    ;  uncertainty sigma = 0.000014, epsilon = 0.000667
 h44bf                                  1      0.0000       0.00000       A     2.62558e-01     6.71381e-02    ;  uncertainty sigma = 0.000013, epsilon = 0.000769

[ moleculetype ]
;name             nrexcl
 MOL                   3

[ atoms ]
;       nr            type      resi   res      atom      cgnr      charge          mass ; qtot
         1            c0bf         1   UNL        c0         1    -0.03725       12.0110 ; qtot   -0.037
         2            c1bf         1   UNL        c1         2    -0.31346       12.0110 ; qtot   -0.351
         3            c2bf         1   UNL        c2         3     0.43489       12.0110 ; qtot    0.084
         4            n3bf         1   UNL        n3         4    -0.69805       14.0070 ; qtot   -0.614
         5            c4bf         1   UNL        c4         5     0.70419       12.0110 ; qtot    0.090
         6            n5bf         1   UNL        n5         6    -0.69805       14.0070 ; qtot   -0.608
         7            c6bf         1   UNL        c6         7     0.43489       12.0110 ; qtot   -0.173
         8            c7bf         1   UNL        c7         8    -0.15782       12.0110 ; qtot   -0.331
         9            c8bf         1   UNL        c8         9    -0.08221       12.0110 ; qtot   -0.413
        10            c9bf         1   UNL        c9        10    -0.14526       12.0110 ; qtot   -0.558
        11           c10bf         1   UNL       c10        11    -0.09108       12.0110 ; qtot   -0.649
        12           c11bf         1   UNL       c11        12    -0.12699       12.0110 ; qtot   -0.776
        13           c12bf         1   UNL       c12        13     0.15983       12.0110 ; qtot   -0.616
        14           n13bf         1   UNL       n13        14    -0.20396       14.0070 ; qtot   -0.820
        15           n14bf         1   UNL       n14        15    -0.40752       14.0070 ; qtot   -1.228
        16           c15bf         1   UNL       c15        16     0.39145       12.0110 ; qtot   -0.836
        17           c16bf         1   UNL       c16        17    -0.16644       12.0110 ; qtot   -1.003
        18           c17bf         1   UNL       c17        18    -0.21412       12.0110 ; qtot   -1.217
        19           c18bf         1   UNL       c18        19     0.67439       12.0110 ; qtot   -0.543
        20           o19bf         1   UNL       o19        20    -0.61615       15.9990 ; qtot   -1.159
        21           c20bf         1   UNL       c20        21    -0.06971       12.0110 ; qtot   -1.228
        22           c21bf         1   UNL       c21        22    -0.15743       12.0110 ; qtot   -1.386
        23           c22bf         1   UNL       c22        23     0.15364       12.0110 ; qtot   -1.232
        24           f23bf         1   UNL       f23        24    -0.13656       18.9980 ; qtot   -1.369
        25           c24bf         1   UNL       c24        25    -0.19537       12.0110 ; qtot   -1.564
        26           c25bf         1   UNL       c25        26     0.15364       12.0110 ; qtot   -1.411
        27           f26bf         1   UNL       f26        27    -0.13656       18.9980 ; qtot   -1.547
        28           c27bf         1   UNL       c27        28    -0.15743       12.0110 ; qtot   -1.704
        29           c28bf         1   UNL       c28        29    -0.06423       12.0110 ; qtot   -1.769
        30           h29bf         1   UNL       h29        30     0.04987        1.0080 ; qtot   -1.719
        31           h30bf         1   UNL       h30        31     0.04987        1.0080 ; qtot   -1.669
        32           h31bf         1   UNL       h31        32     0.04987        1.0080 ; qtot   -1.619
        33           h32bf         1   UNL       h32        33     0.02421        1.0080 ; qtot   -1.595
        34           h33bf         1   UNL       h33        34     0.02421        1.0080 ; qtot   -1.571
        35           h34bf         1   UNL       h34        35     0.15226        1.0080 ; qtot   -1.418
        36           h35bf         1   UNL       h35        36     0.13595        1.0080 ; qtot   -1.282
        37           h36bf         1   UNL       h36        37     0.13982        1.0080 ; qtot   -1.143
        38           h37bf         1   UNL       h37        38     0.08064        1.0080 ; qtot   -1.062
        39           h38bf         1   UNL       h38        39     0.08064        1.0080 ; qtot   -0.981
        40           h39bf         1   UNL       h39        40     0.15224        1.0080 ; qtot   -0.829
        41           h40bf         1   UNL       h40        41     0.16763        1.0080 ; qtot   -0.662
        42           h41bf         1   UNL       h41        42     0.16641        1.0080 ; qtot   -0.495
        43           h42bf         1   UNL       h42        43     0.17223        1.0080 ; qtot   -0.323
        44           h43bf         1   UNL       h43        44     0.16641        1.0080 ; qtot   -0.156
        45           h44bf         1   UNL       h44        45     0.15647        1.0080 ; qtot    0.000

[ bonds ]
;       ai        aj funct               r               k
         1         2     1        0.150656   254952.259619    ;  uncertainty r = 0.000044, k = 8.840181
         1        30     1        0.109491   308066.459277    ;  uncertainty r = 0.000021, k = 0.736499
         1        31     1        0.109491   308066.459277    ;  uncertainty r = 0.000021, k = 0.736499
         1        32     1        0.109491   308066.459277    ;  uncertainty r = 0.000021, k = 0.736499
         2         3     1        0.140091   394824.217236    ;  uncertainty r = 0.000030, k = 4.781008
         2         7     1        0.140091   394824.217236    ;  uncertainty r = 0.000030, k = 4.781008
         3         4     1        0.133639   417295.162500    ;  uncertainty r = 0.000049, k = 6.697614
         3        33     1        0.109105   332250.995654    ;  uncertainty r = 0.000029, k = 2.362048
         4         5     1        0.135010   360318.449512    ;  uncertainty r = 0.000079, k = 7.935717
         5         6     1        0.135010   360318.449512    ;  uncertainty r = 0.000079, k = 7.935717
         5         8     1        0.146889   260115.812061    ;  uncertainty r = 0.000135, k = 3.889054
         6         7     1        0.133639   417295.162500    ;  uncertainty r = 0.000049, k = 6.697614
         7        34     1        0.109105   332250.995654    ;  uncertainty r = 0.000029, k = 2.362048
         8         9     1        0.139722   342720.214551    ;  uncertainty r = 0.000075, k = 2.913346
         8        29     1        0.139409   336931.871191    ;  uncertainty r = 0.000073, k = 5.943861
         9        10     1        0.139280   367550.839795    ;  uncertainty r = 0.000042, k = 4.029714
         9        35     1        0.108616   332854.999365    ;  uncertainty r = 0.000026, k = 0.969491
        10        11     1        0.139534   371200.960986    ;  uncertainty r = 0.000016, k = 1.371949
        10        36     1        0.108831   333139.355078    ;  uncertainty r = 0.000017, k = 1.251997
        11        12     1        0.139703   354765.532764    ;  uncertainty r = 0.000069, k = 2.816818
        11        37     1        0.108845   333137.720703    ;  uncertainty r = 0.000012, k = 0.688221
        12        13     1        0.151483   229275.104736    ;  uncertainty r = 0.000030, k = 5.987403
        12        29     1        0.139276   349283.175049    ;  uncertainty r = 0.000051, k = 4.888133
        13        14     1        0.146958   226285.092285    ;  uncertainty r = 0.000082, k = 7.991895
        13        38     1        0.109288   307627.655127    ;  uncertainty r = 0.000019, k = 0.761517
        13        39     1        0.109288   307627.655127    ;  uncertainty r = 0.000019, k = 0.761517
        14        15     1        0.133719   291839.975684    ;  uncertainty r = 0.000103, k = 13.619026
        14        19     1        0.139210   287082.463281    ;  uncertainty r = 0.000112, k = 8.370610
        15        16     1        0.130260   486820.964258    ;  uncertainty r = 0.000104, k = 8.324314
        16        17     1        0.143148   246844.814746    ;  uncertainty r = 0.000136, k = 10.011203
        16        21     1        0.147088   262485.477051    ;  uncertainty r = 0.000091, k = 9.142570
        17        18     1        0.134977   481508.785840    ;  uncertainty r = 0.000047, k = 10.409223
        17        40     1        0.108783   336902.861035    ;  uncertainty r = 0.000050, k = 1.619691
        18        19     1        0.145432   272577.129785    ;  uncertainty r = 0.000089, k = 4.402721
        18        41     1        0.108708   341990.721484    ;  uncertainty r = 0.000030, k = 2.410372
        19        20     1        0.124008   735950.379883    ;  uncertainty r = 0.000059, k = 6.569265
        21        22     1        0.139863   351792.144971    ;  uncertainty r = 0.000071, k = 3.727356
        21        28     1        0.139863   351792.144971    ;  uncertainty r = 0.000071, k = 3.727335
        22        23     1        0.138801   355605.524902    ;  uncertainty r = 0.000040, k = 2.002096
        22        42     1        0.108712   335835.333252    ;  uncertainty r = 0.000032, k = 0.851157
        23        24     1        0.135275   339582.852979    ;  uncertainty r = 0.000035, k = 2.432568
        23        25     1        0.139032   365693.244922    ;  uncertainty r = 0.000026, k = 3.713255
        25        26     1        0.139032   365693.193848    ;  uncertainty r = 0.000026, k = 3.713232
        25        43     1        0.108762   339358.024268    ;  uncertainty r = 0.000015, k = 0.997650
        26        27     1        0.135275   339582.852979    ;  uncertainty r = 0.000035, k = 2.432590
        26        28     1        0.138801   355605.524902    ;  uncertainty r = 0.000040, k = 2.002129
        28        44     1        0.108712   335835.307715    ;  uncertainty r = 0.000032, k = 0.851166
        29        45     1        0.108682   331298.716846    ;  uncertainty r = 0.000030, k = 1.060830

[ angles ]
;       ai        aj        ak funct           theta             cth
         1         2         3     1      122.543472      397.160850    ;  uncertainty theta = 0.005492, k = 0.061146
         1         2         7     1      122.543472      397.160850    ;  uncertainty theta = 0.005492, k = 0.061146
         2         1        30     1      109.646851      399.463531    ;  uncertainty theta = 0.000535, k = 0.057000
         2         1        31     1      109.646851      399.463531    ;  uncertainty theta = 0.000535, k = 0.057000
         2         1        32     1      109.646851      399.463531    ;  uncertainty theta = 0.000535, k = 0.057000
         2         3         4     1      123.030380      714.124515    ;  uncertainty theta = 0.002148, k = 0.117165
         2         3        33     1      120.329124      267.260246    ;  uncertainty theta = 0.003742, k = 0.098279
         2         7         6     1      123.030380      714.124515    ;  uncertainty theta = 0.002148, k = 0.117165
         2         7        34     1      120.329124      267.260246    ;  uncertainty theta = 0.003742, k = 0.098279
         3         2         7     1      114.975174      377.026595    ;  uncertainty theta = 0.005646, k = 0.375687
         3         4         5     1      115.734177      382.587141    ;  uncertainty theta = 0.005910, k = 0.265821
         4         3        33     1      116.377502      333.529524    ;  uncertainty theta = 0.003897, k = 0.082482
         4         5         6     1      127.374985      801.545318    ;  uncertainty theta = 0.002046, k = 0.098451
         4         5         8     1      117.626442      442.634270    ;  uncertainty theta = 0.004147, k = 0.068815
         5         6         7     1      115.734177      382.587141    ;  uncertainty theta = 0.005910, k = 0.265821
         5         8         9     1      116.936142      401.186520    ;  uncertainty theta = 0.005909, k = 0.090297
         5         8        29     1      116.382935      397.463720    ;  uncertainty theta = 0.005868, k = 0.060512
         6         5         8     1      117.626442      442.634270    ;  uncertainty theta = 0.004147, k = 0.068815
         6         7        34     1      116.377502      333.529524    ;  uncertainty theta = 0.003897, k = 0.082482
         8         9        10     1      120.232346      524.525332    ;  uncertainty theta = 0.000782, k = 0.072775
         8         9        35     1      117.565109      261.796789    ;  uncertainty theta = 0.001353, k = 0.076979
         8        29        12     1      121.979675      528.275711    ;  uncertainty theta = 0.001822, k = 0.081800
         8        29        45     1      117.407730      263.631583    ;  uncertainty theta = 0.002520, k = 0.101620
         9         8        29     1      121.895348      436.115923    ;  uncertainty theta = 0.002603, k = 0.071743
         9        10        11     1      120.290504      506.484577    ;  uncertainty theta = 0.001272, k = 0.077873
         9        10        36     1      120.239822      284.659030    ;  uncertainty theta = 0.001522, k = 0.023723
        10         9        35     1      120.926468      288.832017    ;  uncertainty theta = 0.001396, k = 0.073928
        10        11        12     1      119.885025      524.221759    ;  uncertainty theta = 0.002065, k = 0.043778
        10        11        37     1      120.372025      293.531132    ;  uncertainty theta = 0.002545, k = 0.019543
        11        10        36     1      120.362267      284.047991    ;  uncertainty theta = 0.001711, k = 0.048927
        11        12        13     1      120.426491      424.552145    ;  uncertainty theta = 0.001183, k = 0.075232
        11        12        29     1      120.774338      455.617432    ;  uncertainty theta = 0.001449, k = 0.156970
        12        11        37     1      119.030472      270.213357    ;  uncertainty theta = 0.002268, k = 0.024349
        12        13        14     1      111.862549      642.493625    ;  uncertainty theta = 0.001364, k = 0.091264
        12        13        38     1      108.739967      417.311545    ;  uncertainty theta = 0.001880, k = 0.053917
        12        13        39     1      108.739967      417.311545    ;  uncertainty theta = 0.001880, k = 0.053917
        12        29        45     1      119.316833      276.390593    ;  uncertainty theta = 0.001305, k = 0.080105
        13        12        29     1      119.739639      404.422104    ;  uncertainty theta = 0.001445, k = 0.125283
        13        14        15     1      110.577988      500.240115    ;  uncertainty theta = 0.005833, k = 0.098935
        13        14        19     1      115.546555      389.353517    ;  uncertainty theta = 0.005911, k = 0.248842
        14        13        38     1      105.434036      444.191906    ;  uncertainty theta = 0.001612, k = 0.053315
        14        13        39     1      105.434036      444.191906    ;  uncertainty theta = 0.001612, k = 0.053315
        14        15        16     1      119.599083      506.750546    ;  uncertainty theta = 0.009383, k = 0.233462
        14        19        18     1      111.385658      354.543852    ;  uncertainty theta = 0.004876, k = 0.498398
        14        19        20     1      122.027390      653.228724    ;  uncertainty theta = 0.001797, k = 0.051888
        15        14        19     1      124.130821      552.011816    ;  uncertainty theta = 0.006513, k = 0.232378
        15        16        17     1      126.192650      534.970839    ;  uncertainty theta = 0.003715, k = 0.203915
        15        16        21     1      116.228676      442.181529    ;  uncertainty theta = 0.006577, k = 0.257504
        16        17        18     1      119.137741      483.732417    ;  uncertainty theta = 0.004425, k = 0.316234
        16        17        40     1      118.496231      262.252068    ;  uncertainty theta = 0.005672, k = 0.058663
        16        21        22     1      118.724350      391.877126    ;  uncertainty theta = 0.002727, k = 0.206133
        16        21        28     1      118.724350      391.877094    ;  uncertainty theta = 0.002727, k = 0.206133
        17        16        21     1      120.406021      386.651563    ;  uncertainty theta = 0.002392, k = 0.102654
        17        18        19     1      119.665359      523.118907    ;  uncertainty theta = 0.005349, k = 0.100266
        17        18        41     1      123.138992      265.275997    ;  uncertainty theta = 0.005028, k = 0.152927
        18        17        40     1      122.361343      282.774455    ;  uncertainty theta = 0.005531, k = 0.167097
        18        19        20     1      127.351967      536.919129    ;  uncertainty theta = 0.003562, k = 0.161864
        19        18        41     1      117.583885      254.681432    ;  uncertainty theta = 0.006644, k = 0.184684
        21        22        23     1      118.720169      498.330993    ;  uncertainty theta = 0.002325, k = 0.126937
        21        22        42     1      120.100601      263.055497    ;  uncertainty theta = 0.002410, k = 0.043472
        21        28        26     1      118.720169      498.330993    ;  uncertainty theta = 0.002325, k = 0.126937
        21        28        44     1      120.100601      263.055497    ;  uncertainty theta = 0.002410, k = 0.043473
        22        21        28     1      122.382584      431.454570    ;  uncertainty theta = 0.000960, k = 0.097327
        22        23        24     1      118.785866      507.579768    ;  uncertainty theta = 0.002109, k = 0.057206
        22        23        25     1      123.859070      366.023038    ;  uncertainty theta = 0.005134, k = 0.176822
        23        22        42     1      120.887062      288.478041    ;  uncertainty theta = 0.000717, k = 0.013022
        23        25        26     1      115.525314      473.107958    ;  uncertainty theta = 0.002651, k = 0.198626
        23        25        43     1      122.239304      279.302525    ;  uncertainty theta = 0.002821, k = 0.053520
        24        23        25     1      118.429832      503.503534    ;  uncertainty theta = 0.002161, k = 0.048154
        25        26        27     1      118.429825      503.503502    ;  uncertainty theta = 0.002161, k = 0.048153
        25        26        28     1      123.859070      366.023069    ;  uncertainty theta = 0.005134, k = 0.176822
        26        25        43     1      122.239304      279.302525    ;  uncertainty theta = 0.002821, k = 0.053520
        26        28        44     1      120.887062      288.478041    ;  uncertainty theta = 0.000717, k = 0.013022
        27        26        28     1      118.785866      507.579768    ;  uncertainty theta = 0.002109, k = 0.057206
        30         1        31     1      106.659256      314.926570    ;  uncertainty theta = 0.001147, k = 0.039428
        30         1        32     1      106.659256      314.926570    ;  uncertainty theta = 0.001147, k = 0.039428
        31         1        32     1      106.659256      314.926570    ;  uncertainty theta = 0.001147, k = 0.039428
        38        13        39     1      106.067017      312.923918    ;  uncertainty theta = 0.003423, k = 0.065436

[ dihedrals ] ; propers for gromacs 4.5 or higher, use funct 9
;       ai        aj        ak        al funct           phase               k        pn
         1         2         3         4     9        0.000000        0.327876         1    ;  uncertainty k = 0.539974
         1         2         3         4     9      180.000000        9.883881         2    ;  uncertainty k = 0.300202
         1         2         3         4     9        0.000000        1.269344         3    ;  uncertainty k = 0.480850
         1         2         3         4     9      180.000000        1.668691         4    ;  uncertainty k = 0.112007
         1         2         3        33     9        0.000000       -0.409711         1    ;  uncertainty k = 0.540371
         1         2         3        33     9      180.000000        6.751681         2    ;  uncertainty k = 0.208859
         1         2         3        33     9        0.000000        0.394490         3    ;  uncertainty k = 0.349175
         1         2         3        33     9      180.000000        0.910763         4    ;  uncertainty k = 0.239603
         1         2         7         6     9        0.000000        0.327876         1    ;  uncertainty k = 0.539974
         1         2         7         6     9      180.000000        9.883881         2    ;  uncertainty k = 0.300202
         1         2         7         6     9        0.000000        1.269344         3    ;  uncertainty k = 0.480850
         1         2         7         6     9      180.000000        1.668691         4    ;  uncertainty k = 0.112007
         1         2         7        34     9        0.000000       -0.409711         1    ;  uncertainty k = 0.540371
         1         2         7        34     9      180.000000        6.751681         2    ;  uncertainty k = 0.208859
         1         2         7        34     9        0.000000        0.394490         3    ;  uncertainty k = 0.349175
         1         2         7        34     9      180.000000        0.910763         4    ;  uncertainty k = 0.239603
         2         3         4         5     9        0.000000       -0.208425         1    ;  uncertainty k = 0.645027
         2         3         4         5     9      180.000000       15.702013         2    ;  uncertainty k = 0.271310
         2         3         4         5     9        0.000000       -0.266990         3    ;  uncertainty k = 0.780133
         2         3         4         5     9      180.000000        1.474046         4    ;  uncertainty k = 0.353970
         2         7         6         5     9        0.000000       -0.208425         1    ;  uncertainty k = 0.645027
         2         7         6         5     9      180.000000       15.702013         2    ;  uncertainty k = 0.271310
         2         7         6         5     9        0.000000       -0.266990         3    ;  uncertainty k = 0.780133
         2         7         6         5     9      180.000000        1.474046         4    ;  uncertainty k = 0.353970
         3         2         1        30     9        0.000000       -0.010724         1    ;  uncertainty k = 0.253774
         3         2         1        30     9      180.000000        1.066612         2    ;  uncertainty k = 0.147555
         3         2         1        30     9        0.000000        0.228741         3    ;  uncertainty k = 0.035953
         3         2         1        30     9      180.000000        0.208343         4    ;  uncertainty k = 0.023248
         3         2         1        31     9        0.000000       -0.010724         1    ;  uncertainty k = 0.253774
         3         2         1        31     9      180.000000        1.066612         2    ;  uncertainty k = 0.147555
         3         2         1        31     9        0.000000        0.228741         3    ;  uncertainty k = 0.035953
         3         2         1        31     9      180.000000        0.208343         4    ;  uncertainty k = 0.023248
         3         2         1        32     9        0.000000       -0.010724         1    ;  uncertainty k = 0.253774
         3         2         1        32     9      180.000000        1.066612         2    ;  uncertainty k = 0.147555
         3         2         1        32     9        0.000000        0.228741         3    ;  uncertainty k = 0.035953
         3         2         1        32     9      180.000000        0.208343         4    ;  uncertainty k = 0.023248
         3         2         7         6     9        0.000000       -0.347243         1    ;  uncertainty k = 0.459889
         3         2         7         6     9      180.000000       11.759430         2    ;  uncertainty k = 0.359585
         3         2         7         6     9        0.000000       -0.902869         3    ;  uncertainty k = 0.646312
         3         2         7         6     9      180.000000        1.047980         4    ;  uncertainty k = 0.216377
         3         2         7        34     9        0.000000       -0.410817         1    ;  uncertainty k = 0.334348
         3         2         7        34     9      180.000000        5.555479         2    ;  uncertainty k = 0.689440
         3         2         7        34     9        0.000000        0.874642         3    ;  uncertainty k = 0.224215
         3         2         7        34     9      180.000000        1.207571         4    ;  uncertainty k = 0.152362
         3         4         5         6     9        0.000000       -0.356278         1    ;  uncertainty k = 0.680175
         3         4         5         6     9      180.000000       12.144294         2    ;  uncertainty k = 0.265165
         3         4         5         6     9        0.000000        1.108669         3    ;  uncertainty k = 0.523233
         3         4         5         6     9      180.000000        0.956752         4    ;  uncertainty k = 0.086588
         3         4         5         8     9        0.000000        0.067430         1    ;  uncertainty k = 0.913117
         3         4         5         8     9      180.000000       11.375235         2    ;  uncertainty k = 0.378424
         3         4         5         8     9        0.000000        2.037836         3    ;  uncertainty k = 0.307454
         3         4         5         8     9      180.000000        1.056334         4    ;  uncertainty k = 0.387292
         4         3         2         7     9        0.000000       -0.347243         1    ;  uncertainty k = 0.459889
         4         3         2         7     9      180.000000       11.759430         2    ;  uncertainty k = 0.359585
         4         3         2         7     9        0.000000       -0.902869         3    ;  uncertainty k = 0.646312
         4         3         2         7     9      180.000000        1.047980         4    ;  uncertainty k = 0.216377
         4         5         6         7     9        0.000000       -0.356278         1    ;  uncertainty k = 0.680175
         4         5         6         7     9      180.000000       12.144294         2    ;  uncertainty k = 0.265165
         4         5         6         7     9        0.000000        1.108669         3    ;  uncertainty k = 0.523233
         4         5         6         7     9      180.000000        0.956752         4    ;  uncertainty k = 0.086588
         4         5         8         9     9        0.000000        0.493606         1    ;  uncertainty k = 0.568099
         4         5         8         9     9      180.000000        4.709218         2    ;  uncertainty k = 0.201342
         4         5         8         9     9        0.000000        0.507008         3    ;  uncertainty k = 0.130440
         4         5         8         9     9      180.000000        0.036388         4    ;  uncertainty k = 0.041347
         4         5         8        29     9        0.000000        0.480467         1    ;  uncertainty k = 0.549549
         4         5         8        29     9      180.000000        4.686899         2    ;  uncertainty k = 0.185788
         4         5         8        29     9        0.000000        0.498716         3    ;  uncertainty k = 0.120616
         4         5         8        29     9      180.000000        0.032016         4    ;  uncertainty k = 0.041172
         5         4         3        33     9        0.000000        0.339604         1    ;  uncertainty k = 0.738229
         5         4         3        33     9      180.000000       15.663365         2    ;  uncertainty k = 0.525647
         5         4         3        33     9        0.000000        1.789753         3    ;  uncertainty k = 0.793172
         5         4         3        33     9      180.000000        1.505006         4    ;  uncertainty k = 0.367897
         5         6         7        34     9        0.000000        0.339604         1    ;  uncertainty k = 0.738229
         5         6         7        34     9      180.000000       15.663365         2    ;  uncertainty k = 0.525647
         5         6         7        34     9        0.000000        1.789753         3    ;  uncertainty k = 0.793172
         5         6         7        34     9      180.000000        1.505006         4    ;  uncertainty k = 0.367897
         5         8         9        10     9        0.000000        0.350073         1    ;  uncertainty k = 0.449436
         5         8         9        10     9      180.000000        9.088615         2    ;  uncertainty k = 0.598286
         5         8         9        10     9        0.000000        1.173663         3    ;  uncertainty k = 0.388350
         5         8         9        10     9      180.000000        1.732405         4    ;  uncertainty k = 0.152591
         5         8         9        35     9        0.000000       -0.226641         1    ;  uncertainty k = 0.392771
         5         8         9        35     9      180.000000        7.667232         2    ;  uncertainty k = 0.398256
         5         8         9        35     9        0.000000        0.668502         3    ;  uncertainty k = 0.180679
         5         8         9        35     9      180.000000        1.195185         4    ;  uncertainty k = 0.106302
         5         8        29        12     9        0.000000        0.300151         1    ;  uncertainty k = 0.346139
         5         8        29        12     9      180.000000        8.849967         2    ;  uncertainty k = 0.486297
         5         8        29        12     9        0.000000        1.183284         3    ;  uncertainty k = 0.277757
         5         8        29        12     9      180.000000        1.676778         4    ;  uncertainty k = 0.107601
         5         8        29        45     9        0.000000       -0.121360         1    ;  uncertainty k = 0.248293
         5         8        29        45     9      180.000000        7.669439         2    ;  uncertainty k = 0.361095
         5         8        29        45     9        0.000000        0.710959         3    ;  uncertainty k = 0.175434
         5         8        29        45     9      180.000000        1.264254         4    ;  uncertainty k = 0.118667
         6         5         8         9     9        0.000000        0.493606         1    ;  uncertainty k = 0.568099
         6         5         8         9     9      180.000000        4.709218         2    ;  uncertainty k = 0.201342
         6         5         8         9     9        0.000000        0.507008         3    ;  uncertainty k = 0.130440
         6         5         8         9     9      180.000000        0.036388         4    ;  uncertainty k = 0.041347
         6         5         8        29     9        0.000000        0.480467         1    ;  uncertainty k = 0.549549
         6         5         8        29     9      180.000000        4.686899         2    ;  uncertainty k = 0.185788
         6         5         8        29     9        0.000000        0.498716         3    ;  uncertainty k = 0.120616
         6         5         8        29     9      180.000000        0.032016         4    ;  uncertainty k = 0.041172
         7         2         1        30     9        0.000000       -0.010724         1    ;  uncertainty k = 0.253774
         7         2         1        30     9      180.000000        1.066612         2    ;  uncertainty k = 0.147555
         7         2         1        30     9        0.000000        0.228741         3    ;  uncertainty k = 0.035953
         7         2         1        30     9      180.000000        0.208343         4    ;  uncertainty k = 0.023248
         7         2         1        31     9        0.000000       -0.010724         1    ;  uncertainty k = 0.253774
         7         2         1        31     9      180.000000        1.066612         2    ;  uncertainty k = 0.147555
         7         2         1        31     9        0.000000        0.228741         3    ;  uncertainty k = 0.035953
         7         2         1        31     9      180.000000        0.208343         4    ;  uncertainty k = 0.023248
         7         2         1        32     9        0.000000       -0.010724         1    ;  uncertainty k = 0.253774
         7         2         1        32     9      180.000000        1.066612         2    ;  uncertainty k = 0.147555
         7         2         1        32     9        0.000000        0.228741         3    ;  uncertainty k = 0.035953
         7         2         1        32     9      180.000000        0.208343         4    ;  uncertainty k = 0.023248
         7         2         3        33     9        0.000000       -0.410817         1    ;  uncertainty k = 0.334348
         7         2         3        33     9      180.000000        5.555479         2    ;  uncertainty k = 0.689440
         7         2         3        33     9        0.000000        0.874642         3    ;  uncertainty k = 0.224215
         7         2         3        33     9      180.000000        1.207571         4    ;  uncertainty k = 0.152362
         7         6         5         8     9        0.000000        0.067430         1    ;  uncertainty k = 0.913117
         7         6         5         8     9      180.000000       11.375235         2    ;  uncertainty k = 0.378424
         7         6         5         8     9        0.000000        2.037836         3    ;  uncertainty k = 0.307454
         7         6         5         8     9      180.000000        1.056334         4    ;  uncertainty k = 0.387292
         8         9        10        11     9        0.000000       -0.088013         1    ;  uncertainty k = 0.116954
         8         9        10        11     9      180.000000       13.336527         2    ;  uncertainty k = 0.272806
         8         9        10        11     9        0.000000       -0.705599         3    ;  uncertainty k = 0.378680
         8         9        10        11     9      180.000000        0.796969         4    ;  uncertainty k = 0.231917
         8         9        10        36     9        0.000000       -0.041389         1    ;  uncertainty k = 0.161787
         8         9        10        36     9      180.000000        7.886651         2    ;  uncertainty k = 0.569640
         8         9        10        36     9        0.000000        1.380915         3    ;  uncertainty k = 0.236624
         8         9        10        36     9      180.000000        1.750717         4    ;  uncertainty k = 0.174637
         8        29        12        11     9        0.000000       -0.291846         1    ;  uncertainty k = 0.244096
         8        29        12        11     9      180.000000       10.704492         2    ;  uncertainty k = 0.719215
         8        29        12        11     9        0.000000       -0.107596         3    ;  uncertainty k = 0.114190
         8        29        12        11     9      180.000000        1.012333         4    ;  uncertainty k = 0.477813
         8        29        12        13     9        0.000000        0.118765         1    ;  uncertainty k = 0.282849
         8        29        12        13     9      180.000000        9.675914         2    ;  uncertainty k = 0.673834
         8        29        12        13     9        0.000000        1.284044         3    ;  uncertainty k = 0.243148
         8        29        12        13     9      180.000000        1.626378         4    ;  uncertainty k = 0.321831
         9         8        29        12     9        0.000000        0.048057         1    ;  uncertainty k = 0.220108
         9         8        29        12     9      180.000000       10.093092         2    ;  uncertainty k = 0.340528
         9         8        29        12     9        0.000000       -0.353064         3    ;  uncertainty k = 0.243860
         9         8        29        12     9      180.000000        1.031206         4    ;  uncertainty k = 0.212000
         9         8        29        45     9        0.000000        0.354885         1    ;  uncertainty k = 0.112927
         9         8        29        45     9      180.000000        7.246114         2    ;  uncertainty k = 0.602096
         9         8        29        45     9        0.000000        1.301880         3    ;  uncertainty k = 0.265984
         9         8        29        45     9      180.000000        1.658007         4    ;  uncertainty k = 0.260696
         9        10        11        12     9        0.000000       -0.198149         1    ;  uncertainty k = 0.198431
         9        10        11        12     9      180.000000       13.546945         2    ;  uncertainty k = 0.336772
         9        10        11        12     9        0.000000       -0.836209         3    ;  uncertainty k = 0.420103
         9        10        11        12     9      180.000000        0.757475         4    ;  uncertainty k = 0.245679
         9        10        11        37     9        0.000000        0.056861         1    ;  uncertainty k = 0.128735
         9        10        11        37     9      180.000000        7.661115         2    ;  uncertainty k = 0.430435
         9        10        11        37     9        0.000000        1.432914         3    ;  uncertainty k = 0.237270
         9        10        11        37     9      180.000000        1.776467         4    ;  uncertainty k = 0.116766
        10         9         8        29     9        0.000000        0.024908         1    ;  uncertainty k = 0.222943
        10         9         8        29     9      180.000000       10.946210         2    ;  uncertainty k = 0.223707
        10         9         8        29     9        0.000000       -0.601144         3    ;  uncertainty k = 0.171401
        10         9         8        29     9      180.000000        0.902860         4    ;  uncertainty k = 0.223031
        10        11        12        13     9        0.000000        0.224490         1    ;  uncertainty k = 0.225258
        10        11        12        13     9      180.000000        9.771506         2    ;  uncertainty k = 0.581586
        10        11        12        13     9        0.000000        1.297805         3    ;  uncertainty k = 0.327208
        10        11        12        13     9      180.000000        1.799937         4    ;  uncertainty k = 0.234903
        10        11        12        29     9        0.000000       -0.215688         1    ;  uncertainty k = 0.137644
        10        11        12        29     9      180.000000       11.477600         2    ;  uncertainty k = 0.433454
        10        11        12        29     9        0.000000       -0.531144         3    ;  uncertainty k = 0.269026
        10        11        12        29     9      180.000000        0.839994         4    ;  uncertainty k = 0.394476
        11        10         9        35     9        0.000000        0.032234         1    ;  uncertainty k = 0.139810
        11        10         9        35     9      180.000000        7.347840         2    ;  uncertainty k = 0.261637
        11        10         9        35     9        0.000000        1.375633         3    ;  uncertainty k = 0.194678
        11        10         9        35     9      180.000000        1.836254         4    ;  uncertainty k = 0.206650
        11        12        13        14     9        0.000000        1.872177         1    ;  uncertainty k = 0.800661
        11        12        13        14     9      180.000000        2.343492         2    ;  uncertainty k = 0.316385
        11        12        13        14     9        0.000000        0.624301         3    ;  uncertainty k = 0.152598
        11        12        13        14     9      180.000000        0.095646         4    ;  uncertainty k = 0.049875
        11        12        13        38     9        0.000000       -0.527351         1    ;  uncertainty k = 0.230407
        11        12        13        38     9      180.000000        2.024930         2    ;  uncertainty k = 0.120208
        11        12        13        38     9        0.000000        0.504962         3    ;  uncertainty k = 0.061192
        11        12        13        38     9      180.000000        0.145045         4    ;  uncertainty k = 0.047061
        11        12        13        39     9        0.000000       -0.527351         1    ;  uncertainty k = 0.230407
        11        12        13        39     9      180.000000        2.024930         2    ;  uncertainty k = 0.120208
        11        12        13        39     9        0.000000        0.504962         3    ;  uncertainty k = 0.061192
        11        12        13        39     9      180.000000        0.145045         4    ;  uncertainty k = 0.047061
        11        12        29        45     9        0.000000        0.202167         1    ;  uncertainty k = 0.173865
        11        12        29        45     9      180.000000        7.402416         2    ;  uncertainty k = 0.589117
        11        12        29        45     9        0.000000        1.310845         3    ;  uncertainty k = 0.225603
        11        12        29        45     9      180.000000        1.667004         4    ;  uncertainty k = 0.181393
        12        11        10        36     9        0.000000        0.034904         1    ;  uncertainty k = 0.206612
        12        11        10        36     9      180.000000        7.538890         2    ;  uncertainty k = 0.336444
        12        11        10        36     9        0.000000        1.380116         3    ;  uncertainty k = 0.190288
        12        11        10        36     9      180.000000        1.793403         4    ;  uncertainty k = 0.112527
        12        13        14        15     9        0.000000        0.436874         1    ;  uncertainty k = 0.691879
        12        13        14        15     9      180.000000        0.068826         2    ;  uncertainty k = 0.314386
        12        13        14        15     9        0.000000        0.773356         3    ;  uncertainty k = 0.370061
        12        13        14        15     9      180.000000        0.186066         4    ;  uncertainty k = 0.072048
        12        13        14        19     9        0.000000        1.507109         1    ;  uncertainty k = 0.389924
        12        13        14        19     9      180.000000       -0.022659         2    ;  uncertainty k = 0.137066
        12        13        14        19     9        0.000000        0.224963         3    ;  uncertainty k = 0.239203
        12        13        14        19     9      180.000000        0.248492         4    ;  uncertainty k = 0.123687
        13        12        11        37     9        0.000000        0.024907         1    ;  uncertainty k = 0.237816
        13        12        11        37     9      180.000000        7.591234         2    ;  uncertainty k = 0.209683
        13        12        11        37     9        0.000000        0.605780         3    ;  uncertainty k = 0.275316
        13        12        11        37     9      180.000000        1.047429         4    ;  uncertainty k = 0.187217
        13        12        29        45     9        0.000000       -0.028493         1    ;  uncertainty k = 0.275424
        13        12        29        45     9      180.000000        7.704184         2    ;  uncertainty k = 0.344091
        13        12        29        45     9        0.000000        0.555185         3    ;  uncertainty k = 0.312928
        13        12        29        45     9      180.000000        1.094336         4    ;  uncertainty k = 0.153018
        13        14        15        16     9        0.000000       -0.893902         1    ;  uncertainty k = 4.128323
        13        14        15        16     9      180.000000       12.847703         2    ;  uncertainty k = 0.829875
        13        14        15        16     9        0.000000        1.813134         3    ;  uncertainty k = 0.972057
        13        14        15        16     9      180.000000        0.130634         4    ;  uncertainty k = 0.444120
        13        14        19        18     9        0.000000        0.634210         1    ;  uncertainty k = 1.109144
        13        14        19        18     9      180.000000        7.729793         2    ;  uncertainty k = 0.355043
        13        14        19        18     9        0.000000        1.756335         3    ;  uncertainty k = 0.398207
        13        14        19        18     9      180.000000       -0.228898         4    ;  uncertainty k = 0.310569
        13        14        19        20     9        0.000000        0.936357         1    ;  uncertainty k = 1.270753
        13        14        19        20     9      180.000000       11.759401         2    ;  uncertainty k = 0.389288
        13        14        19        20     9        0.000000        0.652543         3    ;  uncertainty k = 0.132949
        13        14        19        20     9      180.000000       -0.183661         4    ;  uncertainty k = 0.344177
        14        13        12        29     9        0.000000        1.978359         1    ;  uncertainty k = 0.908936
        14        13        12        29     9      180.000000        2.263896         2    ;  uncertainty k = 0.392653
        14        13        12        29     9        0.000000        0.571494         3    ;  uncertainty k = 0.238358
        14        13        12        29     9      180.000000        0.100637         4    ;  uncertainty k = 0.060188
        14        15        16        17     9        0.000000        0.188393         1    ;  uncertainty k = 0.780216
        14        15        16        17     9      180.000000       24.687753         2    ;  uncertainty k = 0.176803
        14        15        16        17     9        0.000000        1.985802         3    ;  uncertainty k = 0.563904
        14        15        16        17     9      180.000000        0.690133         4    ;  uncertainty k = 0.279420
        14        15        16        21     9        0.000000       -0.043172         1    ;  uncertainty k = 0.548350
        14        15        16        21     9      180.000000       25.753064         2    ;  uncertainty k = 0.233339
        14        15        16        21     9        0.000000        2.942378         3    ;  uncertainty k = 0.125640
        14        15        16        21     9      180.000000        0.686554         4    ;  uncertainty k = 0.574272
        14        19        18        17     9        0.000000        0.419278         1    ;  uncertainty k = 2.274473
        14        19        18        17     9      180.000000        1.605236         2    ;  uncertainty k = 0.697545
        14        19        18        17     9        0.000000       -0.163994         3    ;  uncertainty k = 0.200172
        14        19        18        17     9      180.000000        0.325528         4    ;  uncertainty k = 0.077908
        14        19        18        41     9        0.000000       -1.120179         1    ;  uncertainty k = 2.456073
        14        19        18        41     9      180.000000        2.364370         2    ;  uncertainty k = 0.329357
        14        19        18        41     9        0.000000        0.459246         3    ;  uncertainty k = 0.206811
        14        19        18        41     9      180.000000        0.273913         4    ;  uncertainty k = 0.151693
        15        14        13        38     9        0.000000        0.383410         1    ;  uncertainty k = 0.534068
        15        14        13        38     9      180.000000        1.169990         2    ;  uncertainty k = 0.403949
        15        14        13        38     9        0.000000        0.582239         3    ;  uncertainty k = 0.072428
        15        14        13        38     9      180.000000        0.242244         4    ;  uncertainty k = 0.129086
        15        14        13        39     9        0.000000        0.383410         1    ;  uncertainty k = 0.534068
        15        14        13        39     9      180.000000        1.169990         2    ;  uncertainty k = 0.403949
        15        14        13        39     9        0.000000        0.582239         3    ;  uncertainty k = 0.072428
        15        14        13        39     9      180.000000        0.242244         4    ;  uncertainty k = 0.129086
        15        14        19        18     9        0.000000        2.898929         1    ;  uncertainty k = 2.397583
        15        14        19        18     9      180.000000        2.029916         2    ;  uncertainty k = 0.771883
        15        14        19        18     9        0.000000        1.223010         3    ;  uncertainty k = 0.519452
        15        14        19        18     9      180.000000        0.577304         4    ;  uncertainty k = 0.261783
        15        14        19        20     9        0.000000        2.605133         1    ;  uncertainty k = 1.172602
        15        14        19        20     9      180.000000       10.822449         2    ;  uncertainty k = 0.452983
        15        14        19        20     9        0.000000        1.231348         3    ;  uncertainty k = 0.502016
        15        14        19        20     9      180.000000       -0.281985         4    ;  uncertainty k = 0.368205
        15        16        17        18     9        0.000000        0.352014         1    ;  uncertainty k = 1.410780
        15        16        17        18     9      180.000000        4.437856         2    ;  uncertainty k = 0.753046
        15        16        17        18     9        0.000000        0.213422         3    ;  uncertainty k = 0.453700
        15        16        17        18     9      180.000000        0.599744         4    ;  uncertainty k = 0.185202
        15        16        17        40     9        0.000000       -0.968928         1    ;  uncertainty k = 0.799755
        15        16        17        40     9      180.000000        4.602265         2    ;  uncertainty k = 0.838958
        15        16        17        40     9        0.000000        0.753727         3    ;  uncertainty k = 0.438991
        15        16        17        40     9      180.000000        0.503348         4    ;  uncertainty k = 0.169976
        15        16        21        22     9        0.000000        0.577113         1    ;  uncertainty k = 0.839214
        15        16        21        22     9      180.000000        4.374001         2    ;  uncertainty k = 0.259899
        15        16        21        22     9        0.000000        0.310715         3    ;  uncertainty k = 0.200156
        15        16        21        22     9      180.000000       -0.034774         4    ;  uncertainty k = 0.102004
        15        16        21        28     9        0.000000        0.577112         1    ;  uncertainty k = 0.839214
        15        16        21        28     9      180.000000        4.374001         2    ;  uncertainty k = 0.259898
        15        16        21        28     9        0.000000        0.310715         3    ;  uncertainty k = 0.200157
        15        16        21        28     9      180.000000       -0.034774         4    ;  uncertainty k = 0.102004
        16        15        14        19     9        0.000000        3.891956         1    ;  uncertainty k = 2.526573
        16        15        14        19     9      180.000000        4.735669         2    ;  uncertainty k = 1.364246
        16        15        14        19     9        0.000000        1.841464         3    ;  uncertainty k = 0.687599
        16        15        14        19     9      180.000000        0.376448         4    ;  uncertainty k = 0.594894
        16        17        18        19     9        0.000000       -0.247895         1    ;  uncertainty k = 0.726732
        16        17        18        19     9      180.000000       17.791948         2    ;  uncertainty k = 0.335371
        16        17        18        19     9        0.000000        0.675076         3    ;  uncertainty k = 0.419223
        16        17        18        19     9      180.000000        0.996301         4    ;  uncertainty k = 0.368800
        16        17        18        41     9        0.000000       -0.353358         1    ;  uncertainty k = 0.789416
        16        17        18        41     9      180.000000       16.620934         2    ;  uncertainty k = 0.655545
        16        17        18        41     9        0.000000        1.944682         3    ;  uncertainty k = 0.309791
        16        17        18        41     9      180.000000        1.162896         4    ;  uncertainty k = 0.587297
        16        21        22        23     9        0.000000        0.184078         1    ;  uncertainty k = 0.251452
        16        21        22        23     9      180.000000        9.064982         2    ;  uncertainty k = 0.510143
        16        21        22        23     9        0.000000        1.393257         3    ;  uncertainty k = 0.168521
        16        21        22        23     9      180.000000        1.772060         4    ;  uncertainty k = 0.162457
        16        21        22        42     9        0.000000       -0.174783         1    ;  uncertainty k = 0.349607
        16        21        22        42     9      180.000000        7.187869         2    ;  uncertainty k = 0.358632
        16        21        22        42     9        0.000000        0.677750         3    ;  uncertainty k = 0.291506
        16        21        22        42     9      180.000000        1.081331         4    ;  uncertainty k = 0.227152
        16        21        28        26     9        0.000000        0.184079         1    ;  uncertainty k = 0.251450
        16        21        28        26     9      180.000000        9.064984         2    ;  uncertainty k = 0.510143
        16        21        28        26     9        0.000000        1.393256         3    ;  uncertainty k = 0.168522
        16        21        28        26     9      180.000000        1.772060         4    ;  uncertainty k = 0.162456
        16        21        28        44     9        0.000000       -0.174783         1    ;  uncertainty k = 0.349608
        16        21        28        44     9      180.000000        7.187870         2    ;  uncertainty k = 0.358633
        16        21        28        44     9        0.000000        0.677750         3    ;  uncertainty k = 0.291506
        16        21        28        44     9      180.000000        1.081331         4    ;  uncertainty k = 0.227152
        17        16        21        22     9        0.000000        0.063923         1    ;  uncertainty k = 0.802333
        17        16        21        22     9      180.000000        3.869396         2    ;  uncertainty k = 0.175768
        17        16        21        22     9        0.000000        0.641555         3    ;  uncertainty k = 0.157661
        17        16        21        22     9      180.000000       -0.162970         4    ;  uncertainty k = 0.081803
        17        16        21        28     9        0.000000        0.063923         1    ;  uncertainty k = 0.802332
        17        16        21        28     9      180.000000        3.869397         2    ;  uncertainty k = 0.175767
        17        16        21        28     9        0.000000        0.641555         3    ;  uncertainty k = 0.157661
        17        16        21        28     9      180.000000       -0.162970         4    ;  uncertainty k = 0.081803
        17        18        19        20     9        0.000000       -2.001816         1    ;  uncertainty k = 1.317032
        17        18        19        20     9      180.000000        3.389786         2    ;  uncertainty k = 0.746169
        17        18        19        20     9        0.000000       -0.174173         3    ;  uncertainty k = 0.227865
        17        18        19        20     9      180.000000        0.016096         4    ;  uncertainty k = 0.112368
        18        17        16        21     9        0.000000        0.540598         1    ;  uncertainty k = 0.803544
        18        17        16        21     9      180.000000        4.601494         2    ;  uncertainty k = 0.981891
        18        17        16        21     9        0.000000        0.716168         3    ;  uncertainty k = 0.328634
        18        17        16        21     9      180.000000        0.575741         4    ;  uncertainty k = 0.279114
        19        14        13        38     9        0.000000       -0.473768         1    ;  uncertainty k = 0.528512
        19        14        13        38     9      180.000000        1.255511         2    ;  uncertainty k = 0.273074
        19        14        13        38     9        0.000000        0.779238         3    ;  uncertainty k = 0.054623
        19        14        13        38     9      180.000000        0.411931         4    ;  uncertainty k = 0.034525
        19        14        13        39     9        0.000000       -0.473768         1    ;  uncertainty k = 0.528512
        19        14        13        39     9      180.000000        1.255511         2    ;  uncertainty k = 0.273074
        19        14        13        39     9        0.000000        0.779238         3    ;  uncertainty k = 0.054623
        19        14        13        39     9      180.000000        0.411931         4    ;  uncertainty k = 0.034525
        19        18        17        40     9        0.000000       -0.328809         1    ;  uncertainty k = 0.661921
        19        18        17        40     9      180.000000       15.838400         2    ;  uncertainty k = 0.436273
        19        18        17        40     9        0.000000        1.792267         3    ;  uncertainty k = 0.273244
        19        18        17        40     9      180.000000        1.039596         4    ;  uncertainty k = 0.351736
        20        19        18        41     9        0.000000       -3.368927         1    ;  uncertainty k = 1.838218
        20        19        18        41     9      180.000000        6.946407         2    ;  uncertainty k = 0.848337
        20        19        18        41     9        0.000000        0.461531         3    ;  uncertainty k = 0.415057
        20        19        18        41     9      180.000000       -0.155191         4    ;  uncertainty k = 0.180479
        21        16        17        40     9        0.000000       -0.583861         1    ;  uncertainty k = 1.092916
        21        16        17        40     9      180.000000        5.200620         2    ;  uncertainty k = 0.384920
        21        16        17        40     9        0.000000        1.054483         3    ;  uncertainty k = 0.197088
        21        16        17        40     9      180.000000        0.361604         4    ;  uncertainty k = 0.155457
        21        22        23        24     9        0.000000       -0.049881         1    ;  uncertainty k = 0.257803
        21        22        23        24     9      180.000000       12.651864         2    ;  uncertainty k = 0.408915
        21        22        23        24     9        0.000000        1.531328         3    ;  uncertainty k = 0.260602
        21        22        23        24     9      180.000000        1.472262         4    ;  uncertainty k = 0.165252
        21        22        23        25     9        0.000000        0.057717         1    ;  uncertainty k = 0.164909
        21        22        23        25     9      180.000000        8.885300         2    ;  uncertainty k = 0.653772
        21        22        23        25     9        0.000000       -0.076192         3    ;  uncertainty k = 0.320382
        21        22        23        25     9      180.000000        1.240042         4    ;  uncertainty k = 0.346858
        21        28        26        25     9        0.000000        0.057718         1    ;  uncertainty k = 0.164909
        21        28        26        25     9      180.000000        8.885300         2    ;  uncertainty k = 0.653771
        21        28        26        25     9        0.000000       -0.076192         3    ;  uncertainty k = 0.320383
        21        28        26        25     9      180.000000        1.240042         4    ;  uncertainty k = 0.346858
        21        28        26        27     9        0.000000       -0.049879         1    ;  uncertainty k = 0.257803
        21        28        26        27     9      180.000000       12.651865         2    ;  uncertainty k = 0.408916
        21        28        26        27     9        0.000000        1.531328         3    ;  uncertainty k = 0.260602
        21        28        26        27     9      180.000000        1.472261         4    ;  uncertainty k = 0.165252
        22        21        28        26     9        0.000000        0.022121         1    ;  uncertainty k = 0.243825
        22        21        28        26     9      180.000000       11.046753         2    ;  uncertainty k = 0.290032
        22        21        28        26     9        0.000000       -0.498760         3    ;  uncertainty k = 0.387970
        22        21        28        26     9      180.000000        1.024180         4    ;  uncertainty k = 0.289071
        22        21        28        44     9        0.000000        0.218088         1    ;  uncertainty k = 0.243952
        22        21        28        44     9      180.000000        6.917737         2    ;  uncertainty k = 0.583903
        22        21        28        44     9        0.000000        1.463818         3    ;  uncertainty k = 0.217536
        22        21        28        44     9      180.000000        1.686540         4    ;  uncertainty k = 0.256320
        22        23        25        26     9        0.000000        0.079700         1    ;  uncertainty k = 0.154156
        22        23        25        26     9      180.000000        8.889417         2    ;  uncertainty k = 0.512494
        22        23        25        26     9        0.000000       -0.106306         3    ;  uncertainty k = 0.476972
        22        23        25        26     9      180.000000        1.234736         4    ;  uncertainty k = 0.285242
        22        23        25        43     9        0.000000        0.130307         1    ;  uncertainty k = 0.144653
        22        23        25        43     9      180.000000        5.532844         2    ;  uncertainty k = 0.680369
        22        23        25        43     9        0.000000        1.265320         3    ;  uncertainty k = 0.294957
        22        23        25        43     9      180.000000        1.481410         4    ;  uncertainty k = 0.077611
        23        22        21        28     9        0.000000        0.022121         1    ;  uncertainty k = 0.243825
        23        22        21        28     9      180.000000       11.046753         2    ;  uncertainty k = 0.290033
        23        22        21        28     9        0.000000       -0.498760         3    ;  uncertainty k = 0.387970
        23        22        21        28     9      180.000000        1.024180         4    ;  uncertainty k = 0.289072
        23        25        26        27     9        0.000000       -0.032347         1    ;  uncertainty k = 0.289699
        23        25        26        27     9      180.000000       12.548672         2    ;  uncertainty k = 0.646212
        23        25        26        27     9        0.000000        1.557435         3    ;  uncertainty k = 0.311241
        23        25        26        27     9      180.000000        1.512893         4    ;  uncertainty k = 0.296058
        23        25        26        28     9        0.000000        0.079700         1    ;  uncertainty k = 0.154156
        23        25        26        28     9      180.000000        8.889415         2    ;  uncertainty k = 0.512494
        23        25        26        28     9        0.000000       -0.106306         3    ;  uncertainty k = 0.476971
        23        25        26        28     9      180.000000        1.234736         4    ;  uncertainty k = 0.285241
        24        23        22        42     9        0.000000       -0.415350         1    ;  uncertainty k = 0.228614
        24        23        22        42     9      180.000000        9.086426         2    ;  uncertainty k = 0.377298
        24        23        22        42     9        0.000000        0.802704         3    ;  uncertainty k = 0.232488
        24        23        22        42     9      180.000000        1.043251         4    ;  uncertainty k = 0.211577
        24        23        25        26     9        0.000000       -0.032345         1    ;  uncertainty k = 0.289699
        24        23        25        26     9      180.000000       12.548672         2    ;  uncertainty k = 0.646212
        24        23        25        26     9        0.000000        1.557435         3    ;  uncertainty k = 0.311241
        24        23        25        26     9      180.000000        1.512892         4    ;  uncertainty k = 0.296059
        24        23        25        43     9        0.000000       -0.234235         1    ;  uncertainty k = 0.255322
        24        23        25        43     9      180.000000        8.539482         2    ;  uncertainty k = 0.302304
        24        23        25        43     9        0.000000        0.791090         3    ;  uncertainty k = 0.302726
        24        23        25        43     9      180.000000        0.996026         4    ;  uncertainty k = 0.177952
        25        23        22        42     9        0.000000       -0.021691         1    ;  uncertainty k = 0.235351
        25        23        22        42     9      180.000000        5.842807         2    ;  uncertainty k = 0.659900
        25        23        22        42     9        0.000000        1.305046         3    ;  uncertainty k = 0.309757
        25        23        22        42     9      180.000000        1.641078         4    ;  uncertainty k = 0.167200
        25        26        28        44     9        0.000000       -0.021690         1    ;  uncertainty k = 0.235350
        25        26        28        44     9      180.000000        5.842806         2    ;  uncertainty k = 0.659901
        25        26        28        44     9        0.000000        1.305046         3    ;  uncertainty k = 0.309758
        25        26        28        44     9      180.000000        1.641078         4    ;  uncertainty k = 0.167201
        27        26        25        43     9        0.000000       -0.234235         1    ;  uncertainty k = 0.255324
        27        26        25        43     9      180.000000        8.539485         2    ;  uncertainty k = 0.302303
        27        26        25        43     9        0.000000        0.791090         3    ;  uncertainty k = 0.302726
        27        26        25        43     9      180.000000        0.996026         4    ;  uncertainty k = 0.177952
        27        26        28        44     9        0.000000       -0.415350         1    ;  uncertainty k = 0.228614
        27        26        28        44     9      180.000000        9.086428         2    ;  uncertainty k = 0.377299
        27        26        28        44     9        0.000000        0.802705         3    ;  uncertainty k = 0.232487
        27        26        28        44     9      180.000000        1.043252         4    ;  uncertainty k = 0.211577
        28        21        22        42     9        0.000000        0.218088         1    ;  uncertainty k = 0.243952
        28        21        22        42     9      180.000000        6.917737         2    ;  uncertainty k = 0.583902
        28        21        22        42     9        0.000000        1.463818         3    ;  uncertainty k = 0.217536
        28        21        22        42     9      180.000000        1.686540         4    ;  uncertainty k = 0.256320
        28        26        25        43     9        0.000000        0.130307         1    ;  uncertainty k = 0.144654
        28        26        25        43     9      180.000000        5.532843         2    ;  uncertainty k = 0.680369
        28        26        25        43     9        0.000000        1.265320         3    ;  uncertainty k = 0.294958
        28        26        25        43     9      180.000000        1.481410         4    ;  uncertainty k = 0.077611
        29         8         9        35     9        0.000000        0.242999         1    ;  uncertainty k = 0.116871
        29         8         9        35     9      180.000000        7.003599         2    ;  uncertainty k = 0.458506
        29         8         9        35     9        0.000000        1.292743         3    ;  uncertainty k = 0.255453
        29         8         9        35     9      180.000000        1.631587         4    ;  uncertainty k = 0.270966
        29        12        11        37     9        0.000000        0.259376         1    ;  uncertainty k = 0.177207
        29        12        11        37     9      180.000000        7.185689         2    ;  uncertainty k = 0.664902
        29        12        11        37     9        0.000000        1.407610         3    ;  uncertainty k = 0.323470
        29        12        11        37     9      180.000000        1.653409         4    ;  uncertainty k = 0.179617
        29        12        13        38     9        0.000000       -0.467501         1    ;  uncertainty k = 0.342458
        29        12        13        38     9      180.000000        1.866854         2    ;  uncertainty k = 0.132943
        29        12        13        38     9        0.000000        0.468388         3    ;  uncertainty k = 0.097662
        29        12        13        38     9      180.000000        0.149866         4    ;  uncertainty k = 0.032014
        29        12        13        39     9        0.000000       -0.467501         1    ;  uncertainty k = 0.342458
        29        12        13        39     9      180.000000        1.866854         2    ;  uncertainty k = 0.132943
        29        12        13        39     9        0.000000        0.468388         3    ;  uncertainty k = 0.097662
        29        12        13        39     9      180.000000        0.149866         4    ;  uncertainty k = 0.032014
        35         9        10        36     9        0.000000       -0.114476         1    ;  uncertainty k = 0.217567
        35         9        10        36     9      180.000000        7.749076         2    ;  uncertainty k = 0.386441
        35         9        10        36     9        0.000000       -0.417170         3    ;  uncertainty k = 0.284412
        35         9        10        36     9      180.000000        0.165522         4    ;  uncertainty k = 0.153515
        36        10        11        37     9        0.000000       -0.204013         1    ;  uncertainty k = 0.108871
        36        10        11        37     9      180.000000        7.603273         2    ;  uncertainty k = 0.277408
        36        10        11        37     9        0.000000       -0.440239         3    ;  uncertainty k = 0.271537
        36        10        11        37     9      180.000000        0.118647         4    ;  uncertainty k = 0.133308
        40        17        18        41     9        0.000000       -0.308549         1    ;  uncertainty k = 0.397502
        40        17        18        41     9      180.000000       12.289337         2    ;  uncertainty k = 0.583478
        40        17        18        41     9        0.000000        1.036027         3    ;  uncertainty k = 0.400452
        40        17        18        41     9      180.000000        0.764718         4    ;  uncertainty k = 0.591319

[ dihedrals ] ; impropers
;       ai        aj        ak        al funct           phase               k        pn
         2         1         3         7     4      180.000000       10.113896         2    ;  uncertainty k = 0.149963
         2         3         7         1     4      180.000000       10.113896         2    ;  uncertainty k = 0.149963
         2         7         1         3     4      180.000000       10.113896         2    ;  uncertainty k = 0.149963
         3         2         4        33     4      180.000000       15.485152         2    ;  uncertainty k = 0.092887
         3         4        33         2     4      180.000000       15.485152         2    ;  uncertainty k = 0.092887
         3        33         2         4     4      180.000000       15.485152         2    ;  uncertainty k = 0.092887
         5         4         6         8     4      180.000000       34.914767         2    ;  uncertainty k = 0.052390
         5         6         8         4     4      180.000000       34.914767         2    ;  uncertainty k = 0.052390
         5         8         4         6     4      180.000000       34.914767         2    ;  uncertainty k = 0.052390
         7         2         6        34     4      180.000000       15.485152         2    ;  uncertainty k = 0.092887
         7         6        34         2     4      180.000000       15.485152         2    ;  uncertainty k = 0.092887
         7        34         2         6     4      180.000000       15.485152         2    ;  uncertainty k = 0.092887
         8         5         9        29     4      180.000000        9.573473         2    ;  uncertainty k = 0.130704
         8         9        29         5     4      180.000000        9.573473         2    ;  uncertainty k = 0.130704
         8        29         5         9     4      180.000000        9.573473         2    ;  uncertainty k = 0.130704
         9         8        10        35     4      180.000000        4.639722         2    ;  uncertainty k = 0.104777
         9        10        35         8     4      180.000000        4.639722         2    ;  uncertainty k = 0.104777
         9        35         8        10     4      180.000000        4.639722         2    ;  uncertainty k = 0.104777
        10         9        11        36     4      180.000000        3.987254         2    ;  uncertainty k = 0.165460
        10        11        36         9     4      180.000000        3.987254         2    ;  uncertainty k = 0.165460
        10        36         9        11     4      180.000000        3.987254         2    ;  uncertainty k = 0.165460
        11        10        12        37     4      180.000000        4.730527         2    ;  uncertainty k = 0.200294
        11        12        37        10     4      180.000000        4.730527         2    ;  uncertainty k = 0.200294
        11        37        10        12     4      180.000000        4.730527         2    ;  uncertainty k = 0.200294
        12        11        13        29     4      180.000000       11.595324         2    ;  uncertainty k = 0.103518
        12        13        29        11     4      180.000000       11.595324         2    ;  uncertainty k = 0.103518
        12        29        11        13     4      180.000000       11.595324         2    ;  uncertainty k = 0.103518
        14        13        15        19     4      180.000000        4.907151         2    ;  uncertainty k = 0.611201
        14        15        19        13     4      180.000000        4.907151         2    ;  uncertainty k = 0.611201
        14        19        13        15     4      180.000000        4.907151         2    ;  uncertainty k = 0.611201
        16        15        17        21     4      180.000000       17.338875         2    ;  uncertainty k = 0.107858
        16        17        21        15     4      180.000000       17.338875         2    ;  uncertainty k = 0.107858
        16        21        15        17     4      180.000000       17.338875         2    ;  uncertainty k = 0.107858
        17        16        18        40     4      180.000000        6.632123         2    ;  uncertainty k = 0.364368
        17        18        40        16     4      180.000000        6.632123         2    ;  uncertainty k = 0.364368
        17        40        16        18     4      180.000000        6.632123         2    ;  uncertainty k = 0.364368
        18        17        19        41     4      180.000000        3.715532         2    ;  uncertainty k = 0.270488
        18        19        41        17     4      180.000000        3.715532         2    ;  uncertainty k = 0.270488
        18        41        17        19     4      180.000000        3.715532         2    ;  uncertainty k = 0.270488
        19        14        18        20     4      180.000000       49.481395         2    ;  uncertainty k = 0.023227
        19        18        20        14     4      180.000000       49.481395         2    ;  uncertainty k = 0.023227
        19        20        14        18     4      180.000000       49.481395         2    ;  uncertainty k = 0.023227
        21        16        22        28     4      180.000000       12.665951         2    ;  uncertainty k = 0.077152
        21        22        28        16     4      180.000000       12.665951         2    ;  uncertainty k = 0.077152
        21        28        16        22     4      180.000000       12.665951         2    ;  uncertainty k = 0.077152
        22        21        23        42     4      180.000000        2.108081         2    ;  uncertainty k = 0.256057
        22        23        42        21     4      180.000000        2.108081         2    ;  uncertainty k = 0.256057
        22        42        21        23     4      180.000000        2.108081         2    ;  uncertainty k = 0.256057
        23        22        24        25     4      180.000000       17.764894         2    ;  uncertainty k = 0.031615
        23        24        25        22     4      180.000000       17.764894         2    ;  uncertainty k = 0.031615
        23        25        22        24     4      180.000000       17.764894         2    ;  uncertainty k = 0.031615
        25        23        26        43     4      180.000000        1.216899         2    ;  uncertainty k = 0.080605
        25        26        43        23     4      180.000000        1.216899         2    ;  uncertainty k = 0.080605
        25        43        23        26     4      180.000000        1.216899         2    ;  uncertainty k = 0.080605
        26        25        27        28     4      180.000000       17.764895         2    ;  uncertainty k = 0.031616
        26        27        28        25     4      180.000000       17.764895         2    ;  uncertainty k = 0.031616
        26        28        25        27     4      180.000000       17.764895         2    ;  uncertainty k = 0.031616
        28        21        26        44     4      180.000000        2.108084         2    ;  uncertainty k = 0.256058
        28        26        44        21     4      180.000000        2.108084         2    ;  uncertainty k = 0.256058
        28        44        21        26     4      180.000000        2.108084         2    ;  uncertainty k = 0.256058
        29         8        12        45     4      180.000000        5.120075         2    ;  uncertainty k = 0.187807
        29        12        45         8     4      180.000000        5.120075         2    ;  uncertainty k = 0.187807
        29        45         8        12     4      180.000000        5.120075         2    ;  uncertainty k = 0.187807

[ pairs ]
;       ai        aj funct
         1         4     1
         1         6     1
         1        33     1
         1        34     1
         2         5     1
         3         6     1
         3         8     1
         3        30     1
         3        31     1
         3        32     1
         3        34     1
         4         7     1
         4         9     1
         4        29     1
         5        10     1
         5        12     1
         5        33     1
         5        34     1
         5        35     1
         5        45     1
         6         9     1
         6        29     1
         7         8     1
         7        30     1
         7        31     1
         7        32     1
         7        33     1
         8        11     1
         8        13     1
         8        36     1
         9        12     1
         9        37     1
         9        45     1
        10        13     1
        10        29     1
        11        14     1
        11        35     1
        11        38     1
        11        39     1
        11        45     1
        12        15     1
        12        19     1
        12        36     1
        13        16     1
        13        18     1
        13        20     1
        13        37     1
        13        45     1
        14        17     1
        14        21     1
        14        29     1
        14        41     1
        15        18     1
        15        20     1
        15        22     1
        15        28     1
        15        38     1
        15        39     1
        15        40     1
        16        19     1
        16        23     1
        16        26     1
        16        41     1
        16        42     1
        16        44     1
        17        20     1
        17        22     1
        17        28     1
        18        21     1
        19        38     1
        19        39     1
        19        40     1
        20        41     1
        21        24     1
        21        25     1
        21        27     1
        21        40     1
        22        26     1
        22        43     1
        22        44     1
        23        27     1
        23        28     1
        24        26     1
        24        42     1
        24        43     1
        25        42     1
        25        44     1
        27        43     1
        27        44     1
        28        42     1
        28        43     1
        29        35     1
        29        37     1
        29        38     1
        29        39     1
        35        36     1
        36        37     1
        40        41     1
