; ITP file created by ByteFF-joint-25, 2026-02-17 09:10:44.138438

[ atomtypes ]
;name           bonded.type        at.num        mass        charge   ptype           sigma         epsilon
 o0bf                                   8      0.0000       0.00000       A     3.04802e-01     6.12255e-01    ;  uncertainty sigma = 0.000021, epsilon = 0.001273
 c1bf                                   6      0.0000       0.00000       A     3.31546e-01     4.13945e-01    ;  uncertainty sigma = 0.000006, epsilon = 0.001637
 c2bf                                   6      0.0000       0.00000       A     3.31479e-01     4.13326e-01    ;  uncertainty sigma = 0.000018, epsilon = 0.001521
 c3bf                                   6      0.0000       0.00000       A     3.31517e-01     4.13271e-01    ;  uncertainty sigma = 0.000015, epsilon = 0.000991
 c4bf                                   6      0.0000       0.00000       A     3.31503e-01     4.13517e-01    ;  uncertainty sigma = 0.000031, epsilon = 0.001019
 n5bf                                   7      0.0000       0.00000       A     3.38449e-01     3.94403e-01    ;  uncertainty sigma = 0.000019, epsilon = 0.001004
 n6bf                                   7      0.0000       0.00000       A     3.18130e-01     6.84059e-01    ;  uncertainty sigma = 0.000031, epsilon = 0.002260
 c7bf                                   6      0.0000       0.00000       A     3.39766e-01     4.50446e-01    ;  uncertainty sigma = 0.000009, epsilon = 0.000438
 c8bf                                   6      0.0000       0.00000       A     3.31504e-01     4.13393e-01    ;  uncertainty sigma = 0.000003, epsilon = 0.000338
 c9bf                                   6      0.0000       0.00000       A     3.31517e-01     4.13355e-01    ;  uncertainty sigma = 0.000004, epsilon = 0.000528
 c10bf                                  6      0.0000       0.00000       A     3.31517e-01     4.13450e-01    ;  uncertainty sigma = 0.000002, epsilon = 0.000660
 c11bf                                  6      0.0000       0.00000       A     3.31518e-01     4.13405e-01    ;  uncertainty sigma = 0.000007, epsilon = 0.000656
 c12bf                                  6      0.0000       0.00000       A     3.31542e-01     4.13088e-01    ;  uncertainty sigma = 0.000011, epsilon = 0.000816
 c13bf                                  6      0.0000       0.00000       A     3.31508e-01     4.13193e-01    ;  uncertainty sigma = 0.000012, epsilon = 0.000741
 c14bf                                  6      0.0000       0.00000       A     3.31469e-01     4.13138e-01    ;  uncertainty sigma = 0.000018, epsilon = 0.000709
 n15bf                                  7      0.0000       0.00000       A     3.38408e-01     3.93550e-01    ;  uncertainty sigma = 0.000017, epsilon = 0.000712
 c16bf                                  6      0.0000       0.00000       A     3.31543e-01     4.13243e-01    ;  uncertainty sigma = 0.000006, epsilon = 0.000626
 c17bf                                  6      0.0000       0.00000       A     3.31546e-01     4.12225e-01    ;  uncertainty sigma = 0.000010, epsilon = 0.002473
 o18bf                                  8      0.0000       0.00000       A     3.15627e-01     3.04277e-01    ;  uncertainty sigma = 0.000017, epsilon = 0.001571
 c19bf                                  6      0.0000       0.00000       A     3.39776e-01     4.50260e-01    ;  uncertainty sigma = 0.000007, epsilon = 0.000284
 c20bf                                  6      0.0000       0.00000       A     3.39784e-01     4.50504e-01    ;  uncertainty sigma = 0.000009, epsilon = 0.001069
 n21bf                                  7      0.0000       0.00000       A     3.36476e-01     3.58811e-01    ;  uncertainty sigma = 0.000027, epsilon = 0.000894
 c22bf                                  6      0.0000       0.00000       A     3.39770e-01     4.51105e-01    ;  uncertainty sigma = 0.000008, epsilon = 0.000620
 c23bf                                  6      0.0000       0.00000       A     3.39772e-01     4.50755e-01    ;  uncertainty sigma = 0.000008, epsilon = 0.000838
 o24bf                                  8      0.0000       0.00000       A     3.15603e-01     3.03473e-01    ;  uncertainty sigma = 0.000014, epsilon = 0.001064
 c25bf                                  6      0.0000       0.00000       A     3.39772e-01     4.50755e-01    ;  uncertainty sigma = 0.000008, epsilon = 0.000838
 c26bf                                  6      0.0000       0.00000       A     3.39770e-01     4.51105e-01    ;  uncertainty sigma = 0.000008, epsilon = 0.000620
 c27bf                                  6      0.0000       0.00000       A     3.31543e-01     4.13243e-01    ;  uncertainty sigma = 0.000006, epsilon = 0.000626
 n28bf                                  7      0.0000       0.00000       A     3.38408e-01     3.93550e-01    ;  uncertainty sigma = 0.000017, epsilon = 0.000712
 c29bf                                  6      0.0000       0.00000       A     3.31523e-01     4.13373e-01    ;  uncertainty sigma = 0.000012, epsilon = 0.000634
 c30bf                                  6      0.0000       0.00000       A     3.31516e-01     4.13348e-01    ;  uncertainty sigma = 0.000006, epsilon = 0.000675
 c31bf                                  6      0.0000       0.00000       A     3.31514e-01     4.13346e-01    ;  uncertainty sigma = 0.000005, epsilon = 0.000579
 c32bf                                  6      0.0000       0.00000       A     3.31511e-01     4.13260e-01    ;  uncertainty sigma = 0.000005, epsilon = 0.000565
 c33bf                                  6      0.0000       0.00000       A     3.31527e-01     4.13572e-01    ;  uncertainty sigma = 0.000012, epsilon = 0.000836
 c34bf                                  6      0.0000       0.00000       A     3.31513e-01     4.13101e-01    ;  uncertainty sigma = 0.000008, epsilon = 0.000774
 c35bf                                  6      0.0000       0.00000       A     3.47934e-01     6.67795e-01    ;  uncertainty sigma = 0.000027, epsilon = 0.001251
 n36bf                                  7      0.0000       0.00000       A     3.27375e-01     4.59084e-01    ;  uncertainty sigma = 0.000021, epsilon = 0.000492
 h37bf                                  1      0.0000       0.00000       A     2.62519e-01     6.70320e-02    ;  uncertainty sigma = 0.000024, epsilon = 0.000744
 h38bf                                  1      0.0000       0.00000       A     2.62549e-01     6.67405e-02    ;  uncertainty sigma = 0.000015, epsilon = 0.000444
 h39bf                                  1      0.0000       0.00000       A     2.42236e-01     8.69096e-02    ;  uncertainty sigma = 0.000033, epsilon = 0.000580
 h40bf                                  1      0.0000       0.00000       A     2.42236e-01     8.69096e-02    ;  uncertainty sigma = 0.000033, epsilon = 0.000580
 h41bf                                  1      0.0000       0.00000       A     2.62563e-01     6.70958e-02    ;  uncertainty sigma = 0.000006, epsilon = 0.000591
 h42bf                                  1      0.0000       0.00000       A     2.62563e-01     6.70148e-02    ;  uncertainty sigma = 0.000010, epsilon = 0.000410
 h43bf                                  1      0.0000       0.00000       A     2.62563e-01     6.70454e-02    ;  uncertainty sigma = 0.000011, epsilon = 0.000576
 h44bf                                  1      0.0000       0.00000       A     2.62558e-01     6.71381e-02    ;  uncertainty sigma = 0.000013, epsilon = 0.000769
 h45bf                                  1      0.0000       0.00000       A     2.53665e-01     6.72126e-02    ;  uncertainty sigma = 0.000035, epsilon = 0.000623
 h46bf                                  1      0.0000       0.00000       A     2.42195e-01     8.71979e-02    ;  uncertainty sigma = 0.000031, epsilon = 0.000463
 h47bf                                  1      0.0000       0.00000       A     2.42195e-01     8.71979e-02    ;  uncertainty sigma = 0.000031, epsilon = 0.000463
 h48bf                                  1      0.0000       0.00000       A     2.42194e-01     8.66703e-02    ;  uncertainty sigma = 0.000035, epsilon = 0.000552
 h49bf                                  1      0.0000       0.00000       A     2.42194e-01     8.66703e-02    ;  uncertainty sigma = 0.000035, epsilon = 0.000552
 h50bf                                  1      0.0000       0.00000       A     2.42209e-01     8.67649e-02    ;  uncertainty sigma = 0.000020, epsilon = 0.000662
 h51bf                                  1      0.0000       0.00000       A     2.42209e-01     8.67649e-02    ;  uncertainty sigma = 0.000020, epsilon = 0.000662
 h52bf                                  1      0.0000       0.00000       A     2.42211e-01     8.67300e-02    ;  uncertainty sigma = 0.000015, epsilon = 0.000752
 h53bf                                  1      0.0000       0.00000       A     2.42211e-01     8.67300e-02    ;  uncertainty sigma = 0.000015, epsilon = 0.000752
 h54bf                                  1      0.0000       0.00000       A     2.42211e-01     8.67300e-02    ;  uncertainty sigma = 0.000015, epsilon = 0.000752
 h55bf                                  1      0.0000       0.00000       A     2.42211e-01     8.67300e-02    ;  uncertainty sigma = 0.000015, epsilon = 0.000752
 h56bf                                  1      0.0000       0.00000       A     2.42209e-01     8.67649e-02    ;  uncertainty sigma = 0.000020, epsilon = 0.000662
 h57bf                                  1      0.0000       0.00000       A     2.42209e-01     8.67649e-02    ;  uncertainty sigma = 0.000020, epsilon = 0.000662
 h58bf                                  1      0.0000       0.00000       A     2.53665e-01     6.72127e-02    ;  uncertainty sigma = 0.000035, epsilon = 0.000623
 h59bf                                  1      0.0000       0.00000       A     2.62560e-01     6.70283e-02    ;  uncertainty sigma = 0.000012, epsilon = 0.000523
 h60bf                                  1      0.0000       0.00000       A     2.62563e-01     6.70148e-02    ;  uncertainty sigma = 0.000010, epsilon = 0.000410
 h61bf                                  1      0.0000       0.00000       A     2.62572e-01     6.69858e-02    ;  uncertainty sigma = 0.000015, epsilon = 0.000486
 h62bf                                  1      0.0000       0.00000       A     2.62559e-01     6.70892e-02    ;  uncertainty sigma = 0.000012, epsilon = 0.000870

[ moleculetype ]
;name             nrexcl
 MOL                   3

[ atoms ]
;       nr            type      resi   res      atom      cgnr      charge          mass ; qtot
         1            o0bf         1   UNL        o0         1    -0.61615       15.9990 ; qtot   -0.616
         2            c1bf         1   UNL        c1         2     0.67439       12.0110 ; qtot    0.058
         3            c2bf         1   UNL        c2         3    -0.21412       12.0110 ; qtot   -0.156
         4            c3bf         1   UNL        c3         4    -0.16877       12.0110 ; qtot   -0.325
         5            c4bf         1   UNL        c4         5     0.39282       12.0110 ; qtot    0.068
         6            n5bf         1   UNL        n5         6    -0.41337       14.0070 ; qtot   -0.345
         7            n6bf         1   UNL        n6         7    -0.20396       14.0070 ; qtot   -0.549
         8            c7bf         1   UNL        c7         8     0.15983       12.0110 ; qtot   -0.389
         9            c8bf         1   UNL        c8         9    -0.12699       12.0110 ; qtot   -0.516
        10            c9bf         1   UNL        c9        10    -0.09108       12.0110 ; qtot   -0.607
        11           c10bf         1   UNL       c10        11    -0.14526       12.0110 ; qtot   -0.753
        12           c11bf         1   UNL       c11        12    -0.08221       12.0110 ; qtot   -0.835
        13           c12bf         1   UNL       c12        13    -0.15593       12.0110 ; qtot   -0.991
        14           c13bf         1   UNL       c13        14    -0.06423       12.0110 ; qtot   -1.055
        15           c14bf         1   UNL       c14        15     0.69795       12.0110 ; qtot   -0.357
        16           n15bf         1   UNL       n15        16    -0.67798       14.0070 ; qtot   -1.035
        17           c16bf         1   UNL       c16        17     0.39524       12.0110 ; qtot   -0.640
        18           c17bf         1   UNL       c17        18    -0.10580       12.0110 ; qtot   -0.746
        19           o18bf         1   UNL       o18        19    -0.31290       15.9990 ; qtot   -1.059
        20           c19bf         1   UNL       c19        20     0.12633       12.0110 ; qtot   -0.932
        21           c20bf         1   UNL       c20        21     0.15485       12.0110 ; qtot   -0.777
        22           n21bf         1   UNL       n21        22    -0.73588       14.0070 ; qtot   -1.513
        23           c22bf         1   UNL       c22        23     0.13512       12.0110 ; qtot   -1.378
        24           c23bf         1   UNL       c23        24     0.11609       12.0110 ; qtot   -1.262
        25           o24bf         1   UNL       o24        25    -0.41608       15.9990 ; qtot   -1.678
        26           c25bf         1   UNL       c25        26     0.11609       12.0110 ; qtot   -1.562
        27           c26bf         1   UNL       c26        27     0.13512       12.0110 ; qtot   -1.427
        28           c27bf         1   UNL       c27        28     0.39524       12.0110 ; qtot   -1.032
        29           n28bf         1   UNL       n28        29    -0.67798       14.0070 ; qtot   -1.710
        30           c29bf         1   UNL       c29        30    -0.12069       12.0110 ; qtot   -1.830
        31           c30bf         1   UNL       c30        31    -0.08042       12.0110 ; qtot   -1.911
        32           c31bf         1   UNL       c31        32    -0.13727       12.0110 ; qtot   -2.048
        33           c32bf         1   UNL       c32        33    -0.08015       12.0110 ; qtot   -2.128
        34           c33bf         1   UNL       c33        34    -0.01718       12.0110 ; qtot   -2.145
        35           c34bf         1   UNL       c34        35    -0.06869       12.0110 ; qtot   -2.214
        36           c35bf         1   UNL       c35        36     0.23145       12.0110 ; qtot   -1.983
        37           n36bf         1   UNL       n36        37    -0.35686       14.0070 ; qtot   -2.339
        38           h37bf         1   UNL       h37        38     0.16763        1.0080 ; qtot   -2.172
        39           h38bf         1   UNL       h38        39     0.15224        1.0080 ; qtot   -2.020
        40           h39bf         1   UNL       h39        40     0.08064        1.0080 ; qtot   -1.939
        41           h40bf         1   UNL       h40        41     0.08064        1.0080 ; qtot   -1.858
        42           h41bf         1   UNL       h41        42     0.13982        1.0080 ; qtot   -1.718
        43           h42bf         1   UNL       h42        43     0.13595        1.0080 ; qtot   -1.583
        44           h43bf         1   UNL       h43        44     0.15226        1.0080 ; qtot   -1.430
        45           h44bf         1   UNL       h44        45     0.15650        1.0080 ; qtot   -1.274
        46           h45bf         1   UNL       h45        46     0.03565        1.0080 ; qtot   -1.238
        47           h46bf         1   UNL       h46        47     0.05099        1.0080 ; qtot   -1.187
        48           h47bf         1   UNL       h47        48     0.05099        1.0080 ; qtot   -1.136
        49           h48bf         1   UNL       h48        49     0.04897        1.0080 ; qtot   -1.087
        50           h49bf         1   UNL       h49        50     0.04897        1.0080 ; qtot   -1.038
        51           h50bf         1   UNL       h50        51     0.05151        1.0080 ; qtot   -0.987
        52           h51bf         1   UNL       h51        52     0.05151        1.0080 ; qtot   -0.935
        53           h52bf         1   UNL       h52        53     0.05015        1.0080 ; qtot   -0.885
        54           h53bf         1   UNL       h53        54     0.05015        1.0080 ; qtot   -0.835
        55           h54bf         1   UNL       h54        55     0.05015        1.0080 ; qtot   -0.785
        56           h55bf         1   UNL       h55        56     0.05015        1.0080 ; qtot   -0.735
        57           h56bf         1   UNL       h56        57     0.05151        1.0080 ; qtot   -0.683
        58           h57bf         1   UNL       h57        58     0.05151        1.0080 ; qtot   -0.632
        59           h58bf         1   UNL       h58        59     0.03565        1.0080 ; qtot   -0.596
        60           h59bf         1   UNL       h59        60     0.14378        1.0080 ; qtot   -0.452
        61           h60bf         1   UNL       h60        61     0.14619        1.0080 ; qtot   -0.306
        62           h61bf         1   UNL       h61        62     0.14719        1.0080 ; qtot   -0.159
        63           h62bf         1   UNL       h62        63     0.15873        1.0080 ; qtot   -0.000

[ bonds ]
;       ai        aj funct               r               k
         1         2     1        0.124008   735950.482031    ;  uncertainty r = 0.000059, k = 6.569282
         2         3     1        0.145432   272577.104248    ;  uncertainty r = 0.000089, k = 4.402666
         2         7     1        0.139210   287082.488818    ;  uncertainty r = 0.000112, k = 8.370633
         3         4     1        0.134977   481508.836914    ;  uncertainty r = 0.000047, k = 10.409284
         3        38     1        0.108708   341990.721484    ;  uncertainty r = 0.000030, k = 2.410372
         4         5     1        0.143231   248898.100488    ;  uncertainty r = 0.000132, k = 12.892437
         4        39     1        0.108783   336902.861035    ;  uncertainty r = 0.000050, k = 1.619696
         5         6     1        0.130289   485921.700488    ;  uncertainty r = 0.000125, k = 7.398591
         5        30     1        0.147209   259830.485937    ;  uncertainty r = 0.000076, k = 3.054597
         6         7     1        0.133719   291839.975684    ;  uncertainty r = 0.000103, k = 13.619060
         7         8     1        0.146958   226285.092285    ;  uncertainty r = 0.000082, k = 7.991882
         8         9     1        0.151483   229275.079199    ;  uncertainty r = 0.000030, k = 5.987410
         8        40     1        0.109288   307627.680664    ;  uncertainty r = 0.000019, k = 0.761508
         8        41     1        0.109288   307627.680664    ;  uncertainty r = 0.000019, k = 0.761508
         9        10     1        0.139703   354765.532764    ;  uncertainty r = 0.000069, k = 2.816847
         9        14     1        0.139276   349283.149512    ;  uncertainty r = 0.000051, k = 4.888109
        10        11     1        0.139534   371200.960986    ;  uncertainty r = 0.000016, k = 1.371956
        10        42     1        0.108845   333137.720703    ;  uncertainty r = 0.000012, k = 0.688228
        11        12     1        0.139280   367550.839795    ;  uncertainty r = 0.000042, k = 4.029706
        11        43     1        0.108831   333139.355078    ;  uncertainty r = 0.000017, k = 1.252012
        12        13     1        0.139722   342720.214551    ;  uncertainty r = 0.000075, k = 2.913364
        12        44     1        0.108616   332855.024902    ;  uncertainty r = 0.000026, k = 0.969474
        13        14     1        0.139409   336931.871191    ;  uncertainty r = 0.000073, k = 5.943895
        13        15     1        0.146856   259787.021777    ;  uncertainty r = 0.000158, k = 4.145150
        14        45     1        0.108682   331298.716846    ;  uncertainty r = 0.000030, k = 1.060819
        15        16     1        0.135006   359311.214844    ;  uncertainty r = 0.000174, k = 8.718540
        15        29     1        0.135006   359311.214844    ;  uncertainty r = 0.000174, k = 8.718540
        16        17     1        0.133067   409378.811816    ;  uncertainty r = 0.000048, k = 4.249439
        17        18     1        0.139619   371948.049121    ;  uncertainty r = 0.000083, k = 9.798094
        17        46     1        0.109052   334640.043311    ;  uncertainty r = 0.000040, k = 3.901924
        18        19     1        0.135851   318801.161963    ;  uncertainty r = 0.000102, k = 4.888367
        18        28     1        0.139619   371948.049121    ;  uncertainty r = 0.000083, k = 9.798094
        19        20     1        0.142559   233162.031543    ;  uncertainty r = 0.000099, k = 5.996573
        20        21     1        0.152658   207229.965234    ;  uncertainty r = 0.000078, k = 9.724110
        20        47     1        0.109751   309981.180664    ;  uncertainty r = 0.000065, k = 1.302869
        20        48     1        0.109751   309981.180664    ;  uncertainty r = 0.000065, k = 1.302869
        21        22     1        0.144971   241570.788770    ;  uncertainty r = 0.000093, k = 10.302263
        21        49     1        0.109955   304999.145996    ;  uncertainty r = 0.000020, k = 1.394572
        21        50     1        0.109955   304999.145996    ;  uncertainty r = 0.000020, k = 1.394572
        22        23     1        0.146114   286798.950293    ;  uncertainty r = 0.000117, k = 5.022729
        22        27     1        0.146114   286798.950293    ;  uncertainty r = 0.000117, k = 5.022729
        23        24     1        0.152543   212224.755688    ;  uncertainty r = 0.000039, k = 4.029456
        23        51     1        0.110011   309389.894434    ;  uncertainty r = 0.000026, k = 2.111348
        23        52     1        0.110011   309389.894434    ;  uncertainty r = 0.000026, k = 2.111348
        24        25     1        0.142421   275198.360840    ;  uncertainty r = 0.000041, k = 3.883914
        24        53     1        0.109877   309296.479687    ;  uncertainty r = 0.000022, k = 1.609213
        24        54     1        0.109877   309296.479687    ;  uncertainty r = 0.000022, k = 1.609213
        25        26     1        0.142421   275198.360840    ;  uncertainty r = 0.000041, k = 3.883914
        26        27     1        0.152543   212224.755688    ;  uncertainty r = 0.000039, k = 4.029456
        26        55     1        0.109877   309296.479687    ;  uncertainty r = 0.000022, k = 1.609213
        26        56     1        0.109877   309296.479687    ;  uncertainty r = 0.000022, k = 1.609213
        27        57     1        0.110011   309389.894434    ;  uncertainty r = 0.000026, k = 2.111367
        27        58     1        0.110011   309389.894434    ;  uncertainty r = 0.000026, k = 2.111367
        28        29     1        0.133067   409378.862891    ;  uncertainty r = 0.000048, k = 4.249421
        28        59     1        0.109052   334640.043311    ;  uncertainty r = 0.000040, k = 3.901930
        30        31     1        0.140023   343325.750488    ;  uncertainty r = 0.000056, k = 1.895602
        30        35     1        0.139519   345222.902344    ;  uncertainty r = 0.000071, k = 1.383639
        31        32     1        0.139387   366922.243848    ;  uncertainty r = 0.000026, k = 2.833719
        31        60     1        0.108734   334090.612402    ;  uncertainty r = 0.000017, k = 0.499596
        32        33     1        0.139214   371154.355762    ;  uncertainty r = 0.000024, k = 1.187554
        32        61     1        0.108757   333316.506006    ;  uncertainty r = 0.000013, k = 0.993002
        33        34     1        0.140449   359897.597949    ;  uncertainty r = 0.000023, k = 1.366534
        33        62     1        0.108671   332748.330859    ;  uncertainty r = 0.000012, k = 0.493506
        34        35     1        0.140171   355207.426904    ;  uncertainty r = 0.000060, k = 2.408017
        34        36     1        0.143741   315919.554541    ;  uncertainty r = 0.000019, k = 3.318065
        35        63     1        0.108628   333098.112646    ;  uncertainty r = 0.000028, k = 1.127196
        36        37     1        0.116666  1127116.584961    ;  uncertainty r = 0.000023, k = 3.045815

[ angles ]
;       ai        aj        ak funct           theta             cth
         1         2         3     1      127.351974      536.919129    ;  uncertainty theta = 0.003562, k = 0.161864
         1         2         7     1      122.027390      653.228724    ;  uncertainty theta = 0.001797, k = 0.051887
         2         3         4     1      119.665359      523.119003    ;  uncertainty theta = 0.005349, k = 0.100266
         2         3        38     1      117.583885      254.681432    ;  uncertainty theta = 0.006644, k = 0.184684
         2         7         6     1      124.130821      552.011880    ;  uncertainty theta = 0.006513, k = 0.232378
         2         7         8     1      115.546555      389.353517    ;  uncertainty theta = 0.005911, k = 0.248842
         3         2         7     1      111.385658      354.543788    ;  uncertainty theta = 0.004876, k = 0.498398
         3         4         5     1      119.161461      481.776530    ;  uncertainty theta = 0.004785, k = 0.319756
         3         4        39     1      122.361343      282.774423    ;  uncertainty theta = 0.005531, k = 0.167097
         4         3        38     1      123.138992      265.276013    ;  uncertainty theta = 0.005028, k = 0.152928
         4         5         6     1      126.007484      532.717892    ;  uncertainty theta = 0.003400, k = 0.215105
         4         5        30     1      120.210983      387.197738    ;  uncertainty theta = 0.001472, k = 0.060395
         5         4        39     1      118.654724      262.502124    ;  uncertainty theta = 0.005379, k = 0.054973
         5         6         7     1      119.450600      508.727629    ;  uncertainty theta = 0.009321, k = 0.201408
         5        30        31     1      119.294250      392.640622    ;  uncertainty theta = 0.001890, k = 0.136995
         5        30        35     1      118.377304      398.312095    ;  uncertainty theta = 0.002136, k = 0.165419
         6         5        30     1      116.306534      445.678070    ;  uncertainty theta = 0.005685, k = 0.252427
         6         7         8     1      110.577988      500.240115    ;  uncertainty theta = 0.005833, k = 0.098935
         7         8         9     1      111.862549      642.493625    ;  uncertainty theta = 0.001364, k = 0.091264
         7         8        40     1      105.434021      444.191874    ;  uncertainty theta = 0.001612, k = 0.053315
         7         8        41     1      105.434021      444.191874    ;  uncertainty theta = 0.001612, k = 0.053315
         8         9        10     1      120.426491      424.552177    ;  uncertainty theta = 0.001183, k = 0.075232
         8         9        14     1      119.739639      404.422072    ;  uncertainty theta = 0.001445, k = 0.125283
         9         8        40     1      108.739967      417.311545    ;  uncertainty theta = 0.001881, k = 0.053917
         9         8        41     1      108.739967      417.311545    ;  uncertainty theta = 0.001881, k = 0.053917
         9        10        11     1      119.885025      524.221759    ;  uncertainty theta = 0.002065, k = 0.043778
         9        10        42     1      119.030472      270.213389    ;  uncertainty theta = 0.002268, k = 0.024348
         9        14        13     1      121.979675      528.275648    ;  uncertainty theta = 0.001822, k = 0.081800
         9        14        45     1      119.316833      276.390593    ;  uncertainty theta = 0.001305, k = 0.080105
        10         9        14     1      120.774338      455.617432    ;  uncertainty theta = 0.001449, k = 0.156970
        10        11        12     1      120.290504      506.484577    ;  uncertainty theta = 0.001272, k = 0.077873
        10        11        43     1      120.362267      284.047991    ;  uncertainty theta = 0.001711, k = 0.048927
        11        10        42     1      120.372025      293.531132    ;  uncertainty theta = 0.002545, k = 0.019543
        11        12        13     1      120.232346      524.525332    ;  uncertainty theta = 0.000782, k = 0.072775
        11        12        44     1      120.926468      288.832049    ;  uncertainty theta = 0.001396, k = 0.073927
        12        11        43     1      120.239822      284.659062    ;  uncertainty theta = 0.001522, k = 0.023723
        12        13        14     1      121.895348      436.115923    ;  uncertainty theta = 0.002603, k = 0.071744
        12        13        15     1      116.993896      401.563575    ;  uncertainty theta = 0.006089, k = 0.080842
        13        12        44     1      117.565109      261.796837    ;  uncertainty theta = 0.001353, k = 0.076979
        13        14        45     1      117.407730      263.631583    ;  uncertainty theta = 0.002520, k = 0.101620
        13        15        16     1      117.590942      445.732560    ;  uncertainty theta = 0.004282, k = 0.099810
        13        15        29     1      117.590942      445.732560    ;  uncertainty theta = 0.004282, k = 0.099810
        14        13        15     1      116.438194      397.763334    ;  uncertainty theta = 0.006185, k = 0.074266
        15        16        17     1      117.415298      372.480894    ;  uncertainty theta = 0.006332, k = 0.318625
        15        29        28     1      117.415298      372.480894    ;  uncertainty theta = 0.006332, k = 0.318625
        16        15        29     1      127.269669      797.523607    ;  uncertainty theta = 0.000954, k = 0.105380
        16        17        18     1      121.490768      686.985909    ;  uncertainty theta = 0.002839, k = 0.110472
        16        17        46     1      117.332191      329.677985    ;  uncertainty theta = 0.004794, k = 0.095269
        17        18        19     1      120.175682      399.923135    ;  uncertainty theta = 0.007158, k = 0.192816
        17        18        28     1      117.859825      351.783035    ;  uncertainty theta = 0.006417, k = 0.502915
        18        17        46     1      120.773521      255.890135    ;  uncertainty theta = 0.002556, k = 0.169809
        18        19        20     1      110.648254      504.019097    ;  uncertainty theta = 0.000869, k = 0.130167
        18        28        29     1      121.490768      686.985909    ;  uncertainty theta = 0.002839, k = 0.110472
        18        28        59     1      120.773521      255.890104    ;  uncertainty theta = 0.002556, k = 0.169809
        19        18        28     1      120.175682      399.923135    ;  uncertainty theta = 0.007158, k = 0.192816
        19        20        21     1      108.509018      557.857260    ;  uncertainty theta = 0.002578, k = 0.098805
        19        20        47     1      107.007591      430.821761    ;  uncertainty theta = 0.002267, k = 0.065163
        19        20        48     1      107.007591      430.821761    ;  uncertainty theta = 0.002267, k = 0.065163
        20        21        22     1      110.367821      577.375784    ;  uncertainty theta = 0.001542, k = 0.097219
        20        21        49     1      107.084213      417.744718    ;  uncertainty theta = 0.001821, k = 0.035222
        20        21        50     1      107.084213      417.744718    ;  uncertainty theta = 0.001821, k = 0.035222
        21        20        47     1      110.015541      405.922473    ;  uncertainty theta = 0.002511, k = 0.047191
        21        20        48     1      110.015541      405.922473    ;  uncertainty theta = 0.002511, k = 0.047191
        21        22        23     1      108.069435      476.627163    ;  uncertainty theta = 0.001203, k = 0.019950
        21        22        27     1      108.069435      476.627163    ;  uncertainty theta = 0.001203, k = 0.019950
        22        21        49     1      108.444534      428.098835    ;  uncertainty theta = 0.001500, k = 0.061746
        22        21        50     1      108.444534      428.098835    ;  uncertainty theta = 0.001500, k = 0.061746
        22        23        24     1      109.580505      641.135626    ;  uncertainty theta = 0.001326, k = 0.041082
        22        23        51     1      108.890488      446.607940    ;  uncertainty theta = 0.001947, k = 0.023837
        22        23        52     1      108.890488      446.607940    ;  uncertainty theta = 0.001947, k = 0.023837
        22        27        26     1      109.580505      641.135626    ;  uncertainty theta = 0.001326, k = 0.041082
        22        27        57     1      108.890488      446.607940    ;  uncertainty theta = 0.001947, k = 0.023837
        22        27        58     1      108.890488      446.607940    ;  uncertainty theta = 0.001947, k = 0.023837
        23        22        27     1      106.969116      487.270679    ;  uncertainty theta = 0.003071, k = 0.095645
        23        24        25     1      110.653175      653.092866    ;  uncertainty theta = 0.001907, k = 0.052600
        23        24        53     1      109.913651      402.791016    ;  uncertainty theta = 0.001201, k = 0.043560
        23        24        54     1      109.913651      402.791016    ;  uncertainty theta = 0.001201, k = 0.043560
        24        23        51     1      108.804810      405.029727    ;  uncertainty theta = 0.000781, k = 0.025640
        24        23        52     1      108.804810      405.029727    ;  uncertainty theta = 0.000781, k = 0.025640
        24        25        26     1      110.296341      543.770353    ;  uncertainty theta = 0.001769, k = 0.036968
        25        24        53     1      106.922409      463.922036    ;  uncertainty theta = 0.000946, k = 0.017397
        25        24        54     1      106.922409      463.922036    ;  uncertainty theta = 0.000946, k = 0.017397
        25        26        27     1      110.653175      653.092866    ;  uncertainty theta = 0.001907, k = 0.052600
        25        26        55     1      106.922409      463.922036    ;  uncertainty theta = 0.000946, k = 0.017397
        25        26        56     1      106.922409      463.922036    ;  uncertainty theta = 0.000946, k = 0.017397
        26        27        57     1      108.804810      405.029727    ;  uncertainty theta = 0.000781, k = 0.025640
        26        27        58     1      108.804810      405.029727    ;  uncertainty theta = 0.000781, k = 0.025640
        27        26        55     1      109.913651      402.791016    ;  uncertainty theta = 0.001201, k = 0.043560
        27        26        56     1      109.913651      402.791016    ;  uncertainty theta = 0.001201, k = 0.043560
        29        28        59     1      117.332191      329.677985    ;  uncertainty theta = 0.004794, k = 0.095269
        30        31        32     1      120.728432      531.409051    ;  uncertainty theta = 0.001088, k = 0.055647
        30        31        60     1      118.283035      265.226710    ;  uncertainty theta = 0.002384, k = 0.096901
        30        35        34     1      121.176956      527.098866    ;  uncertainty theta = 0.001539, k = 0.210044
        30        35        63     1      118.831543      266.008752    ;  uncertainty theta = 0.002520, k = 0.053619
        31        30        35     1      120.917435      435.258929    ;  uncertainty theta = 0.001988, k = 0.050253
        31        32        33     1      120.357773      513.305092    ;  uncertainty theta = 0.001195, k = 0.044943
        31        32        61     1      120.181786      285.648082    ;  uncertainty theta = 0.001415, k = 0.026175
        32        31        60     1      120.260780      291.050521    ;  uncertainty theta = 0.001952, k = 0.023667
        32        33        34     1      119.056808      528.205325    ;  uncertainty theta = 0.001455, k = 0.066558
        32        33        62     1      120.928673      284.794983    ;  uncertainty theta = 0.001593, k = 0.041022
        33        32        61     1      120.082779      285.777555    ;  uncertainty theta = 0.001663, k = 0.017613
        33        34        35     1      121.522682      453.057592    ;  uncertainty theta = 0.001015, k = 0.127242
        33        34        36     1      119.684837      375.502061    ;  uncertainty theta = 0.001761, k = 0.107159
        34        33        62     1      119.454544      281.924420    ;  uncertainty theta = 0.002619, k = 0.023302
        34        35        63     1      119.646629      285.302437    ;  uncertainty theta = 0.003448, k = 0.122220
        34        36        37     1      180.000000      234.872664    ;  uncertainty theta = 0.000000, k = 0.682645
        35        34        36     1      119.103981      372.342483    ;  uncertainty theta = 0.002619, k = 0.114759
        40         8        41     1      106.067017      312.923918    ;  uncertainty theta = 0.003423, k = 0.065436
        47        20        48     1      108.130760      333.996598    ;  uncertainty theta = 0.002688, k = 0.045308
        49        21        50     1      105.459206      319.180445    ;  uncertainty theta = 0.002397, k = 0.034583
        51        23        52     1      105.410072      317.033445    ;  uncertainty theta = 0.002010, k = 0.049049
        53        24        54     1      107.372437      316.844566    ;  uncertainty theta = 0.001622, k = 0.046245
        55        26        56     1      107.372437      316.844566    ;  uncertainty theta = 0.001622, k = 0.046245
        57        27        58     1      105.410072      317.033445    ;  uncertainty theta = 0.002010, k = 0.049049

[ dihedrals ] ; propers for gromacs 4.5 or higher, use funct 9
;       ai        aj        ak        al funct           phase               k        pn
         1         2         3         4     9        0.000000       -2.001815         1    ;  uncertainty k = 1.317036
         1         2         3         4     9      180.000000        3.389784         2    ;  uncertainty k = 0.746168
         1         2         3         4     9        0.000000       -0.174174         3    ;  uncertainty k = 0.227865
         1         2         3         4     9      180.000000        0.016096         4    ;  uncertainty k = 0.112369
         1         2         3        38     9        0.000000       -3.368926         1    ;  uncertainty k = 1.838217
         1         2         3        38     9      180.000000        6.946406         2    ;  uncertainty k = 0.848337
         1         2         3        38     9        0.000000        0.461531         3    ;  uncertainty k = 0.415057
         1         2         3        38     9      180.000000       -0.155191         4    ;  uncertainty k = 0.180479
         1         2         7         6     9        0.000000        2.605131         1    ;  uncertainty k = 1.172600
         1         2         7         6     9      180.000000       10.822449         2    ;  uncertainty k = 0.452984
         1         2         7         6     9        0.000000        1.231348         3    ;  uncertainty k = 0.502016
         1         2         7         6     9      180.000000       -0.281985         4    ;  uncertainty k = 0.368205
         1         2         7         8     9        0.000000        0.936356         1    ;  uncertainty k = 1.270752
         1         2         7         8     9      180.000000       11.759394         2    ;  uncertainty k = 0.389289
         1         2         7         8     9        0.000000        0.652543         3    ;  uncertainty k = 0.132949
         1         2         7         8     9      180.000000       -0.183660         4    ;  uncertainty k = 0.344177
         2         3         4         5     9        0.000000       -0.226611         1    ;  uncertainty k = 0.711951
         2         3         4         5     9      180.000000       17.793693         2    ;  uncertainty k = 0.299834
         2         3         4         5     9        0.000000        0.661316         3    ;  uncertainty k = 0.442288
         2         3         4         5     9      180.000000        0.994176         4    ;  uncertainty k = 0.355851
         2         3         4        39     9        0.000000       -0.328810         1    ;  uncertainty k = 0.661921
         2         3         4        39     9      180.000000       15.838401         2    ;  uncertainty k = 0.436273
         2         3         4        39     9        0.000000        1.792267         3    ;  uncertainty k = 0.273244
         2         3         4        39     9      180.000000        1.039596         4    ;  uncertainty k = 0.351736
         2         7         6         5     9        0.000000        3.689479         1    ;  uncertainty k = 2.497350
         2         7         6         5     9      180.000000        4.718593         2    ;  uncertainty k = 1.301301
         2         7         6         5     9        0.000000        1.829215         3    ;  uncertainty k = 0.697913
         2         7         6         5     9      180.000000        0.352680         4    ;  uncertainty k = 0.591003
         2         7         8         9     9        0.000000        1.507108         1    ;  uncertainty k = 0.389928
         2         7         8         9     9      180.000000       -0.022658         2    ;  uncertainty k = 0.137068
         2         7         8         9     9        0.000000        0.224962         3    ;  uncertainty k = 0.239203
         2         7         8         9     9      180.000000        0.248492         4    ;  uncertainty k = 0.123687
         2         7         8        40     9        0.000000       -0.473768         1    ;  uncertainty k = 0.528511
         2         7         8        40     9      180.000000        1.255512         2    ;  uncertainty k = 0.273074
         2         7         8        40     9        0.000000        0.779238         3    ;  uncertainty k = 0.054623
         2         7         8        40     9      180.000000        0.411931         4    ;  uncertainty k = 0.034524
         2         7         8        41     9        0.000000       -0.473768         1    ;  uncertainty k = 0.528511
         2         7         8        41     9      180.000000        1.255512         2    ;  uncertainty k = 0.273074
         2         7         8        41     9        0.000000        0.779238         3    ;  uncertainty k = 0.054623
         2         7         8        41     9      180.000000        0.411931         4    ;  uncertainty k = 0.034524
         3         2         7         6     9        0.000000        2.898928         1    ;  uncertainty k = 2.397585
         3         2         7         6     9      180.000000        2.029915         2    ;  uncertainty k = 0.771881
         3         2         7         6     9        0.000000        1.223009         3    ;  uncertainty k = 0.519452
         3         2         7         6     9      180.000000        0.577303         4    ;  uncertainty k = 0.261783
         3         2         7         8     9        0.000000        0.634212         1    ;  uncertainty k = 1.109144
         3         2         7         8     9      180.000000        7.729793         2    ;  uncertainty k = 0.355043
         3         2         7         8     9        0.000000        1.756335         3    ;  uncertainty k = 0.398208
         3         2         7         8     9      180.000000       -0.228897         4    ;  uncertainty k = 0.310568
         3         4         5         6     9        0.000000        0.332926         1    ;  uncertainty k = 1.374902
         3         4         5         6     9      180.000000        4.367811         2    ;  uncertainty k = 0.787664
         3         4         5         6     9        0.000000        0.207937         3    ;  uncertainty k = 0.459081
         3         4         5         6     9      180.000000        0.601056         4    ;  uncertainty k = 0.186301
         3         4         5        30     9        0.000000        0.456528         1    ;  uncertainty k = 0.879608
         3         4         5        30     9      180.000000        4.650708         2    ;  uncertainty k = 0.970399
         3         4         5        30     9        0.000000        0.700521         3    ;  uncertainty k = 0.353872
         3         4         5        30     9      180.000000        0.562544         4    ;  uncertainty k = 0.325359
         4         3         2         7     9        0.000000        0.419279         1    ;  uncertainty k = 2.274477
         4         3         2         7     9      180.000000        1.605237         2    ;  uncertainty k = 0.697547
         4         3         2         7     9        0.000000       -0.163994         3    ;  uncertainty k = 0.200172
         4         3         2         7     9      180.000000        0.325527         4    ;  uncertainty k = 0.077908
         4         5         6         7     9        0.000000        0.183578         1    ;  uncertainty k = 0.771395
         4         5         6         7     9      180.000000       24.456367         2    ;  uncertainty k = 0.187579
         4         5         6         7     9        0.000000        1.990465         3    ;  uncertainty k = 0.597467
         4         5         6         7     9      180.000000        0.718993         4    ;  uncertainty k = 0.279945
         4         5        30        31     9        0.000000       -0.132028         1    ;  uncertainty k = 0.620574
         4         5        30        31     9      180.000000        3.996164         2    ;  uncertainty k = 0.208000
         4         5        30        31     9        0.000000        0.691203         3    ;  uncertainty k = 0.235478
         4         5        30        31     9      180.000000       -0.174520         4    ;  uncertainty k = 0.094533
         4         5        30        35     9        0.000000       -0.150048         1    ;  uncertainty k = 0.687250
         4         5        30        35     9      180.000000        3.972331         2    ;  uncertainty k = 0.208131
         4         5        30        35     9        0.000000        0.617903         3    ;  uncertainty k = 0.137439
         4         5        30        35     9      180.000000       -0.161033         4    ;  uncertainty k = 0.081562
         5         4         3        38     9        0.000000       -0.368061         1    ;  uncertainty k = 0.793286
         5         4         3        38     9      180.000000       16.599941         2    ;  uncertainty k = 0.645991
         5         4         3        38     9        0.000000        1.946855         3    ;  uncertainty k = 0.318383
         5         4         3        38     9      180.000000        1.166107         4    ;  uncertainty k = 0.576711
         5         6         7         8     9        0.000000       -0.841726         1    ;  uncertainty k = 4.229626
         5         6         7         8     9      180.000000       12.726662         2    ;  uncertainty k = 0.800489
         5         6         7         8     9        0.000000        1.869816         3    ;  uncertainty k = 0.921636
         5         6         7         8     9      180.000000        0.104957         4    ;  uncertainty k = 0.375842
         5        30        31        32     9        0.000000        0.139722         1    ;  uncertainty k = 0.238434
         5        30        31        32     9      180.000000        9.391652         2    ;  uncertainty k = 0.440157
         5        30        31        32     9        0.000000        1.295369         3    ;  uncertainty k = 0.189112
         5        30        31        32     9      180.000000        1.674447         4    ;  uncertainty k = 0.231371
         5        30        31        60     9        0.000000       -0.031084         1    ;  uncertainty k = 0.413277
         5        30        31        60     9      180.000000        7.342514         2    ;  uncertainty k = 0.480430
         5        30        31        60     9        0.000000        0.672131         3    ;  uncertainty k = 0.217925
         5        30        31        60     9      180.000000        1.109318         4    ;  uncertainty k = 0.195987
         5        30        35        34     9        0.000000        0.015392         1    ;  uncertainty k = 0.247469
         5        30        35        34     9      180.000000        9.478616         2    ;  uncertainty k = 0.560198
         5        30        35        34     9        0.000000        1.276693         3    ;  uncertainty k = 0.096054
         5        30        35        34     9      180.000000        1.725697         4    ;  uncertainty k = 0.203576
         5        30        35        63     9        0.000000        0.097424         1    ;  uncertainty k = 0.521560
         5        30        35        63     9      180.000000        7.608775         2    ;  uncertainty k = 0.470787
         5        30        35        63     9        0.000000        0.721451         3    ;  uncertainty k = 0.263816
         5        30        35        63     9      180.000000        1.189966         4    ;  uncertainty k = 0.211659
         6         5         4        39     9        0.000000       -0.995677         1    ;  uncertainty k = 0.817234
         6         5         4        39     9      180.000000        4.518456         2    ;  uncertainty k = 0.798379
         6         5         4        39     9        0.000000        0.750755         3    ;  uncertainty k = 0.441554
         6         5         4        39     9      180.000000        0.508658         4    ;  uncertainty k = 0.169760
         6         5        30        31     9        0.000000        0.450023         1    ;  uncertainty k = 0.969158
         6         5        30        31     9      180.000000        4.481246         2    ;  uncertainty k = 0.238892
         6         5        30        31     9        0.000000        0.231510         3    ;  uncertainty k = 0.269014
         6         5        30        31     9      180.000000       -0.032999         4    ;  uncertainty k = 0.107216
         6         5        30        35     9        0.000000        0.831237         1    ;  uncertainty k = 1.042169
         6         5        30        35     9      180.000000        4.421241         2    ;  uncertainty k = 0.088420
         6         5        30        35     9        0.000000        0.359943         3    ;  uncertainty k = 0.162333
         6         5        30        35     9      180.000000       -0.017074         4    ;  uncertainty k = 0.107059
         6         7         8         9     9        0.000000        0.436874         1    ;  uncertainty k = 0.691878
         6         7         8         9     9      180.000000        0.068827         2    ;  uncertainty k = 0.314387
         6         7         8         9     9        0.000000        0.773357         3    ;  uncertainty k = 0.370060
         6         7         8         9     9      180.000000        0.186067         4    ;  uncertainty k = 0.072048
         6         7         8        40     9        0.000000        0.383408         1    ;  uncertainty k = 0.534066
         6         7         8        40     9      180.000000        1.169991         2    ;  uncertainty k = 0.403948
         6         7         8        40     9        0.000000        0.582239         3    ;  uncertainty k = 0.072429
         6         7         8        40     9      180.000000        0.242244         4    ;  uncertainty k = 0.129086
         6         7         8        41     9        0.000000        0.383408         1    ;  uncertainty k = 0.534066
         6         7         8        41     9      180.000000        1.169991         2    ;  uncertainty k = 0.403948
         6         7         8        41     9        0.000000        0.582239         3    ;  uncertainty k = 0.072429
         6         7         8        41     9      180.000000        0.242244         4    ;  uncertainty k = 0.129086
         7         2         3        38     9        0.000000       -1.120180         1    ;  uncertainty k = 2.456072
         7         2         3        38     9      180.000000        2.364371         2    ;  uncertainty k = 0.329359
         7         2         3        38     9        0.000000        0.459245         3    ;  uncertainty k = 0.206811
         7         2         3        38     9      180.000000        0.273913         4    ;  uncertainty k = 0.151694
         7         6         5        30     9        0.000000       -0.103645         1    ;  uncertainty k = 0.626562
         7         6         5        30     9      180.000000       25.528341         2    ;  uncertainty k = 0.237554
         7         6         5        30     9        0.000000        2.937624         3    ;  uncertainty k = 0.130186
         7         6         5        30     9      180.000000        0.708426         4    ;  uncertainty k = 0.580748
         7         8         9        10     9        0.000000        1.872176         1    ;  uncertainty k = 0.800662
         7         8         9        10     9      180.000000        2.343492         2    ;  uncertainty k = 0.316385
         7         8         9        10     9        0.000000        0.624300         3    ;  uncertainty k = 0.152598
         7         8         9        10     9      180.000000        0.095646         4    ;  uncertainty k = 0.049875
         7         8         9        14     9        0.000000        1.978359         1    ;  uncertainty k = 0.908938
         7         8         9        14     9      180.000000        2.263897         2    ;  uncertainty k = 0.392655
         7         8         9        14     9        0.000000        0.571494         3    ;  uncertainty k = 0.238357
         7         8         9        14     9      180.000000        0.100637         4    ;  uncertainty k = 0.060188
         8         9        10        11     9        0.000000        0.224490         1    ;  uncertainty k = 0.225258
         8         9        10        11     9      180.000000        9.771504         2    ;  uncertainty k = 0.581585
         8         9        10        11     9        0.000000        1.297806         3    ;  uncertainty k = 0.327208
         8         9        10        11     9      180.000000        1.799937         4    ;  uncertainty k = 0.234902
         8         9        10        42     9        0.000000        0.024907         1    ;  uncertainty k = 0.237816
         8         9        10        42     9      180.000000        7.591234         2    ;  uncertainty k = 0.209682
         8         9        10        42     9        0.000000        0.605780         3    ;  uncertainty k = 0.275316
         8         9        10        42     9      180.000000        1.047429         4    ;  uncertainty k = 0.187216
         8         9        14        13     9        0.000000        0.118766         1    ;  uncertainty k = 0.282848
         8         9        14        13     9      180.000000        9.675914         2    ;  uncertainty k = 0.673834
         8         9        14        13     9        0.000000        1.284044         3    ;  uncertainty k = 0.243148
         8         9        14        13     9      180.000000        1.626378         4    ;  uncertainty k = 0.321831
         8         9        14        45     9        0.000000       -0.028494         1    ;  uncertainty k = 0.275423
         8         9        14        45     9      180.000000        7.704186         2    ;  uncertainty k = 0.344091
         8         9        14        45     9        0.000000        0.555185         3    ;  uncertainty k = 0.312928
         8         9        14        45     9      180.000000        1.094337         4    ;  uncertainty k = 0.153018
         9        10        11        12     9        0.000000       -0.198148         1    ;  uncertainty k = 0.198432
         9        10        11        12     9      180.000000       13.546945         2    ;  uncertainty k = 0.336772
         9        10        11        12     9        0.000000       -0.836208         3    ;  uncertainty k = 0.420103
         9        10        11        12     9      180.000000        0.757475         4    ;  uncertainty k = 0.245679
         9        10        11        43     9        0.000000        0.034904         1    ;  uncertainty k = 0.206612
         9        10        11        43     9      180.000000        7.538891         2    ;  uncertainty k = 0.336445
         9        10        11        43     9        0.000000        1.380116         3    ;  uncertainty k = 0.190288
         9        10        11        43     9      180.000000        1.793404         4    ;  uncertainty k = 0.112528
         9        14        13        12     9        0.000000        0.048058         1    ;  uncertainty k = 0.220107
         9        14        13        12     9      180.000000       10.093093         2    ;  uncertainty k = 0.340528
         9        14        13        12     9        0.000000       -0.353064         3    ;  uncertainty k = 0.243860
         9        14        13        12     9      180.000000        1.031206         4    ;  uncertainty k = 0.212000
         9        14        13        15     9        0.000000        0.279165         1    ;  uncertainty k = 0.321564
         9        14        13        15     9      180.000000        8.837920         2    ;  uncertainty k = 0.475966
         9        14        13        15     9        0.000000        1.187741         3    ;  uncertainty k = 0.267359
         9        14        13        15     9      180.000000        1.682795         4    ;  uncertainty k = 0.105273
        10         9         8        40     9        0.000000       -0.527351         1    ;  uncertainty k = 0.230407
        10         9         8        40     9      180.000000        2.024930         2    ;  uncertainty k = 0.120210
        10         9         8        40     9        0.000000        0.504963         3    ;  uncertainty k = 0.061192
        10         9         8        40     9      180.000000        0.145045         4    ;  uncertainty k = 0.047062
        10         9         8        41     9        0.000000       -0.527351         1    ;  uncertainty k = 0.230407
        10         9         8        41     9      180.000000        2.024930         2    ;  uncertainty k = 0.120210
        10         9         8        41     9        0.000000        0.504963         3    ;  uncertainty k = 0.061192
        10         9         8        41     9      180.000000        0.145045         4    ;  uncertainty k = 0.047062
        10         9        14        13     9        0.000000       -0.291846         1    ;  uncertainty k = 0.244095
        10         9        14        13     9      180.000000       10.704491         2    ;  uncertainty k = 0.719214
        10         9        14        13     9        0.000000       -0.107596         3    ;  uncertainty k = 0.114190
        10         9        14        13     9      180.000000        1.012333         4    ;  uncertainty k = 0.477813
        10         9        14        45     9        0.000000        0.202166         1    ;  uncertainty k = 0.173866
        10         9        14        45     9      180.000000        7.402418         2    ;  uncertainty k = 0.589116
        10         9        14        45     9        0.000000        1.310845         3    ;  uncertainty k = 0.225603
        10         9        14        45     9      180.000000        1.667004         4    ;  uncertainty k = 0.181393
        10        11        12        13     9        0.000000       -0.088012         1    ;  uncertainty k = 0.116953
        10        11        12        13     9      180.000000       13.336527         2    ;  uncertainty k = 0.272805
        10        11        12        13     9        0.000000       -0.705599         3    ;  uncertainty k = 0.378681
        10        11        12        13     9      180.000000        0.796969         4    ;  uncertainty k = 0.231917
        10        11        12        44     9        0.000000        0.032234         1    ;  uncertainty k = 0.139810
        10        11        12        44     9      180.000000        7.347839         2    ;  uncertainty k = 0.261636
        10        11        12        44     9        0.000000        1.375632         3    ;  uncertainty k = 0.194678
        10        11        12        44     9      180.000000        1.836254         4    ;  uncertainty k = 0.206650
        11        10         9        14     9        0.000000       -0.215689         1    ;  uncertainty k = 0.137643
        11        10         9        14     9      180.000000       11.477597         2    ;  uncertainty k = 0.433455
        11        10         9        14     9        0.000000       -0.531145         3    ;  uncertainty k = 0.269027
        11        10         9        14     9      180.000000        0.839994         4    ;  uncertainty k = 0.394476
        11        12        13        14     9        0.000000        0.024909         1    ;  uncertainty k = 0.222943
        11        12        13        14     9      180.000000       10.946212         2    ;  uncertainty k = 0.223708
        11        12        13        14     9        0.000000       -0.601145         3    ;  uncertainty k = 0.171400
        11        12        13        14     9      180.000000        0.902860         4    ;  uncertainty k = 0.223032
        11        12        13        15     9        0.000000        0.339849         1    ;  uncertainty k = 0.442811
        11        12        13        15     9      180.000000        9.060789         2    ;  uncertainty k = 0.586015
        11        12        13        15     9        0.000000        1.180518         3    ;  uncertainty k = 0.373562
        11        12        13        15     9      180.000000        1.741148         4    ;  uncertainty k = 0.148939
        12        11        10        42     9        0.000000        0.056862         1    ;  uncertainty k = 0.128736
        12        11        10        42     9      180.000000        7.661116         2    ;  uncertainty k = 0.430434
        12        11        10        42     9        0.000000        1.432914         3    ;  uncertainty k = 0.237268
        12        11        10        42     9      180.000000        1.776466         4    ;  uncertainty k = 0.116766
        12        13        14        45     9        0.000000        0.354884         1    ;  uncertainty k = 0.112926
        12        13        14        45     9      180.000000        7.246116         2    ;  uncertainty k = 0.602098
        12        13        14        45     9        0.000000        1.301879         3    ;  uncertainty k = 0.265984
        12        13        14        45     9      180.000000        1.658007         4    ;  uncertainty k = 0.260696
        12        13        15        16     9        0.000000        0.480083         1    ;  uncertainty k = 0.594424
        12        13        15        16     9      180.000000        4.691411         2    ;  uncertainty k = 0.172265
        12        13        15        16     9        0.000000        0.515017         3    ;  uncertainty k = 0.136639
        12        13        15        16     9      180.000000        0.033086         4    ;  uncertainty k = 0.042749
        12        13        15        29     9        0.000000        0.480083         1    ;  uncertainty k = 0.594424
        12        13        15        29     9      180.000000        4.691411         2    ;  uncertainty k = 0.172265
        12        13        15        29     9        0.000000        0.515017         3    ;  uncertainty k = 0.136639
        12        13        15        29     9      180.000000        0.033086         4    ;  uncertainty k = 0.042749
        13        12        11        43     9        0.000000       -0.041388         1    ;  uncertainty k = 0.161786
        13        12        11        43     9      180.000000        7.886652         2    ;  uncertainty k = 0.569641
        13        12        11        43     9        0.000000        1.380914         3    ;  uncertainty k = 0.236625
        13        12        11        43     9      180.000000        1.750717         4    ;  uncertainty k = 0.174638
        13        15        16        17     9        0.000000       -0.039228         1    ;  uncertainty k = 1.013980
        13        15        16        17     9      180.000000       11.598513         2    ;  uncertainty k = 0.430459
        13        15        16        17     9        0.000000        2.081243         3    ;  uncertainty k = 0.284751
        13        15        16        17     9      180.000000        1.038847         4    ;  uncertainty k = 0.398591
        13        15        29        28     9        0.000000       -0.039228         1    ;  uncertainty k = 1.013980
        13        15        29        28     9      180.000000       11.598513         2    ;  uncertainty k = 0.430459
        13        15        29        28     9        0.000000        2.081243         3    ;  uncertainty k = 0.284751
        13        15        29        28     9      180.000000        1.038847         4    ;  uncertainty k = 0.398591
        14         9         8        40     9        0.000000       -0.467502         1    ;  uncertainty k = 0.342458
        14         9         8        40     9      180.000000        1.866854         2    ;  uncertainty k = 0.132943
        14         9         8        40     9        0.000000        0.468389         3    ;  uncertainty k = 0.097662
        14         9         8        40     9      180.000000        0.149866         4    ;  uncertainty k = 0.032013
        14         9         8        41     9        0.000000       -0.467502         1    ;  uncertainty k = 0.342458
        14         9         8        41     9      180.000000        1.866854         2    ;  uncertainty k = 0.132943
        14         9         8        41     9        0.000000        0.468389         3    ;  uncertainty k = 0.097662
        14         9         8        41     9      180.000000        0.149866         4    ;  uncertainty k = 0.032013
        14         9        10        42     9        0.000000        0.259375         1    ;  uncertainty k = 0.177206
        14         9        10        42     9      180.000000        7.185688         2    ;  uncertainty k = 0.664902
        14         9        10        42     9        0.000000        1.407610         3    ;  uncertainty k = 0.323470
        14         9        10        42     9      180.000000        1.653410         4    ;  uncertainty k = 0.179616
        14        13        12        44     9        0.000000        0.243000         1    ;  uncertainty k = 0.116872
        14        13        12        44     9      180.000000        7.003599         2    ;  uncertainty k = 0.458505
        14        13        12        44     9        0.000000        1.292742         3    ;  uncertainty k = 0.255453
        14        13        12        44     9      180.000000        1.631586         4    ;  uncertainty k = 0.270966
        14        13        15        16     9        0.000000        0.460215         1    ;  uncertainty k = 0.593510
        14        13        15        16     9      180.000000        4.674515         2    ;  uncertainty k = 0.148567
        14        13        15        16     9        0.000000        0.513355         3    ;  uncertainty k = 0.124843
        14        13        15        16     9      180.000000        0.023824         4    ;  uncertainty k = 0.044345
        14        13        15        29     9        0.000000        0.460215         1    ;  uncertainty k = 0.593510
        14        13        15        29     9      180.000000        4.674515         2    ;  uncertainty k = 0.148567
        14        13        15        29     9        0.000000        0.513355         3    ;  uncertainty k = 0.124843
        14        13        15        29     9      180.000000        0.023824         4    ;  uncertainty k = 0.044345
        15        13        12        44     9        0.000000       -0.226945         1    ;  uncertainty k = 0.381913
        15        13        12        44     9      180.000000        7.648232         2    ;  uncertainty k = 0.403962
        15        13        12        44     9        0.000000        0.669874         3    ;  uncertainty k = 0.181968
        15        13        12        44     9      180.000000        1.201642         4    ;  uncertainty k = 0.104618
        15        13        14        45     9        0.000000       -0.127593         1    ;  uncertainty k = 0.220579
        15        13        14        45     9      180.000000        7.665701         2    ;  uncertainty k = 0.373039
        15        13        14        45     9        0.000000        0.717374         3    ;  uncertainty k = 0.167858
        15        13        14        45     9      180.000000        1.266451         4    ;  uncertainty k = 0.117305
        15        16        17        18     9        0.000000       -0.204652         1    ;  uncertainty k = 0.347170
        15        16        17        18     9      180.000000       16.011033         2    ;  uncertainty k = 0.227366
        15        16        17        18     9        0.000000        0.192399         3    ;  uncertainty k = 0.610996
        15        16        17        18     9      180.000000        1.553282         4    ;  uncertainty k = 0.366787
        15        16        17        46     9        0.000000        0.319906         1    ;  uncertainty k = 0.607508
        15        16        17        46     9      180.000000       15.431785         2    ;  uncertainty k = 0.483097
        15        16        17        46     9        0.000000        1.763307         3    ;  uncertainty k = 0.818116
        15        16        17        46     9      180.000000        1.578522         4    ;  uncertainty k = 0.329454
        15        29        28        18     9        0.000000       -0.204652         1    ;  uncertainty k = 0.347170
        15        29        28        18     9      180.000000       16.011033         2    ;  uncertainty k = 0.227366
        15        29        28        18     9        0.000000        0.192399         3    ;  uncertainty k = 0.610996
        15        29        28        18     9      180.000000        1.553282         4    ;  uncertainty k = 0.366787
        15        29        28        59     9        0.000000        0.319906         1    ;  uncertainty k = 0.607508
        15        29        28        59     9      180.000000       15.431786         2    ;  uncertainty k = 0.483098
        15        29        28        59     9        0.000000        1.763308         3    ;  uncertainty k = 0.818117
        15        29        28        59     9      180.000000        1.578522         4    ;  uncertainty k = 0.329454
        16        15        29        28     9        0.000000       -0.509366         1    ;  uncertainty k = 0.586658
        16        15        29        28     9      180.000000       12.107976         2    ;  uncertainty k = 0.197300
        16        15        29        28     9        0.000000        1.078751         3    ;  uncertainty k = 0.445366
        16        15        29        28     9      180.000000        0.975973         4    ;  uncertainty k = 0.095253
        16        17        18        19     9        0.000000       -0.008362         1    ;  uncertainty k = 0.278452
        16        17        18        19     9      180.000000       11.420100         2    ;  uncertainty k = 0.519731
        16        17        18        19     9        0.000000        0.884568         3    ;  uncertainty k = 0.291868
        16        17        18        19     9      180.000000        1.376101         4    ;  uncertainty k = 0.350431
        16        17        18        28     9        0.000000       -0.295111         1    ;  uncertainty k = 0.440582
        16        17        18        28     9      180.000000        9.241754         2    ;  uncertainty k = 0.602450
        16        17        18        28     9        0.000000       -0.518354         3    ;  uncertainty k = 0.231090
        16        17        18        28     9      180.000000        1.152517         4    ;  uncertainty k = 0.366596
        17        16        15        29     9        0.000000       -0.509366         1    ;  uncertainty k = 0.586658
        17        16        15        29     9      180.000000       12.107976         2    ;  uncertainty k = 0.197300
        17        16        15        29     9        0.000000        1.078751         3    ;  uncertainty k = 0.445366
        17        16        15        29     9      180.000000        0.975973         4    ;  uncertainty k = 0.095253
        17        18        19        20     9        0.000000        1.200624         1    ;  uncertainty k = 0.395702
        17        18        19        20     9      180.000000        6.151716         2    ;  uncertainty k = 0.167461
        17        18        19        20     9        0.000000        0.423847         3    ;  uncertainty k = 0.232760
        17        18        19        20     9      180.000000        0.172889         4    ;  uncertainty k = 0.087231
        17        18        28        29     9        0.000000       -0.295111         1    ;  uncertainty k = 0.440582
        17        18        28        29     9      180.000000        9.241754         2    ;  uncertainty k = 0.602450
        17        18        28        29     9        0.000000       -0.518354         3    ;  uncertainty k = 0.231090
        17        18        28        29     9      180.000000        1.152517         4    ;  uncertainty k = 0.366596
        17        18        28        59     9        0.000000       -0.503394         1    ;  uncertainty k = 0.471117
        17        18        28        59     9      180.000000        3.935045         2    ;  uncertainty k = 1.347024
        17        18        28        59     9        0.000000        0.781095         3    ;  uncertainty k = 0.105348
        17        18        28        59     9      180.000000        1.106843         4    ;  uncertainty k = 0.209260
        18        19        20        21     9        0.000000        0.072339         1    ;  uncertainty k = 0.828886
        18        19        20        21     9      180.000000       -1.359567         2    ;  uncertainty k = 0.266738
        18        19        20        21     9        0.000000        0.738960         3    ;  uncertainty k = 0.177003
        18        19        20        21     9      180.000000        0.344438         4    ;  uncertainty k = 0.083636
        18        19        20        47     9        0.000000        0.664428         1    ;  uncertainty k = 0.538590
        18        19        20        47     9      180.000000       -1.311317         2    ;  uncertainty k = 0.292689
        18        19        20        47     9        0.000000        0.627073         3    ;  uncertainty k = 0.042827
        18        19        20        47     9      180.000000        0.266060         4    ;  uncertainty k = 0.124277
        18        19        20        48     9        0.000000        0.664428         1    ;  uncertainty k = 0.538590
        18        19        20        48     9      180.000000       -1.311317         2    ;  uncertainty k = 0.292689
        18        19        20        48     9        0.000000        0.627073         3    ;  uncertainty k = 0.042827
        18        19        20        48     9      180.000000        0.266060         4    ;  uncertainty k = 0.124277
        19        18        17        46     9        0.000000        0.036838         1    ;  uncertainty k = 0.321726
        19        18        17        46     9      180.000000        7.231955         2    ;  uncertainty k = 0.296133
        19        18        17        46     9        0.000000        0.635967         3    ;  uncertainty k = 0.149549
        19        18        17        46     9      180.000000        1.013461         4    ;  uncertainty k = 0.185337
        19        18        28        29     9        0.000000       -0.008362         1    ;  uncertainty k = 0.278452
        19        18        28        29     9      180.000000       11.420100         2    ;  uncertainty k = 0.519731
        19        18        28        29     9        0.000000        0.884568         3    ;  uncertainty k = 0.291868
        19        18        28        29     9      180.000000        1.376101         4    ;  uncertainty k = 0.350431
        19        18        28        59     9        0.000000        0.036839         1    ;  uncertainty k = 0.321725
        19        18        28        59     9      180.000000        7.231955         2    ;  uncertainty k = 0.296133
        19        18        28        59     9        0.000000        0.635967         3    ;  uncertainty k = 0.149549
        19        18        28        59     9      180.000000        1.013461         4    ;  uncertainty k = 0.185337
        19        20        21        22     9        0.000000       -3.692922         1    ;  uncertainty k = 0.860030
        19        20        21        22     9      180.000000       -2.582322         2    ;  uncertainty k = 0.592638
        19        20        21        22     9        0.000000        2.286728         3    ;  uncertainty k = 0.126998
        19        20        21        22     9      180.000000       -0.126425         4    ;  uncertainty k = 0.149829
        19        20        21        49     9        0.000000        0.879831         1    ;  uncertainty k = 0.289726
        19        20        21        49     9      180.000000       -1.650159         2    ;  uncertainty k = 0.242068
        19        20        21        49     9        0.000000        1.075315         3    ;  uncertainty k = 0.224510
        19        20        21        49     9      180.000000        0.049004         4    ;  uncertainty k = 0.094326
        19        20        21        50     9        0.000000        0.879831         1    ;  uncertainty k = 0.289726
        19        20        21        50     9      180.000000       -1.650159         2    ;  uncertainty k = 0.242068
        19        20        21        50     9        0.000000        1.075315         3    ;  uncertainty k = 0.224510
        19        20        21        50     9      180.000000        0.049004         4    ;  uncertainty k = 0.094326
        20        19        18        28     9        0.000000        1.200624         1    ;  uncertainty k = 0.395702
        20        19        18        28     9      180.000000        6.151716         2    ;  uncertainty k = 0.167461
        20        19        18        28     9        0.000000        0.423847         3    ;  uncertainty k = 0.232760
        20        19        18        28     9      180.000000        0.172889         4    ;  uncertainty k = 0.087231
        20        21        22        23     9        0.000000       -1.062121         1    ;  uncertainty k = 0.552089
        20        21        22        23     9      180.000000       -2.151360         2    ;  uncertainty k = 0.309256
        20        21        22        23     9        0.000000        0.781287         3    ;  uncertainty k = 0.124801
        20        21        22        23     9      180.000000        0.104502         4    ;  uncertainty k = 0.080522
        20        21        22        27     9        0.000000       -1.062121         1    ;  uncertainty k = 0.552089
        20        21        22        27     9      180.000000       -2.151360         2    ;  uncertainty k = 0.309256
        20        21        22        27     9        0.000000        0.781287         3    ;  uncertainty k = 0.124801
        20        21        22        27     9      180.000000        0.104502         4    ;  uncertainty k = 0.080522
        21        22        23        24     9        0.000000       -2.027959         1    ;  uncertainty k = 0.543738
        21        22        23        24     9      180.000000       -0.456256         2    ;  uncertainty k = 0.437236
        21        22        23        24     9        0.000000        0.348924         3    ;  uncertainty k = 0.238156
        21        22        23        24     9      180.000000        0.140406         4    ;  uncertainty k = 0.085302
        21        22        23        51     9        0.000000       -2.729358         1    ;  uncertainty k = 0.347920
        21        22        23        51     9      180.000000       -2.195436         2    ;  uncertainty k = 0.151354
        21        22        23        51     9        0.000000        0.329390         3    ;  uncertainty k = 0.103323
        21        22        23        51     9      180.000000        0.173868         4    ;  uncertainty k = 0.044492
        21        22        23        52     9        0.000000       -2.729358         1    ;  uncertainty k = 0.347920
        21        22        23        52     9      180.000000       -2.195436         2    ;  uncertainty k = 0.151354
        21        22        23        52     9        0.000000        0.329390         3    ;  uncertainty k = 0.103323
        21        22        23        52     9      180.000000        0.173868         4    ;  uncertainty k = 0.044492
        21        22        27        26     9        0.000000       -2.027959         1    ;  uncertainty k = 0.543738
        21        22        27        26     9      180.000000       -0.456256         2    ;  uncertainty k = 0.437236
        21        22        27        26     9        0.000000        0.348924         3    ;  uncertainty k = 0.238156
        21        22        27        26     9      180.000000        0.140406         4    ;  uncertainty k = 0.085302
        21        22        27        57     9        0.000000       -2.729358         1    ;  uncertainty k = 0.347920
        21        22        27        57     9      180.000000       -2.195436         2    ;  uncertainty k = 0.151354
        21        22        27        57     9        0.000000        0.329390         3    ;  uncertainty k = 0.103323
        21        22        27        57     9      180.000000        0.173868         4    ;  uncertainty k = 0.044492
        21        22        27        58     9        0.000000       -2.729358         1    ;  uncertainty k = 0.347920
        21        22        27        58     9      180.000000       -2.195436         2    ;  uncertainty k = 0.151354
        21        22        27        58     9        0.000000        0.329390         3    ;  uncertainty k = 0.103323
        21        22        27        58     9      180.000000        0.173868         4    ;  uncertainty k = 0.044492
        22        21        20        47     9        0.000000        1.222859         1    ;  uncertainty k = 0.364857
        22        21        20        47     9      180.000000       -0.998540         2    ;  uncertainty k = 0.337868
        22        21        20        47     9        0.000000        0.672097         3    ;  uncertainty k = 0.155029
        22        21        20        47     9      180.000000        0.058454         4    ;  uncertainty k = 0.049036
        22        21        20        48     9        0.000000        1.222859         1    ;  uncertainty k = 0.364857
        22        21        20        48     9      180.000000       -0.998540         2    ;  uncertainty k = 0.337868
        22        21        20        48     9        0.000000        0.672097         3    ;  uncertainty k = 0.155029
        22        21        20        48     9      180.000000        0.058454         4    ;  uncertainty k = 0.049036
        22        23        24        25     9        0.000000        4.146511         1    ;  uncertainty k = 1.591187
        22        23        24        25     9      180.000000       -8.369347         2    ;  uncertainty k = 0.937784
        22        23        24        25     9        0.000000        3.721929         3    ;  uncertainty k = 0.799162
        22        23        24        25     9      180.000000       -0.121554         4    ;  uncertainty k = 0.394738
        22        23        24        53     9        0.000000        4.006948         1    ;  uncertainty k = 1.114903
        22        23        24        53     9      180.000000       -3.071473         2    ;  uncertainty k = 0.844997
        22        23        24        53     9        0.000000        0.142216         3    ;  uncertainty k = 0.285865
        22        23        24        53     9      180.000000        0.398382         4    ;  uncertainty k = 0.253514
        22        23        24        54     9        0.000000        4.006948         1    ;  uncertainty k = 1.114903
        22        23        24        54     9      180.000000       -3.071473         2    ;  uncertainty k = 0.844997
        22        23        24        54     9        0.000000        0.142216         3    ;  uncertainty k = 0.285865
        22        23        24        54     9      180.000000        0.398382         4    ;  uncertainty k = 0.253514
        22        27        26        25     9        0.000000        4.146511         1    ;  uncertainty k = 1.591187
        22        27        26        25     9      180.000000       -8.369347         2    ;  uncertainty k = 0.937784
        22        27        26        25     9        0.000000        3.721929         3    ;  uncertainty k = 0.799162
        22        27        26        25     9      180.000000       -0.121554         4    ;  uncertainty k = 0.394738
        22        27        26        55     9        0.000000        4.006948         1    ;  uncertainty k = 1.114903
        22        27        26        55     9      180.000000       -3.071473         2    ;  uncertainty k = 0.844997
        22        27        26        55     9        0.000000        0.142216         3    ;  uncertainty k = 0.285865
        22        27        26        55     9      180.000000        0.398382         4    ;  uncertainty k = 0.253514
        22        27        26        56     9        0.000000        4.006948         1    ;  uncertainty k = 1.114903
        22        27        26        56     9      180.000000       -3.071473         2    ;  uncertainty k = 0.844997
        22        27        26        56     9        0.000000        0.142216         3    ;  uncertainty k = 0.285865
        22        27        26        56     9      180.000000        0.398382         4    ;  uncertainty k = 0.253514
        23        22        21        49     9        0.000000       -2.318427         1    ;  uncertainty k = 0.391767
        23        22        21        49     9      180.000000       -0.599978         2    ;  uncertainty k = 0.138375
        23        22        21        49     9        0.000000        0.691473         3    ;  uncertainty k = 0.065144
        23        22        21        49     9      180.000000       -0.002350         4    ;  uncertainty k = 0.040136
        23        22        21        50     9        0.000000       -2.318427         1    ;  uncertainty k = 0.391767
        23        22        21        50     9      180.000000       -0.599978         2    ;  uncertainty k = 0.138375
        23        22        21        50     9        0.000000        0.691473         3    ;  uncertainty k = 0.065144
        23        22        21        50     9      180.000000       -0.002350         4    ;  uncertainty k = 0.040136
        23        22        27        26     9        0.000000       -7.649016         1    ;  uncertainty k = 2.433104
        23        22        27        26     9      180.000000        1.824000         2    ;  uncertainty k = 0.939797
        23        22        27        26     9        0.000000        1.409502         3    ;  uncertainty k = 0.270926
        23        22        27        26     9      180.000000       -1.026487         4    ;  uncertainty k = 0.224447
        23        22        27        57     9        0.000000       -9.706178         1    ;  uncertainty k = 0.952981
        23        22        27        57     9      180.000000        0.907305         2    ;  uncertainty k = 0.197133
        23        22        27        57     9        0.000000        1.159962         3    ;  uncertainty k = 0.176815
        23        22        27        57     9      180.000000       -0.159397         4    ;  uncertainty k = 0.122152
        23        22        27        58     9        0.000000       -9.706178         1    ;  uncertainty k = 0.952981
        23        22        27        58     9      180.000000        0.907305         2    ;  uncertainty k = 0.197133
        23        22        27        58     9        0.000000        1.159962         3    ;  uncertainty k = 0.176815
        23        22        27        58     9      180.000000       -0.159397         4    ;  uncertainty k = 0.122152
        23        24        25        26     9        0.000000       -3.502452         1    ;  uncertainty k = 1.091826
        23        24        25        26     9      180.000000       -0.454873         2    ;  uncertainty k = 0.684934
        23        24        25        26     9        0.000000        0.947955         3    ;  uncertainty k = 0.352830
        23        24        25        26     9      180.000000       -0.384722         4    ;  uncertainty k = 0.239046
        24        23        22        27     9        0.000000       -7.649016         1    ;  uncertainty k = 2.433104
        24        23        22        27     9      180.000000        1.824000         2    ;  uncertainty k = 0.939797
        24        23        22        27     9        0.000000        1.409502         3    ;  uncertainty k = 0.270926
        24        23        22        27     9      180.000000       -1.026487         4    ;  uncertainty k = 0.224447
        24        25        26        27     9        0.000000       -3.502452         1    ;  uncertainty k = 1.091826
        24        25        26        27     9      180.000000       -0.454873         2    ;  uncertainty k = 0.684934
        24        25        26        27     9        0.000000        0.947955         3    ;  uncertainty k = 0.352830
        24        25        26        27     9      180.000000       -0.384722         4    ;  uncertainty k = 0.239046
        24        25        26        55     9        0.000000       -6.077875         1    ;  uncertainty k = 2.041789
        24        25        26        55     9      180.000000        0.749990         2    ;  uncertainty k = 0.188562
        24        25        26        55     9        0.000000        0.764878         3    ;  uncertainty k = 0.200722
        24        25        26        55     9      180.000000       -0.652569         4    ;  uncertainty k = 0.141349
        24        25        26        56     9        0.000000       -6.077875         1    ;  uncertainty k = 2.041789
        24        25        26        56     9      180.000000        0.749990         2    ;  uncertainty k = 0.188562
        24        25        26        56     9        0.000000        0.764878         3    ;  uncertainty k = 0.200722
        24        25        26        56     9      180.000000       -0.652569         4    ;  uncertainty k = 0.141349
        25        24        23        51     9        0.000000        1.875669         1    ;  uncertainty k = 0.875149
        25        24        23        51     9      180.000000       -1.761409         2    ;  uncertainty k = 0.674607
        25        24        23        51     9        0.000000        0.792087         3    ;  uncertainty k = 0.102828
        25        24        23        51     9      180.000000        0.408389         4    ;  uncertainty k = 0.325327
        25        24        23        52     9        0.000000        1.875669         1    ;  uncertainty k = 0.875149
        25        24        23        52     9      180.000000       -1.761409         2    ;  uncertainty k = 0.674607
        25        24        23        52     9        0.000000        0.792087         3    ;  uncertainty k = 0.102828
        25        24        23        52     9      180.000000        0.408389         4    ;  uncertainty k = 0.325327
        25        26        27        57     9        0.000000        1.875669         1    ;  uncertainty k = 0.875149
        25        26        27        57     9      180.000000       -1.761409         2    ;  uncertainty k = 0.674607
        25        26        27        57     9        0.000000        0.792087         3    ;  uncertainty k = 0.102828
        25        26        27        57     9      180.000000        0.408389         4    ;  uncertainty k = 0.325327
        25        26        27        58     9        0.000000        1.875669         1    ;  uncertainty k = 0.875149
        25        26        27        58     9      180.000000       -1.761409         2    ;  uncertainty k = 0.674607
        25        26        27        58     9        0.000000        0.792087         3    ;  uncertainty k = 0.102828
        25        26        27        58     9      180.000000        0.408389         4    ;  uncertainty k = 0.325327
        26        25        24        53     9        0.000000       -6.077875         1    ;  uncertainty k = 2.041789
        26        25        24        53     9      180.000000        0.749990         2    ;  uncertainty k = 0.188562
        26        25        24        53     9        0.000000        0.764878         3    ;  uncertainty k = 0.200722
        26        25        24        53     9      180.000000       -0.652569         4    ;  uncertainty k = 0.141349
        26        25        24        54     9        0.000000       -6.077875         1    ;  uncertainty k = 2.041789
        26        25        24        54     9      180.000000        0.749990         2    ;  uncertainty k = 0.188562
        26        25        24        54     9        0.000000        0.764878         3    ;  uncertainty k = 0.200722
        26        25        24        54     9      180.000000       -0.652569         4    ;  uncertainty k = 0.141349
        27        22        21        49     9        0.000000       -2.318427         1    ;  uncertainty k = 0.391767
        27        22        21        49     9      180.000000       -0.599978         2    ;  uncertainty k = 0.138375
        27        22        21        49     9        0.000000        0.691473         3    ;  uncertainty k = 0.065144
        27        22        21        49     9      180.000000       -0.002350         4    ;  uncertainty k = 0.040136
        27        22        21        50     9        0.000000       -2.318427         1    ;  uncertainty k = 0.391767
        27        22        21        50     9      180.000000       -0.599978         2    ;  uncertainty k = 0.138375
        27        22        21        50     9        0.000000        0.691473         3    ;  uncertainty k = 0.065144
        27        22        21        50     9      180.000000       -0.002350         4    ;  uncertainty k = 0.040136
        27        22        23        51     9        0.000000       -9.706178         1    ;  uncertainty k = 0.952981
        27        22        23        51     9      180.000000        0.907305         2    ;  uncertainty k = 0.197133
        27        22        23        51     9        0.000000        1.159962         3    ;  uncertainty k = 0.176815
        27        22        23        51     9      180.000000       -0.159397         4    ;  uncertainty k = 0.122152
        27        22        23        52     9        0.000000       -9.706178         1    ;  uncertainty k = 0.952981
        27        22        23        52     9      180.000000        0.907305         2    ;  uncertainty k = 0.197133
        27        22        23        52     9        0.000000        1.159962         3    ;  uncertainty k = 0.176815
        27        22        23        52     9      180.000000       -0.159397         4    ;  uncertainty k = 0.122152
        28        18        17        46     9        0.000000       -0.503393         1    ;  uncertainty k = 0.471118
        28        18        17        46     9      180.000000        3.935045         2    ;  uncertainty k = 1.347023
        28        18        17        46     9        0.000000        0.781096         3    ;  uncertainty k = 0.105349
        28        18        17        46     9      180.000000        1.106843         4    ;  uncertainty k = 0.209260
        30         5         4        39     9        0.000000       -0.756844         1    ;  uncertainty k = 0.933435
        30         5         4        39     9      180.000000        5.249262         2    ;  uncertainty k = 0.446026
        30         5         4        39     9        0.000000        1.040735         3    ;  uncertainty k = 0.191588
        30         5         4        39     9      180.000000        0.377706         4    ;  uncertainty k = 0.178388
        30        31        32        33     9        0.000000       -0.049204         1    ;  uncertainty k = 0.163555
        30        31        32        33     9      180.000000       13.686622         2    ;  uncertainty k = 0.375867
        30        31        32        33     9        0.000000       -0.763032         3    ;  uncertainty k = 0.333531
        30        31        32        33     9      180.000000        0.699278         4    ;  uncertainty k = 0.301188
        30        31        32        61     9        0.000000        0.092118         1    ;  uncertainty k = 0.147464
        30        31        32        61     9      180.000000        7.738785         2    ;  uncertainty k = 0.435915
        30        31        32        61     9        0.000000        1.464006         3    ;  uncertainty k = 0.192246
        30        31        32        61     9      180.000000        1.863951         4    ;  uncertainty k = 0.082876
        30        35        34        33     9        0.000000        0.026290         1    ;  uncertainty k = 0.163719
        30        35        34        33     9      180.000000       10.780339         2    ;  uncertainty k = 0.535460
        30        35        34        33     9        0.000000       -0.553721         3    ;  uncertainty k = 0.298856
        30        35        34        33     9      180.000000        1.007541         4    ;  uncertainty k = 0.374931
        30        35        34        36     9        0.000000        0.158263         1    ;  uncertainty k = 0.128543
        30        35        34        36     9      180.000000       10.701150         2    ;  uncertainty k = 0.404543
        30        35        34        36     9        0.000000        1.289757         3    ;  uncertainty k = 0.239428
        30        35        34        36     9      180.000000        1.577318         4    ;  uncertainty k = 0.195413
        31        30        35        34     9        0.000000       -0.088160         1    ;  uncertainty k = 0.275859
        31        30        35        34     9      180.000000       11.403861         2    ;  uncertainty k = 0.293423
        31        30        35        34     9        0.000000       -0.190114         3    ;  uncertainty k = 0.257034
        31        30        35        34     9      180.000000        1.014693         4    ;  uncertainty k = 0.277823
        31        30        35        63     9        0.000000        0.195105         1    ;  uncertainty k = 0.123803
        31        30        35        63     9      180.000000        7.312791         2    ;  uncertainty k = 0.486607
        31        30        35        63     9        0.000000        1.334755         3    ;  uncertainty k = 0.135466
        31        30        35        63     9      180.000000        1.624675         4    ;  uncertainty k = 0.204584
        31        32        33        34     9        0.000000       -0.162375         1    ;  uncertainty k = 0.127362
        31        32        33        34     9      180.000000       14.375991         2    ;  uncertainty k = 0.235446
        31        32        33        34     9        0.000000       -0.845739         3    ;  uncertainty k = 0.412730
        31        32        33        34     9      180.000000        0.712699         4    ;  uncertainty k = 0.185358
        31        32        33        62     9        0.000000        0.062263         1    ;  uncertainty k = 0.071515
        31        32        33        62     9      180.000000        7.544122         2    ;  uncertainty k = 0.342884
        31        32        33        62     9        0.000000        1.407576         3    ;  uncertainty k = 0.184411
        31        32        33        62     9      180.000000        1.750791         4    ;  uncertainty k = 0.062065
        32        31        30        35     9        0.000000        0.064792         1    ;  uncertainty k = 0.137895
        32        31        30        35     9      180.000000       10.697739         2    ;  uncertainty k = 0.350668
        32        31        30        35     9        0.000000       -0.484690         3    ;  uncertainty k = 0.257405
        32        31        30        35     9      180.000000        0.939268         4    ;  uncertainty k = 0.268726
        32        33        34        35     9        0.000000       -0.046891         1    ;  uncertainty k = 0.148969
        32        33        34        35     9      180.000000       11.402563         2    ;  uncertainty k = 0.388987
        32        33        34        35     9        0.000000       -0.802294         3    ;  uncertainty k = 0.386159
        32        33        34        35     9      180.000000        0.851169         4    ;  uncertainty k = 0.306482
        32        33        34        36     9        0.000000        0.196047         1    ;  uncertainty k = 0.151232
        32        33        34        36     9      180.000000       10.173628         2    ;  uncertainty k = 0.441274
        32        33        34        36     9        0.000000        1.269733         3    ;  uncertainty k = 0.268430
        32        33        34        36     9      180.000000        1.597183         4    ;  uncertainty k = 0.173239
        33        32        31        60     9        0.000000        0.040009         1    ;  uncertainty k = 0.127743
        33        32        31        60     9      180.000000        7.549359         2    ;  uncertainty k = 0.281911
        33        32        31        60     9        0.000000        1.439907         3    ;  uncertainty k = 0.224820
        33        32        31        60     9      180.000000        1.850184         4    ;  uncertainty k = 0.149466
        33        34        35        63     9        0.000000        0.153168         1    ;  uncertainty k = 0.327138
        33        34        35        63     9      180.000000        7.014319         2    ;  uncertainty k = 0.561901
        33        34        35        63     9        0.000000        1.332491         3    ;  uncertainty k = 0.267777
        33        34        35        63     9      180.000000        1.619938         4    ;  uncertainty k = 0.119489
        33        34        36        37     9        0.000000        0.000000         1    ;  uncertainty k = 0.000000
        33        34        36        37     9      180.000000        0.000000         2    ;  uncertainty k = 0.000000
        33        34        36        37     9        0.000000        0.000000         3    ;  uncertainty k = 0.000000
        33        34        36        37     9      180.000000        0.000000         4    ;  uncertainty k = 0.000000
        34        33        32        61     9        0.000000        0.035706         1    ;  uncertainty k = 0.160038
        34        33        32        61     9      180.000000        8.241760         2    ;  uncertainty k = 0.493551
        34        33        32        61     9        0.000000        1.350729         3    ;  uncertainty k = 0.294398
        34        33        32        61     9      180.000000        1.737960         4    ;  uncertainty k = 0.138864
        35        30        31        60     9        0.000000        0.203726         1    ;  uncertainty k = 0.142456
        35        30        31        60     9      180.000000        6.874536         2    ;  uncertainty k = 0.468714
        35        30        31        60     9        0.000000        1.375970         3    ;  uncertainty k = 0.157999
        35        30        31        60     9      180.000000        1.642493         4    ;  uncertainty k = 0.249857
        35        34        33        62     9        0.000000        0.186346         1    ;  uncertainty k = 0.437954
        35        34        33        62     9      180.000000        6.718599         2    ;  uncertainty k = 0.518043
        35        34        33        62     9        0.000000        1.387209         3    ;  uncertainty k = 0.304999
        35        34        33        62     9      180.000000        1.607519         4    ;  uncertainty k = 0.112944
        35        34        36        37     9        0.000000        0.000000         1    ;  uncertainty k = 0.000000
        35        34        36        37     9      180.000000        0.000000         2    ;  uncertainty k = 0.000000
        35        34        36        37     9        0.000000        0.000000         3    ;  uncertainty k = 0.000000
        35        34        36        37     9      180.000000        0.000000         4    ;  uncertainty k = 0.000000
        36        34        33        62     9        0.000000       -0.347396         1    ;  uncertainty k = 0.499937
        36        34        33        62     9      180.000000        7.212457         2    ;  uncertainty k = 0.171136
        36        34        33        62     9        0.000000        0.556732         3    ;  uncertainty k = 0.082525
        36        34        33        62     9      180.000000        1.010123         4    ;  uncertainty k = 0.159681
        36        34        35        63     9        0.000000       -0.241041         1    ;  uncertainty k = 0.290799
        36        34        35        63     9      180.000000        7.609150         2    ;  uncertainty k = 0.185744
        36        34        35        63     9        0.000000        0.564404         3    ;  uncertainty k = 0.131948
        36        34        35        63     9      180.000000        1.095746         4    ;  uncertainty k = 0.165903
        38         3         4        39     9        0.000000       -0.308549         1    ;  uncertainty k = 0.397504
        38         3         4        39     9      180.000000       12.289337         2    ;  uncertainty k = 0.583478
        38         3         4        39     9        0.000000        1.036027         3    ;  uncertainty k = 0.400452
        38         3         4        39     9      180.000000        0.764718         4    ;  uncertainty k = 0.591319
        42        10        11        43     9        0.000000       -0.204014         1    ;  uncertainty k = 0.108870
        42        10        11        43     9      180.000000        7.603270         2    ;  uncertainty k = 0.277409
        42        10        11        43     9        0.000000       -0.440239         3    ;  uncertainty k = 0.271537
        42        10        11        43     9      180.000000        0.118647         4    ;  uncertainty k = 0.133309
        43        11        12        44     9        0.000000       -0.114476         1    ;  uncertainty k = 0.217567
        43        11        12        44     9      180.000000        7.749077         2    ;  uncertainty k = 0.386440
        43        11        12        44     9        0.000000       -0.417169         3    ;  uncertainty k = 0.284411
        43        11        12        44     9      180.000000        0.165523         4    ;  uncertainty k = 0.153515
        47        20        21        49     9        0.000000        0.130489         1    ;  uncertainty k = 0.270017
        47        20        21        49     9      180.000000       -0.525644         2    ;  uncertainty k = 0.306182
        47        20        21        49     9        0.000000        0.263268         3    ;  uncertainty k = 0.071676
        47        20        21        49     9      180.000000        0.033524         4    ;  uncertainty k = 0.066797
        47        20        21        50     9        0.000000        0.130489         1    ;  uncertainty k = 0.270017
        47        20        21        50     9      180.000000       -0.525644         2    ;  uncertainty k = 0.306182
        47        20        21        50     9        0.000000        0.263268         3    ;  uncertainty k = 0.071676
        47        20        21        50     9      180.000000        0.033524         4    ;  uncertainty k = 0.066797
        48        20        21        49     9        0.000000        0.130489         1    ;  uncertainty k = 0.270017
        48        20        21        49     9      180.000000       -0.525644         2    ;  uncertainty k = 0.306182
        48        20        21        49     9        0.000000        0.263268         3    ;  uncertainty k = 0.071676
        48        20        21        49     9      180.000000        0.033524         4    ;  uncertainty k = 0.066797
        48        20        21        50     9        0.000000        0.130489         1    ;  uncertainty k = 0.270017
        48        20        21        50     9      180.000000       -0.525644         2    ;  uncertainty k = 0.306182
        48        20        21        50     9        0.000000        0.263268         3    ;  uncertainty k = 0.071676
        48        20        21        50     9      180.000000        0.033524         4    ;  uncertainty k = 0.066797
        51        23        24        53     9        0.000000       -2.714139         1    ;  uncertainty k = 1.313339
        51        23        24        53     9      180.000000        2.007263         2    ;  uncertainty k = 0.906279
        51        23        24        53     9        0.000000       -0.135352         3    ;  uncertainty k = 0.112157
        51        23        24        53     9      180.000000       -0.946706         4    ;  uncertainty k = 0.179262
        51        23        24        54     9        0.000000       -2.714139         1    ;  uncertainty k = 1.313339
        51        23        24        54     9      180.000000        2.007263         2    ;  uncertainty k = 0.906279
        51        23        24        54     9        0.000000       -0.135352         3    ;  uncertainty k = 0.112157
        51        23        24        54     9      180.000000       -0.946706         4    ;  uncertainty k = 0.179262
        52        23        24        53     9        0.000000       -2.714139         1    ;  uncertainty k = 1.313339
        52        23        24        53     9      180.000000        2.007263         2    ;  uncertainty k = 0.906279
        52        23        24        53     9        0.000000       -0.135352         3    ;  uncertainty k = 0.112157
        52        23        24        53     9      180.000000       -0.946706         4    ;  uncertainty k = 0.179262
        52        23        24        54     9        0.000000       -2.714139         1    ;  uncertainty k = 1.313339
        52        23        24        54     9      180.000000        2.007263         2    ;  uncertainty k = 0.906279
        52        23        24        54     9        0.000000       -0.135352         3    ;  uncertainty k = 0.112157
        52        23        24        54     9      180.000000       -0.946706         4    ;  uncertainty k = 0.179262
        55        26        27        57     9        0.000000       -2.714139         1    ;  uncertainty k = 1.313339
        55        26        27        57     9      180.000000        2.007263         2    ;  uncertainty k = 0.906279
        55        26        27        57     9        0.000000       -0.135352         3    ;  uncertainty k = 0.112157
        55        26        27        57     9      180.000000       -0.946706         4    ;  uncertainty k = 0.179262
        55        26        27        58     9        0.000000       -2.714139         1    ;  uncertainty k = 1.313339
        55        26        27        58     9      180.000000        2.007263         2    ;  uncertainty k = 0.906279
        55        26        27        58     9        0.000000       -0.135352         3    ;  uncertainty k = 0.112157
        55        26        27        58     9      180.000000       -0.946706         4    ;  uncertainty k = 0.179262
        56        26        27        57     9        0.000000       -2.714139         1    ;  uncertainty k = 1.313339
        56        26        27        57     9      180.000000        2.007263         2    ;  uncertainty k = 0.906279
        56        26        27        57     9        0.000000       -0.135352         3    ;  uncertainty k = 0.112157
        56        26        27        57     9      180.000000       -0.946706         4    ;  uncertainty k = 0.179262
        56        26        27        58     9        0.000000       -2.714139         1    ;  uncertainty k = 1.313339
        56        26        27        58     9      180.000000        2.007263         2    ;  uncertainty k = 0.906279
        56        26        27        58     9        0.000000       -0.135352         3    ;  uncertainty k = 0.112157
        56        26        27        58     9      180.000000       -0.946706         4    ;  uncertainty k = 0.179262
        60        31        32        61     9        0.000000       -0.142399         1    ;  uncertainty k = 0.199278
        60        31        32        61     9      180.000000        8.031573         2    ;  uncertainty k = 0.296573
        60        31        32        61     9        0.000000       -0.405730         3    ;  uncertainty k = 0.243463
        60        31        32        61     9      180.000000        0.178288         4    ;  uncertainty k = 0.169733
        61        32        33        62     9        0.000000       -0.170046         1    ;  uncertainty k = 0.151694
        61        32        33        62     9      180.000000        7.931560         2    ;  uncertainty k = 0.498078
        61        32        33        62     9        0.000000       -0.392734         3    ;  uncertainty k = 0.250814
        61        32        33        62     9      180.000000        0.104339         4    ;  uncertainty k = 0.185206

[ dihedrals ] ; impropers
;       ai        aj        ak        al funct           phase               k        pn
         2         1         3         7     4      180.000000       49.481395         2    ;  uncertainty k = 0.023227
         2         3         7         1     4      180.000000       49.481395         2    ;  uncertainty k = 0.023227
         2         7         1         3     4      180.000000       49.481395         2    ;  uncertainty k = 0.023227
         3         2         4        38     4      180.000000        3.715535         2    ;  uncertainty k = 0.270487
         3         4        38         2     4      180.000000        3.715535         2    ;  uncertainty k = 0.270487
         3        38         2         4     4      180.000000        3.715535         2    ;  uncertainty k = 0.270487
         4         3         5        39     4      180.000000        6.587586         2    ;  uncertainty k = 0.347155
         4         5        39         3     4      180.000000        6.587586         2    ;  uncertainty k = 0.347155
         4        39         3         5     4      180.000000        6.587586         2    ;  uncertainty k = 0.347155
         5         4         6        30     4      180.000000       18.081278         2    ;  uncertainty k = 0.102546
         5         6        30         4     4      180.000000       18.081278         2    ;  uncertainty k = 0.102546
         5        30         4         6     4      180.000000       18.081278         2    ;  uncertainty k = 0.102546
         7         2         6         8     4      180.000000        4.907153         2    ;  uncertainty k = 0.611200
         7         6         8         2     4      180.000000        4.907153         2    ;  uncertainty k = 0.611200
         7         8         2         6     4      180.000000        4.907153         2    ;  uncertainty k = 0.611200
         9         8        10        14     4      180.000000       11.595327         2    ;  uncertainty k = 0.103518
         9        10        14         8     4      180.000000       11.595327         2    ;  uncertainty k = 0.103518
         9        14         8        10     4      180.000000       11.595327         2    ;  uncertainty k = 0.103518
        10         9        11        42     4      180.000000        4.730527         2    ;  uncertainty k = 0.200294
        10        11        42         9     4      180.000000        4.730527         2    ;  uncertainty k = 0.200294
        10        42         9        11     4      180.000000        4.730527         2    ;  uncertainty k = 0.200294
        11        10        12        43     4      180.000000        3.987252         2    ;  uncertainty k = 0.165460
        11        12        43        10     4      180.000000        3.987252         2    ;  uncertainty k = 0.165460
        11        43        10        12     4      180.000000        3.987252         2    ;  uncertainty k = 0.165460
        12        11        13        44     4      180.000000        4.639722         2    ;  uncertainty k = 0.104778
        12        13        44        11     4      180.000000        4.639722         2    ;  uncertainty k = 0.104778
        12        44        11        13     4      180.000000        4.639722         2    ;  uncertainty k = 0.104778
        13        12        14        15     4      180.000000        9.567882         2    ;  uncertainty k = 0.137648
        13        14        15        12     4      180.000000        9.567882         2    ;  uncertainty k = 0.137648
        13        15        12        14     4      180.000000        9.567882         2    ;  uncertainty k = 0.137648
        14         9        13        45     4      180.000000        5.120075         2    ;  uncertainty k = 0.187805
        14        13        45         9     4      180.000000        5.120075         2    ;  uncertainty k = 0.187805
        14        45         9        13     4      180.000000        5.120075         2    ;  uncertainty k = 0.187805
        15        13        16        29     4      180.000000       34.296173         2    ;  uncertainty k = 0.051726
        15        16        29        13     4      180.000000       34.296173         2    ;  uncertainty k = 0.051726
        15        29        13        16     4      180.000000       34.296173         2    ;  uncertainty k = 0.051726
        17        16        18        46     4      180.000000       13.780259         2    ;  uncertainty k = 0.106585
        17        18        46        16     4      180.000000       13.780259         2    ;  uncertainty k = 0.106585
        17        46        16        18     4      180.000000       13.780259         2    ;  uncertainty k = 0.106585
        18        17        19        28     4      180.000000       15.906057         2    ;  uncertainty k = 0.289829
        18        19        28        17     4      180.000000       15.906057         2    ;  uncertainty k = 0.289829
        18        28        17        19     4      180.000000       15.906057         2    ;  uncertainty k = 0.289829
        28        18        29        59     4      180.000000       13.780258         2    ;  uncertainty k = 0.106584
        28        29        59        18     4      180.000000       13.780258         2    ;  uncertainty k = 0.106584
        28        59        18        29     4      180.000000       13.780258         2    ;  uncertainty k = 0.106584
        30         5        31        35     4      180.000000       11.255808         2    ;  uncertainty k = 0.090473
        30        31        35         5     4      180.000000       11.255808         2    ;  uncertainty k = 0.090473
        30        35         5        31     4      180.000000       11.255808         2    ;  uncertainty k = 0.090473
        31        30        32        60     4      180.000000        5.237687         2    ;  uncertainty k = 0.184986
        31        32        60        30     4      180.000000        5.237687         2    ;  uncertainty k = 0.184986
        31        60        30        32     4      180.000000        5.237687         2    ;  uncertainty k = 0.184986
        32        31        33        61     4      180.000000        3.830728         2    ;  uncertainty k = 0.180188
        32        33        61        31     4      180.000000        3.830728         2    ;  uncertainty k = 0.180188
        32        61        31        33     4      180.000000        3.830728         2    ;  uncertainty k = 0.180188
        33        32        34        62     4      180.000000        4.720886         2    ;  uncertainty k = 0.228280
        33        34        62        32     4      180.000000        4.720886         2    ;  uncertainty k = 0.228280
        33        62        32        34     4      180.000000        4.720886         2    ;  uncertainty k = 0.228280
        34        33        35        36     4      180.000000       10.250147         2    ;  uncertainty k = 0.195666
        34        35        36        33     4      180.000000       10.250147         2    ;  uncertainty k = 0.195666
        34        36        33        35     4      180.000000       10.250147         2    ;  uncertainty k = 0.195666
        35        30        34        63     4      180.000000        4.749884         2    ;  uncertainty k = 0.233906
        35        34        63        30     4      180.000000        4.749884         2    ;  uncertainty k = 0.233906
        35        63        30        34     4      180.000000        4.749884         2    ;  uncertainty k = 0.233906

[ pairs ]
;       ai        aj funct
         1         4     1
         1         6     1
         1         8     1
         1        38     1
         2         5     1
         2         9     1
         2        39     1
         2        40     1
         2        41     1
         3         6     1
         3         8     1
         3        30     1
         4         7     1
         4        31     1
         4        35     1
         5         8     1
         5        32     1
         5        34     1
         5        38     1
         5        60     1
         5        63     1
         6         9     1
         6        31     1
         6        35     1
         6        39     1
         6        40     1
         6        41     1
         7        10     1
         7        14     1
         7        30     1
         7        38     1
         8        11     1
         8        13     1
         8        42     1
         8        45     1
         9        12     1
         9        15     1
         9        43     1
        10        13     1
        10        40     1
        10        41     1
        10        44     1
        10        45     1
        11        14     1
        11        15     1
        12        16     1
        12        29     1
        12        42     1
        12        45     1
        13        17     1
        13        28     1
        13        43     1
        14        16     1
        14        29     1
        14        40     1
        14        41     1
        14        42     1
        14        44     1
        15        18     1
        15        44     1
        15        45     1
        15        46     1
        15        59     1
        16        19     1
        16        28     1
        17        20     1
        17        29     1
        17        59     1
        18        21     1
        18        47     1
        18        48     1
        19        22     1
        19        29     1
        19        46     1
        19        49     1
        19        50     1
        19        59     1
        20        23     1
        20        27     1
        20        28     1
        21        24     1
        21        26     1
        21        51     1
        21        52     1
        21        57     1
        21        58     1
        22        25     1
        22        47     1
        22        48     1
        22        53     1
        22        54     1
        22        55     1
        22        56     1
        23        26     1
        23        49     1
        23        50     1
        23        57     1
        23        58     1
        24        27     1
        24        55     1
        24        56     1
        25        51     1
        25        52     1
        25        57     1
        25        58     1
        26        53     1
        26        54     1
        27        49     1
        27        50     1
        27        51     1
        27        52     1
        28        46     1
        30        33     1
        30        36     1
        30        39     1
        30        61     1
        31        34     1
        31        62     1
        31        63     1
        32        35     1
        32        36     1
        33        37     1
        33        60     1
        33        63     1
        34        61     1
        35        37     1
        35        60     1
        35        62     1
        36        62     1
        36        63     1
        38        39     1
        42        43     1
        43        44     1
        47        49     1
        47        50     1
        48        49     1
        48        50     1
        51        53     1
        51        54     1
        52        53     1
        52        54     1
        55        57     1
        55        58     1
        56        57     1
        56        58     1
        60        61     1
        61        62     1
