; ITP file created by ByteFF-joint-25, 2026-02-17 09:10:58.042347

[ atomtypes ]
;name           bonded.type        at.num        mass        charge   ptype           sigma         epsilon
 f0bf                                   9      0.0000       0.00000       A     3.03433e-01     3.47910e-01    ;  uncertainty sigma = 0.000006, epsilon = 0.000762
 c1bf                                   6      0.0000       0.00000       A     3.31510e-01     4.13332e-01    ;  uncertainty sigma = 0.000009, epsilon = 0.000445
 c2bf                                   6      0.0000       0.00000       A     3.31522e-01     4.13593e-01    ;  uncertainty sigma = 0.000007, epsilon = 0.000737
 c3bf                                   6      0.0000       0.00000       A     3.31510e-01     4.13332e-01    ;  uncertainty sigma = 0.000009, epsilon = 0.000445
 f4bf                                   9      0.0000       0.00000       A     3.03433e-01     3.47910e-01    ;  uncertainty sigma = 0.000006, epsilon = 0.000762
 c5bf                                   6      0.0000       0.00000       A     3.31520e-01     4.13570e-01    ;  uncertainty sigma = 0.000012, epsilon = 0.000687
 c6bf                                   6      0.0000       0.00000       A     3.31515e-01     4.13249e-01    ;  uncertainty sigma = 0.000015, epsilon = 0.000666
 c7bf                                   6      0.0000       0.00000       A     3.31520e-01     4.13570e-01    ;  uncertainty sigma = 0.000012, epsilon = 0.000687
 c8bf                                   6      0.0000       0.00000       A     3.31498e-01     4.13397e-01    ;  uncertainty sigma = 0.000033, epsilon = 0.001041
 n9bf                                   7      0.0000       0.00000       A     3.38449e-01     3.94403e-01    ;  uncertainty sigma = 0.000019, epsilon = 0.001004
 n10bf                                  7      0.0000       0.00000       A     3.18130e-01     6.84059e-01    ;  uncertainty sigma = 0.000031, epsilon = 0.002260
 c11bf                                  6      0.0000       0.00000       A     3.39767e-01     4.50444e-01    ;  uncertainty sigma = 0.000009, epsilon = 0.000434
 c12bf                                  6      0.0000       0.00000       A     3.31505e-01     4.13446e-01    ;  uncertainty sigma = 0.000007, epsilon = 0.000287
 c13bf                                  6      0.0000       0.00000       A     3.31519e-01     4.13271e-01    ;  uncertainty sigma = 0.000004, epsilon = 0.000519
 c14bf                                  6      0.0000       0.00000       A     3.31520e-01     4.13558e-01    ;  uncertainty sigma = 0.000002, epsilon = 0.000530
 c15bf                                  6      0.0000       0.00000       A     3.31525e-01     4.13387e-01    ;  uncertainty sigma = 0.000005, epsilon = 0.000506
 c16bf                                  6      0.0000       0.00000       A     3.31547e-01     4.13146e-01    ;  uncertainty sigma = 0.000011, epsilon = 0.000757
 n17bf                                  7      0.0000       0.00000       A     3.26998e-01     4.91952e-01    ;  uncertainty sigma = 0.000012, epsilon = 0.000974
 c18bf                                  6      0.0000       0.00000       A     3.31535e-01     4.12560e-01    ;  uncertainty sigma = 0.000021, epsilon = 0.001024
 o19bf                                  8      0.0000       0.00000       A     3.04835e-01     6.12187e-01    ;  uncertainty sigma = 0.000025, epsilon = 0.001323
 o20bf                                  8      0.0000       0.00000       A     3.15572e-01     3.05189e-01    ;  uncertainty sigma = 0.000038, epsilon = 0.001695
 c21bf                                  6      0.0000       0.00000       A     3.39787e-01     4.50698e-01    ;  uncertainty sigma = 0.000012, epsilon = 0.000707
 c22bf                                  6      0.0000       0.00000       A     3.39724e-01     4.51182e-01    ;  uncertainty sigma = 0.000050, epsilon = 0.001282
 c23bf                                  6      0.0000       0.00000       A     3.39780e-01     4.51160e-01    ;  uncertainty sigma = 0.000013, epsilon = 0.000984
 n24bf                                  7      0.0000       0.00000       A     2.58868e-01     1.06494e+01    ;  uncertainty sigma = 0.000045, epsilon = 0.000974
 c25bf                                  6      0.0000       0.00000       A     3.39752e-01     4.51293e-01    ;  uncertainty sigma = 0.000014, epsilon = 0.001022
 c26bf                                  6      0.0000       0.00000       A     3.39796e-01     4.51053e-01    ;  uncertainty sigma = 0.000016, epsilon = 0.001411
 o27bf                                  8      0.0000       0.00000       A     3.15690e-01     3.03675e-01    ;  uncertainty sigma = 0.000030, epsilon = 0.001123
 c28bf                                  6      0.0000       0.00000       A     3.39796e-01     4.51053e-01    ;  uncertainty sigma = 0.000016, epsilon = 0.001411
 c29bf                                  6      0.0000       0.00000       A     3.39752e-01     4.51293e-01    ;  uncertainty sigma = 0.000014, epsilon = 0.001022
 c30bf                                  6      0.0000       0.00000       A     3.31516e-01     4.13520e-01    ;  uncertainty sigma = 0.000006, epsilon = 0.000564
 c31bf                                  6      0.0000       0.00000       A     3.31546e-01     4.13945e-01    ;  uncertainty sigma = 0.000006, epsilon = 0.001637
 o32bf                                  8      0.0000       0.00000       A     3.04802e-01     6.12255e-01    ;  uncertainty sigma = 0.000021, epsilon = 0.001274
 c33bf                                  6      0.0000       0.00000       A     3.31479e-01     4.13326e-01    ;  uncertainty sigma = 0.000018, epsilon = 0.001521
 c34bf                                  6      0.0000       0.00000       A     3.31517e-01     4.13271e-01    ;  uncertainty sigma = 0.000015, epsilon = 0.000991
 h35bf                                  1      0.0000       0.00000       A     2.62567e-01     6.73686e-02    ;  uncertainty sigma = 0.000010, epsilon = 0.000382
 h36bf                                  1      0.0000       0.00000       A     2.62551e-01     6.70389e-02    ;  uncertainty sigma = 0.000014, epsilon = 0.000668
 h37bf                                  1      0.0000       0.00000       A     2.62551e-01     6.70389e-02    ;  uncertainty sigma = 0.000014, epsilon = 0.000668
 h38bf                                  1      0.0000       0.00000       A     2.42236e-01     8.69098e-02    ;  uncertainty sigma = 0.000033, epsilon = 0.000580
 h39bf                                  1      0.0000       0.00000       A     2.42236e-01     8.69098e-02    ;  uncertainty sigma = 0.000033, epsilon = 0.000580
 h40bf                                  1      0.0000       0.00000       A     2.62563e-01     6.70958e-02    ;  uncertainty sigma = 0.000006, epsilon = 0.000591
 h41bf                                  1      0.0000       0.00000       A     2.62562e-01     6.69925e-02    ;  uncertainty sigma = 0.000011, epsilon = 0.000440
 h42bf                                  1      0.0000       0.00000       A     2.62558e-01     6.70547e-02    ;  uncertainty sigma = 0.000013, epsilon = 0.000515
 h43bf                                  1      0.0000       0.00000       A     1.10628e-01     4.13106e-02    ;  uncertainty sigma = 0.000153, epsilon = 0.000442
 h44bf                                  1      0.0000       0.00000       A     2.42241e-01     8.67115e-02    ;  uncertainty sigma = 0.000044, epsilon = 0.000928
 h45bf                                  1      0.0000       0.00000       A     2.42241e-01     8.67115e-02    ;  uncertainty sigma = 0.000044, epsilon = 0.000928
 h46bf                                  1      0.0000       0.00000       A     2.60072e-01     8.64655e-02    ;  uncertainty sigma = 0.000049, epsilon = 0.000735
 h47bf                                  1      0.0000       0.00000       A     2.60072e-01     8.64655e-02    ;  uncertainty sigma = 0.000049, epsilon = 0.000736
 h48bf                                  1      0.0000       0.00000       A     1.88691e-01     8.69815e-02    ;  uncertainty sigma = 0.000038, epsilon = 0.000446
 h49bf                                  1      0.0000       0.00000       A     1.88691e-01     8.69815e-02    ;  uncertainty sigma = 0.000038, epsilon = 0.000446
 h50bf                                  1      0.0000       0.00000       A     1.88782e-01     8.66052e-02    ;  uncertainty sigma = 0.000060, epsilon = 0.000667
 h51bf                                  1      0.0000       0.00000       A     1.88782e-01     8.66052e-02    ;  uncertainty sigma = 0.000060, epsilon = 0.000667
 h52bf                                  1      0.0000       0.00000       A     2.42217e-01     8.68912e-02    ;  uncertainty sigma = 0.000047, epsilon = 0.000725
 h53bf                                  1      0.0000       0.00000       A     2.42217e-01     8.68912e-02    ;  uncertainty sigma = 0.000047, epsilon = 0.000725
 h54bf                                  1      0.0000       0.00000       A     2.42217e-01     8.68912e-02    ;  uncertainty sigma = 0.000047, epsilon = 0.000725
 h55bf                                  1      0.0000       0.00000       A     2.42217e-01     8.68912e-02    ;  uncertainty sigma = 0.000047, epsilon = 0.000725
 h56bf                                  1      0.0000       0.00000       A     1.88782e-01     8.66052e-02    ;  uncertainty sigma = 0.000060, epsilon = 0.000667
 h57bf                                  1      0.0000       0.00000       A     1.88782e-01     8.66052e-02    ;  uncertainty sigma = 0.000060, epsilon = 0.000667
 h58bf                                  1      0.0000       0.00000       A     2.62545e-01     6.69581e-02    ;  uncertainty sigma = 0.000007, epsilon = 0.000727
 h59bf                                  1      0.0000       0.00000       A     2.62519e-01     6.70321e-02    ;  uncertainty sigma = 0.000024, epsilon = 0.000745
 h60bf                                  1      0.0000       0.00000       A     2.62549e-01     6.67404e-02    ;  uncertainty sigma = 0.000015, epsilon = 0.000444
 h61bf                                  1      0.0000       0.00000       A     1.10711e-01     4.11161e-02    ;  uncertainty sigma = 0.000183, epsilon = 0.001366

[ moleculetype ]
;name             nrexcl
 MOL                   3

[ atoms ]
;       nr            type      resi   res      atom      cgnr      charge          mass ; qtot
         1            f0bf         1   UNL        f0         1    -0.13656       18.9980 ; qtot   -0.137
         2            c1bf         1   UNL        c1         2     0.15364       12.0110 ; qtot    0.017
         3            c2bf         1   UNL        c2         3    -0.19537       12.0110 ; qtot   -0.178
         4            c3bf         1   UNL        c3         4     0.15364       12.0110 ; qtot   -0.025
         5            f4bf         1   UNL        f4         5    -0.13656       18.9980 ; qtot   -0.161
         6            c5bf         1   UNL        c5         6    -0.15743       12.0110 ; qtot   -0.319
         7            c6bf         1   UNL        c6         7    -0.06971       12.0110 ; qtot   -0.388
         8            c7bf         1   UNL        c7         8    -0.15743       12.0110 ; qtot   -0.546
         9            c8bf         1   UNL        c8         9     0.39145       12.0110 ; qtot   -0.154
        10            n9bf         1   UNL        n9        10    -0.40752       14.0070 ; qtot   -0.562
        11           n10bf         1   UNL       n10        11    -0.20382       14.0070 ; qtot   -0.766
        12           c11bf         1   UNL       c11        12     0.15869       12.0110 ; qtot   -0.607
        13           c12bf         1   UNL       c12        13    -0.09251       12.0110 ; qtot   -0.699
        14           c13bf         1   UNL       c13        14    -0.13451       12.0110 ; qtot   -0.834
        15           c14bf         1   UNL       c14        15    -0.09971       12.0110 ; qtot   -0.934
        16           c15bf         1   UNL       c15        16    -0.16573       12.0110 ; qtot   -1.099
        17           c16bf         1   UNL       c16        17     0.08441       12.0110 ; qtot   -1.015
        18           n17bf         1   UNL       n17        18    -0.46587       14.0070 ; qtot   -1.481
        19           c18bf         1   UNL       c18        19     0.76427       12.0110 ; qtot   -0.717
        20           o19bf         1   UNL       o19        20    -0.56309       15.9990 ; qtot   -1.280
        21           o20bf         1   UNL       o20        21    -0.43878       15.9990 ; qtot   -1.718
        22           c21bf         1   UNL       c21        22     0.16232       12.0110 ; qtot   -1.556
        23           c22bf         1   UNL       c22        23    -0.10959       12.0110 ; qtot   -1.666
        24           c23bf         1   UNL       c23        24     0.13972       12.0110 ; qtot   -1.526
        25           n24bf         1   UNL       n24        25    -0.71952       14.0070 ; qtot   -2.246
        26           c25bf         1   UNL       c25        26     0.09210       12.0110 ; qtot   -2.153
        27           c26bf         1   UNL       c26        27     0.10311       12.0110 ; qtot   -2.050
        28           o27bf         1   UNL       o27        28    -0.37203       15.9990 ; qtot   -2.422
        29           c28bf         1   UNL       c28        29     0.10311       12.0110 ; qtot   -2.319
        30           c29bf         1   UNL       c29        30     0.09210       12.0110 ; qtot   -2.227
        31           c30bf         1   UNL       c30        31    -0.14967       12.0110 ; qtot   -2.377
        32           c31bf         1   UNL       c31        32     0.67439       12.0110 ; qtot   -1.702
        33           o32bf         1   UNL       o32        33    -0.61615       15.9990 ; qtot   -2.319
        34           c33bf         1   UNL       c33        34    -0.21412       12.0110 ; qtot   -2.533
        35           c34bf         1   UNL       c34        35    -0.16644       12.0110 ; qtot   -2.699
        36           h35bf         1   UNL       h35        36     0.17223        1.0080 ; qtot   -2.527
        37           h36bf         1   UNL       h36        37     0.16641        1.0080 ; qtot   -2.361
        38           h37bf         1   UNL       h37        38     0.16641        1.0080 ; qtot   -2.194
        39           h38bf         1   UNL       h38        39     0.08056        1.0080 ; qtot   -2.114
        40           h39bf         1   UNL       h39        40     0.08056        1.0080 ; qtot   -2.033
        41           h40bf         1   UNL       h40        41     0.14021        1.0080 ; qtot   -1.893
        42           h41bf         1   UNL       h41        42     0.13294        1.0080 ; qtot   -1.760
        43           h42bf         1   UNL       h42        43     0.14950        1.0080 ; qtot   -1.610
        44           h43bf         1   UNL       h43        44     0.33729        1.0080 ; qtot   -1.273
        45           h44bf         1   UNL       h44        45     0.07407        1.0080 ; qtot   -1.199
        46           h45bf         1   UNL       h45        46     0.07407        1.0080 ; qtot   -1.125
        47           h46bf         1   UNL       h46        47     0.08423        1.0080 ; qtot   -1.041
        48           h47bf         1   UNL       h47        48     0.08423        1.0080 ; qtot   -0.956
        49           h48bf         1   UNL       h48        49     0.10197        1.0080 ; qtot   -0.854
        50           h49bf         1   UNL       h49        50     0.10197        1.0080 ; qtot   -0.753
        51           h50bf         1   UNL       h50        51     0.10840        1.0080 ; qtot   -0.644
        52           h51bf         1   UNL       h51        52     0.10840        1.0080 ; qtot   -0.536
        53           h52bf         1   UNL       h52        53     0.09750        1.0080 ; qtot   -0.438
        54           h53bf         1   UNL       h53        54     0.09750        1.0080 ; qtot   -0.341
        55           h54bf         1   UNL       h54        55     0.09750        1.0080 ; qtot   -0.243
        56           h55bf         1   UNL       h55        56     0.09750        1.0080 ; qtot   -0.146
        57           h56bf         1   UNL       h56        57     0.10840        1.0080 ; qtot   -0.037
        58           h57bf         1   UNL       h57        58     0.10840        1.0080 ; qtot    0.071
        59           h58bf         1   UNL       h58        59     0.15209        1.0080 ; qtot    0.223
        60           h59bf         1   UNL       h59        60     0.16763        1.0080 ; qtot    0.391
        61           h60bf         1   UNL       h60        61     0.15224        1.0080 ; qtot    0.543
        62           h61bf         1   UNL       h61        62     0.45696        1.0080 ; qtot    1.000

[ bonds ]
;       ai        aj funct               r               k
         1         2     1        0.135275   339582.827441    ;  uncertainty r = 0.000035, k = 2.432558
         2         3     1        0.139032   365693.193848    ;  uncertainty r = 0.000026, k = 3.713242
         2         8     1        0.138801   355605.550439    ;  uncertainty r = 0.000040, k = 2.002137
         3         4     1        0.139032   365693.193848    ;  uncertainty r = 0.000026, k = 3.713242
         3        36     1        0.108762   339357.998730    ;  uncertainty r = 0.000015, k = 0.997652
         4         5     1        0.135275   339582.827441    ;  uncertainty r = 0.000035, k = 2.432558
         4         6     1        0.138801   355605.550439    ;  uncertainty r = 0.000040, k = 2.002137
         6         7     1        0.139863   351792.196045    ;  uncertainty r = 0.000071, k = 3.727327
         6        37     1        0.108712   335835.307715    ;  uncertainty r = 0.000032, k = 0.851151
         7         8     1        0.139863   351792.196045    ;  uncertainty r = 0.000071, k = 3.727327
         7         9     1        0.147088   262485.477051    ;  uncertainty r = 0.000091, k = 9.142569
         8        38     1        0.108712   335835.307715    ;  uncertainty r = 0.000032, k = 0.851151
         9        10     1        0.130260   486820.913184    ;  uncertainty r = 0.000104, k = 8.324368
         9        35     1        0.143148   246844.789209    ;  uncertainty r = 0.000136, k = 10.011160
        10        11     1        0.133719   291839.975684    ;  uncertainty r = 0.000103, k = 13.619043
        11        12     1        0.146965   226363.669971    ;  uncertainty r = 0.000065, k = 7.980749
        11        32     1        0.139210   287082.463281    ;  uncertainty r = 0.000112, k = 8.370618
        12        13     1        0.151453   228443.948437    ;  uncertainty r = 0.000025, k = 5.149706
        12        39     1        0.109290   307674.004980    ;  uncertainty r = 0.000021, k = 0.780854
        12        40     1        0.109290   307674.004980    ;  uncertainty r = 0.000021, k = 0.780854
        13        14     1        0.139725   354881.037109    ;  uncertainty r = 0.000047, k = 2.055310
        13        31     1        0.139364   348866.664795    ;  uncertainty r = 0.000054, k = 5.388354
        14        15     1        0.139634   368272.569580    ;  uncertainty r = 0.000034, k = 1.652810
        14        41     1        0.108829   333246.100195    ;  uncertainty r = 0.000010, k = 0.920718
        15        16     1        0.139409   370601.809326    ;  uncertainty r = 0.000025, k = 3.328311
        15        42     1        0.108798   332993.129590    ;  uncertainty r = 0.000011, k = 1.633824
        16        17     1        0.140186   352899.102051    ;  uncertainty r = 0.000034, k = 2.422085
        16        43     1        0.108704   336381.980615    ;  uncertainty r = 0.000016, k = 2.175040
        17        18     1        0.141076   333335.301318    ;  uncertainty r = 0.000105, k = 7.499562
        17        31     1        0.140069   349368.443457    ;  uncertainty r = 0.000052, k = 3.734280
        18        19     1        0.138131   343482.956934    ;  uncertainty r = 0.000069, k = 22.073296
        18        44     1        0.101866   432896.753027    ;  uncertainty r = 0.000029, k = 5.130954
        19        20     1        0.122616   644699.495215    ;  uncertainty r = 0.000039, k = 7.605557
        19        21     1        0.135578   305955.280908    ;  uncertainty r = 0.000233, k = 9.945983
        21        22     1        0.143286   235608.180176    ;  uncertainty r = 0.000101, k = 11.503551
        22        23     1        0.152697   205548.435962    ;  uncertainty r = 0.000151, k = 9.790148
        22        45     1        0.109336   309225.818506    ;  uncertainty r = 0.000051, k = 1.723222
        22        46     1        0.109336   309225.818506    ;  uncertainty r = 0.000051, k = 1.723222
        23        24     1        0.152832   204547.279126    ;  uncertainty r = 0.000024, k = 8.309976
        23        47     1        0.109530   311493.973486    ;  uncertainty r = 0.000033, k = 3.218571
        23        48     1        0.109530   311493.947949    ;  uncertainty r = 0.000033, k = 3.218577
        24        25     1        0.151789   189741.603687    ;  uncertainty r = 0.000068, k = 11.597680
        24        49     1        0.109083   313197.068848    ;  uncertainty r = 0.000037, k = 2.433953
        24        50     1        0.109083   313197.068848    ;  uncertainty r = 0.000037, k = 2.433953
        25        26     1        0.151423   186055.436865    ;  uncertainty r = 0.000063, k = 20.082083
        25        30     1        0.151423   186055.436865    ;  uncertainty r = 0.000063, k = 20.082083
        25        62     1        0.102868   379947.191113    ;  uncertainty r = 0.000043, k = 5.630001
        26        27     1        0.153786   204666.882178    ;  uncertainty r = 0.000038, k = 7.107468
        26        51     1        0.109113   313342.502686    ;  uncertainty r = 0.000020, k = 2.497774
        26        52     1        0.109113   313342.502686    ;  uncertainty r = 0.000020, k = 2.497763
        27        28     1        0.142189   284497.341699    ;  uncertainty r = 0.000049, k = 10.642483
        27        53     1        0.109534   312412.032568    ;  uncertainty r = 0.000034, k = 7.415314
        27        54     1        0.109534   312412.032568    ;  uncertainty r = 0.000034, k = 7.415314
        28        29     1        0.142189   284497.341699    ;  uncertainty r = 0.000049, k = 10.642483
        29        30     1        0.153786   204666.882178    ;  uncertainty r = 0.000038, k = 7.107414
        29        55     1        0.109534   312412.032568    ;  uncertainty r = 0.000034, k = 7.415314
        29        56     1        0.109534   312412.032568    ;  uncertainty r = 0.000034, k = 7.415314
        30        57     1        0.109113   313342.502686    ;  uncertainty r = 0.000020, k = 2.497763
        30        58     1        0.109113   313342.502686    ;  uncertainty r = 0.000020, k = 2.497763
        31        59     1        0.108829   333785.214111    ;  uncertainty r = 0.000052, k = 2.324961
        32        33     1        0.124008   735950.379883    ;  uncertainty r = 0.000059, k = 6.569244
        32        34     1        0.145432   272577.155322    ;  uncertainty r = 0.000089, k = 4.402623
        34        35     1        0.134977   481508.785840    ;  uncertainty r = 0.000047, k = 10.409234
        34        60     1        0.108708   341990.695947    ;  uncertainty r = 0.000030, k = 2.410382
        35        61     1        0.108783   336902.861035    ;  uncertainty r = 0.000050, k = 1.619702

[ angles ]
;       ai        aj        ak funct           theta             cth
         1         2         3     1      118.429832      503.503534    ;  uncertainty theta = 0.002161, k = 0.048154
         1         2         8     1      118.785866      507.579768    ;  uncertainty theta = 0.002109, k = 0.057206
         2         3         4     1      115.525330      473.107958    ;  uncertainty theta = 0.002651, k = 0.198626
         2         3        36     1      122.239304      279.302525    ;  uncertainty theta = 0.002821, k = 0.053520
         2         8         7     1      118.720169      498.330961    ;  uncertainty theta = 0.002325, k = 0.126938
         2         8        38     1      120.887062      288.478041    ;  uncertainty theta = 0.000717, k = 0.013021
         3         2         8     1      123.859070      366.023069    ;  uncertainty theta = 0.005134, k = 0.176822
         3         4         5     1      118.429832      503.503534    ;  uncertainty theta = 0.002161, k = 0.048154
         3         4         6     1      123.859070      366.023069    ;  uncertainty theta = 0.005134, k = 0.176822
         4         3        36     1      122.239304      279.302525    ;  uncertainty theta = 0.002821, k = 0.053520
         4         6         7     1      118.720169      498.330961    ;  uncertainty theta = 0.002325, k = 0.126938
         4         6        37     1      120.887062      288.478041    ;  uncertainty theta = 0.000717, k = 0.013021
         5         4         6     1      118.785866      507.579768    ;  uncertainty theta = 0.002109, k = 0.057206
         6         7         8     1      122.382584      431.454506    ;  uncertainty theta = 0.000960, k = 0.097327
         6         7         9     1      118.724350      391.877094    ;  uncertainty theta = 0.002727, k = 0.206133
         7         6        37     1      120.100586      263.055497    ;  uncertainty theta = 0.002410, k = 0.043472
         7         8        38     1      120.100586      263.055497    ;  uncertainty theta = 0.002410, k = 0.043472
         7         9        10     1      116.228676      442.181529    ;  uncertainty theta = 0.006577, k = 0.257504
         7         9        35     1      120.406006      386.651563    ;  uncertainty theta = 0.002392, k = 0.102654
         8         7         9     1      118.724350      391.877094    ;  uncertainty theta = 0.002727, k = 0.206133
         9        10        11     1      119.599083      506.750578    ;  uncertainty theta = 0.009383, k = 0.233462
         9        35        34     1      119.137741      483.732417    ;  uncertainty theta = 0.004425, k = 0.316234
         9        35        61     1      118.496231      262.252100    ;  uncertainty theta = 0.005672, k = 0.058663
        10         9        35     1      126.192650      534.970871    ;  uncertainty theta = 0.003715, k = 0.203915
        10        11        12     1      110.598839      500.140010    ;  uncertainty theta = 0.005840, k = 0.101735
        10        11        32     1      124.130821      552.011816    ;  uncertainty theta = 0.006513, k = 0.232378
        11        12        13     1      111.927551      645.672740    ;  uncertainty theta = 0.001797, k = 0.124936
        11        12        39     1      105.433105      444.170327    ;  uncertainty theta = 0.001589, k = 0.052748
        11        12        40     1      105.433105      444.170327    ;  uncertainty theta = 0.001589, k = 0.052748
        11        32        33     1      122.027390      653.228724    ;  uncertainty theta = 0.001797, k = 0.051888
        11        32        34     1      111.385658      354.543852    ;  uncertainty theta = 0.004876, k = 0.498397
        12        11        32     1      115.549660      389.321596    ;  uncertainty theta = 0.005941, k = 0.248220
        12        13        14     1      120.424866      423.871964    ;  uncertainty theta = 0.001310, k = 0.060262
        12        13        31     1      119.224709      396.563633    ;  uncertainty theta = 0.002532, k = 0.147585
        13        12        39     1      108.925598      418.083946    ;  uncertainty theta = 0.001832, k = 0.057006
        13        12        40     1      108.925598      418.083946    ;  uncertainty theta = 0.001832, k = 0.057006
        13        14        15     1      119.270897      516.501987    ;  uncertainty theta = 0.002340, k = 0.045046
        13        14        41     1      119.290146      270.091130    ;  uncertainty theta = 0.002426, k = 0.051603
        13        31        17     1      120.252426      520.259357    ;  uncertainty theta = 0.003614, k = 0.054614
        13        31        59     1      119.717880      283.192849    ;  uncertainty theta = 0.002777, k = 0.118835
        14        13        31     1      120.953552      449.928051    ;  uncertainty theta = 0.001670, k = 0.163937
        14        15        16     1      120.600754      497.371659    ;  uncertainty theta = 0.002700, k = 0.081477
        14        15        42     1      120.257736      282.073557    ;  uncertainty theta = 0.001426, k = 0.031912
        15        14        41     1      120.679565      293.795090    ;  uncertainty theta = 0.002153, k = 0.029574
        15        16        17     1      118.594276      510.018466    ;  uncertainty theta = 0.001819, k = 0.112867
        15        16        43     1      121.147278      313.787998    ;  uncertainty theta = 0.001651, k = 0.077590
        16        15        42     1      119.752991      279.519304    ;  uncertainty theta = 0.001747, k = 0.036118
        16        17        18     1      120.065506      531.641566    ;  uncertainty theta = 0.004001, k = 0.118810
        16        17        31     1      120.105507      370.063168    ;  uncertainty theta = 0.006223, k = 0.047735
        17        16        43     1      119.090187      268.230209    ;  uncertainty theta = 0.002329, k = 0.029092
        17        18        19     1      116.856888      431.154956    ;  uncertainty theta = 0.003501, k = 0.142522
        17        18        44     1      113.870056      315.075387    ;  uncertainty theta = 0.008233, k = 0.139557
        17        31        59     1      119.097778      273.854790    ;  uncertainty theta = 0.002931, k = 0.063198
        18        17        31     1      119.671364      529.186109    ;  uncertainty theta = 0.004041, k = 0.130987
        18        19        20     1      124.872360      671.300761    ;  uncertainty theta = 0.003627, k = 0.149966
        18        19        21     1      110.486038      618.391765    ;  uncertainty theta = 0.006986, k = 0.119281
        19        18        44     1      116.074951      368.010144    ;  uncertainty theta = 0.003761, k = 0.094801
        19        21        22     1      110.686195      522.877486    ;  uncertainty theta = 0.005517, k = 0.151519
        20        19        21     1      124.443893      620.410729    ;  uncertainty theta = 0.004811, k = 0.147664
        21        22        23     1      108.505455      589.785351    ;  uncertainty theta = 0.004184, k = 0.081638
        21        22        45     1      105.990746      421.566538    ;  uncertainty theta = 0.002169, k = 0.094139
        21        22        46     1      105.990746      421.566538    ;  uncertainty theta = 0.002169, k = 0.094139
        22        23        24     1      109.657570      542.083243    ;  uncertainty theta = 0.001459, k = 0.096182
        22        23        47     1      107.151779      402.927608    ;  uncertainty theta = 0.001300, k = 0.036761
        22        23        48     1      107.151779      402.927608    ;  uncertainty theta = 0.001300, k = 0.036761
        23        22        45     1      109.914139      402.520834    ;  uncertainty theta = 0.001634, k = 0.062924
        23        22        46     1      109.914139      402.520834    ;  uncertainty theta = 0.001634, k = 0.062924
        23        24        25     1      111.122581      665.867997    ;  uncertainty theta = 0.003813, k = 0.102702
        23        24        49     1      109.644188      402.810010    ;  uncertainty theta = 0.003130, k = 0.059696
        23        24        50     1      109.644188      402.810010    ;  uncertainty theta = 0.003130, k = 0.059696
        24        23        47     1      107.559631      402.667608    ;  uncertainty theta = 0.002059, k = 0.045734
        24        23        48     1      107.559631      402.667608    ;  uncertainty theta = 0.002059, k = 0.045734
        24        25        26     1      112.019508      629.399026    ;  uncertainty theta = 0.005041, k = 0.205664
        24        25        30     1      112.019508      629.399026    ;  uncertainty theta = 0.005041, k = 0.205664
        24        25        62     1      106.294724      445.776803    ;  uncertainty theta = 0.004175, k = 0.120610
        25        24        49     1      105.581566      451.552435    ;  uncertainty theta = 0.003780, k = 0.104157
        25        24        50     1      105.581566      451.552435    ;  uncertainty theta = 0.003780, k = 0.104157
        25        26        27     1      109.186562      704.217010    ;  uncertainty theta = 0.003293, k = 0.270437
        25        26        51     1      106.736046      461.580124    ;  uncertainty theta = 0.003126, k = 0.077271
        25        26        52     1      106.736046      461.580124    ;  uncertainty theta = 0.003126, k = 0.077271
        25        30        29     1      109.186562      704.217010    ;  uncertainty theta = 0.003293, k = 0.270437
        25        30        57     1      106.736046      461.580124    ;  uncertainty theta = 0.003126, k = 0.077271
        25        30        58     1      106.736046      461.580124    ;  uncertainty theta = 0.003126, k = 0.077271
        26        25        30     1      110.312050      648.631150    ;  uncertainty theta = 0.005078, k = 0.216902
        26        25        62     1      107.012352      448.129600    ;  uncertainty theta = 0.004938, k = 0.164683
        26        27        28     1      110.363876      685.293693    ;  uncertainty theta = 0.002343, k = 0.190025
        26        27        53     1      109.494705      413.923057    ;  uncertainty theta = 0.003260, k = 0.064634
        26        27        54     1      109.494705      413.923057    ;  uncertainty theta = 0.003260, k = 0.064634
        27        26        51     1      110.906052      409.572524    ;  uncertainty theta = 0.001877, k = 0.092231
        27        26        52     1      110.906052      409.572524    ;  uncertainty theta = 0.001877, k = 0.092231
        27        28        29     1      107.087723      566.405808    ;  uncertainty theta = 0.002845, k = 0.170391
        28        27        53     1      107.791321      460.743656    ;  uncertainty theta = 0.002441, k = 0.092948
        28        27        54     1      107.791321      460.743656    ;  uncertainty theta = 0.002441, k = 0.092948
        28        29        30     1      110.363876      685.293693    ;  uncertainty theta = 0.002343, k = 0.190025
        28        29        55     1      107.791321      460.743656    ;  uncertainty theta = 0.002441, k = 0.092948
        28        29        56     1      107.791321      460.743656    ;  uncertainty theta = 0.002441, k = 0.092948
        29        30        57     1      110.906044      409.572555    ;  uncertainty theta = 0.001877, k = 0.092231
        29        30        58     1      110.906044      409.572555    ;  uncertainty theta = 0.001877, k = 0.092231
        30        25        62     1      107.012352      448.129600    ;  uncertainty theta = 0.004938, k = 0.164683
        30        29        55     1      109.494705      413.923057    ;  uncertainty theta = 0.003260, k = 0.064634
        30        29        56     1      109.494705      413.923057    ;  uncertainty theta = 0.003260, k = 0.064634
        32        34        35     1      119.665359      523.118907    ;  uncertainty theta = 0.005349, k = 0.100266
        32        34        60     1      117.583900      254.681416    ;  uncertainty theta = 0.006644, k = 0.184684
        33        32        34     1      127.351967      536.919193    ;  uncertainty theta = 0.003562, k = 0.161864
        34        35        61     1      122.361343      282.774455    ;  uncertainty theta = 0.005531, k = 0.167097
        35        34        60     1      123.138992      265.276013    ;  uncertainty theta = 0.005028, k = 0.152927
        39        12        40     1      106.064781      312.971321    ;  uncertainty theta = 0.003438, k = 0.064673
        45        22        46     1      107.724503      331.449016    ;  uncertainty theta = 0.003894, k = 0.020082
        47        23        48     1      105.777794      324.893640    ;  uncertainty theta = 0.002707, k = 0.048010
        49        24        50     1      107.587936      323.040252    ;  uncertainty theta = 0.003960, k = 0.115941
        51        26        52     1      107.969826      323.767581    ;  uncertainty theta = 0.003778, k = 0.063480
        53        27        54     1      107.594681      318.718639    ;  uncertainty theta = 0.003032, k = 0.085901
        55        29        56     1      107.594681      318.718639    ;  uncertainty theta = 0.003032, k = 0.085901
        57        30        58     1      107.969826      323.767581    ;  uncertainty theta = 0.003778, k = 0.063480

[ dihedrals ] ; propers for gromacs 4.5 or higher, use funct 9
;       ai        aj        ak        al funct           phase               k        pn
         1         2         3         4     9        0.000000       -0.032346         1    ;  uncertainty k = 0.289700
         1         2         3         4     9      180.000000       12.548675         2    ;  uncertainty k = 0.646211
         1         2         3         4     9        0.000000        1.557435         3    ;  uncertainty k = 0.311241
         1         2         3         4     9      180.000000        1.512892         4    ;  uncertainty k = 0.296059
         1         2         3        36     9        0.000000       -0.234235         1    ;  uncertainty k = 0.255324
         1         2         3        36     9      180.000000        8.539482         2    ;  uncertainty k = 0.302304
         1         2         3        36     9        0.000000        0.791090         3    ;  uncertainty k = 0.302726
         1         2         3        36     9      180.000000        0.996026         4    ;  uncertainty k = 0.177952
         1         2         8         7     9        0.000000       -0.049880         1    ;  uncertainty k = 0.257804
         1         2         8         7     9      180.000000       12.651867         2    ;  uncertainty k = 0.408916
         1         2         8         7     9        0.000000        1.531328         3    ;  uncertainty k = 0.260601
         1         2         8         7     9      180.000000        1.472262         4    ;  uncertainty k = 0.165252
         1         2         8        38     9        0.000000       -0.415350         1    ;  uncertainty k = 0.228614
         1         2         8        38     9      180.000000        9.086428         2    ;  uncertainty k = 0.377298
         1         2         8        38     9        0.000000        0.802704         3    ;  uncertainty k = 0.232487
         1         2         8        38     9      180.000000        1.043252         4    ;  uncertainty k = 0.211577
         2         3         4         5     9        0.000000       -0.032346         1    ;  uncertainty k = 0.289700
         2         3         4         5     9      180.000000       12.548675         2    ;  uncertainty k = 0.646211
         2         3         4         5     9        0.000000        1.557435         3    ;  uncertainty k = 0.311241
         2         3         4         5     9      180.000000        1.512892         4    ;  uncertainty k = 0.296059
         2         3         4         6     9        0.000000        0.079700         1    ;  uncertainty k = 0.154157
         2         3         4         6     9      180.000000        8.889416         2    ;  uncertainty k = 0.512493
         2         3         4         6     9        0.000000       -0.106306         3    ;  uncertainty k = 0.476972
         2         3         4         6     9      180.000000        1.234736         4    ;  uncertainty k = 0.285240
         2         8         7         6     9        0.000000        0.022121         1    ;  uncertainty k = 0.243825
         2         8         7         6     9      180.000000       11.046753         2    ;  uncertainty k = 0.290032
         2         8         7         6     9        0.000000       -0.498760         3    ;  uncertainty k = 0.387971
         2         8         7         6     9      180.000000        1.024180         4    ;  uncertainty k = 0.289071
         2         8         7         9     9        0.000000        0.184077         1    ;  uncertainty k = 0.251450
         2         8         7         9     9      180.000000        9.064982         2    ;  uncertainty k = 0.510143
         2         8         7         9     9        0.000000        1.393257         3    ;  uncertainty k = 0.168522
         2         8         7         9     9      180.000000        1.772060         4    ;  uncertainty k = 0.162457
         3         2         8         7     9        0.000000        0.057718         1    ;  uncertainty k = 0.164909
         3         2         8         7     9      180.000000        8.885302         2    ;  uncertainty k = 0.653772
         3         2         8         7     9        0.000000       -0.076193         3    ;  uncertainty k = 0.320383
         3         2         8         7     9      180.000000        1.240042         4    ;  uncertainty k = 0.346859
         3         2         8        38     9        0.000000       -0.021691         1    ;  uncertainty k = 0.235350
         3         2         8        38     9      180.000000        5.842806         2    ;  uncertainty k = 0.659902
         3         2         8        38     9        0.000000        1.305046         3    ;  uncertainty k = 0.309758
         3         2         8        38     9      180.000000        1.641078         4    ;  uncertainty k = 0.167200
         3         4         6         7     9        0.000000        0.057718         1    ;  uncertainty k = 0.164909
         3         4         6         7     9      180.000000        8.885302         2    ;  uncertainty k = 0.653772
         3         4         6         7     9        0.000000       -0.076193         3    ;  uncertainty k = 0.320383
         3         4         6         7     9      180.000000        1.240042         4    ;  uncertainty k = 0.346859
         3         4         6        37     9        0.000000       -0.021691         1    ;  uncertainty k = 0.235350
         3         4         6        37     9      180.000000        5.842806         2    ;  uncertainty k = 0.659902
         3         4         6        37     9        0.000000        1.305046         3    ;  uncertainty k = 0.309758
         3         4         6        37     9      180.000000        1.641078         4    ;  uncertainty k = 0.167200
         4         3         2         8     9        0.000000        0.079700         1    ;  uncertainty k = 0.154157
         4         3         2         8     9      180.000000        8.889416         2    ;  uncertainty k = 0.512493
         4         3         2         8     9        0.000000       -0.106306         3    ;  uncertainty k = 0.476972
         4         3         2         8     9      180.000000        1.234736         4    ;  uncertainty k = 0.285240
         4         6         7         8     9        0.000000        0.022121         1    ;  uncertainty k = 0.243825
         4         6         7         8     9      180.000000       11.046753         2    ;  uncertainty k = 0.290032
         4         6         7         8     9        0.000000       -0.498760         3    ;  uncertainty k = 0.387971
         4         6         7         8     9      180.000000        1.024180         4    ;  uncertainty k = 0.289071
         4         6         7         9     9        0.000000        0.184077         1    ;  uncertainty k = 0.251450
         4         6         7         9     9      180.000000        9.064982         2    ;  uncertainty k = 0.510143
         4         6         7         9     9        0.000000        1.393257         3    ;  uncertainty k = 0.168522
         4         6         7         9     9      180.000000        1.772060         4    ;  uncertainty k = 0.162457
         5         4         3        36     9        0.000000       -0.234235         1    ;  uncertainty k = 0.255324
         5         4         3        36     9      180.000000        8.539482         2    ;  uncertainty k = 0.302304
         5         4         3        36     9        0.000000        0.791090         3    ;  uncertainty k = 0.302726
         5         4         3        36     9      180.000000        0.996026         4    ;  uncertainty k = 0.177952
         5         4         6         7     9        0.000000       -0.049880         1    ;  uncertainty k = 0.257804
         5         4         6         7     9      180.000000       12.651867         2    ;  uncertainty k = 0.408916
         5         4         6         7     9        0.000000        1.531328         3    ;  uncertainty k = 0.260601
         5         4         6         7     9      180.000000        1.472262         4    ;  uncertainty k = 0.165252
         5         4         6        37     9        0.000000       -0.415350         1    ;  uncertainty k = 0.228614
         5         4         6        37     9      180.000000        9.086428         2    ;  uncertainty k = 0.377298
         5         4         6        37     9        0.000000        0.802704         3    ;  uncertainty k = 0.232487
         5         4         6        37     9      180.000000        1.043252         4    ;  uncertainty k = 0.211577
         6         4         3        36     9        0.000000        0.130307         1    ;  uncertainty k = 0.144655
         6         4         3        36     9      180.000000        5.532843         2    ;  uncertainty k = 0.680369
         6         4         3        36     9        0.000000        1.265321         3    ;  uncertainty k = 0.294958
         6         4         3        36     9      180.000000        1.481410         4    ;  uncertainty k = 0.077611
         6         7         8        38     9        0.000000        0.218088         1    ;  uncertainty k = 0.243952
         6         7         8        38     9      180.000000        6.917737         2    ;  uncertainty k = 0.583901
         6         7         8        38     9        0.000000        1.463818         3    ;  uncertainty k = 0.217536
         6         7         8        38     9      180.000000        1.686541         4    ;  uncertainty k = 0.256320
         6         7         9        10     9        0.000000        0.577113         1    ;  uncertainty k = 0.839214
         6         7         9        10     9      180.000000        4.374001         2    ;  uncertainty k = 0.259898
         6         7         9        10     9        0.000000        0.310715         3    ;  uncertainty k = 0.200157
         6         7         9        10     9      180.000000       -0.034774         4    ;  uncertainty k = 0.102004
         6         7         9        35     9        0.000000        0.063922         1    ;  uncertainty k = 0.802333
         6         7         9        35     9      180.000000        3.869396         2    ;  uncertainty k = 0.175766
         6         7         9        35     9        0.000000        0.641555         3    ;  uncertainty k = 0.157662
         6         7         9        35     9      180.000000       -0.162970         4    ;  uncertainty k = 0.081803
         7         9        10        11     9        0.000000       -0.043172         1    ;  uncertainty k = 0.548352
         7         9        10        11     9      180.000000       25.753062         2    ;  uncertainty k = 0.233338
         7         9        10        11     9        0.000000        2.942378         3    ;  uncertainty k = 0.125640
         7         9        10        11     9      180.000000        0.686554         4    ;  uncertainty k = 0.574271
         7         9        35        34     9        0.000000        0.540598         1    ;  uncertainty k = 0.803543
         7         9        35        34     9      180.000000        4.601494         2    ;  uncertainty k = 0.981891
         7         9        35        34     9        0.000000        0.716169         3    ;  uncertainty k = 0.328634
         7         9        35        34     9      180.000000        0.575742         4    ;  uncertainty k = 0.279114
         7         9        35        61     9        0.000000       -0.583861         1    ;  uncertainty k = 1.092915
         7         9        35        61     9      180.000000        5.200621         2    ;  uncertainty k = 0.384920
         7         9        35        61     9        0.000000        1.054483         3    ;  uncertainty k = 0.197088
         7         9        35        61     9      180.000000        0.361604         4    ;  uncertainty k = 0.155457
         8         2         3        36     9        0.000000        0.130307         1    ;  uncertainty k = 0.144655
         8         2         3        36     9      180.000000        5.532843         2    ;  uncertainty k = 0.680369
         8         2         3        36     9        0.000000        1.265321         3    ;  uncertainty k = 0.294958
         8         2         3        36     9      180.000000        1.481410         4    ;  uncertainty k = 0.077611
         8         7         6        37     9        0.000000        0.218088         1    ;  uncertainty k = 0.243952
         8         7         6        37     9      180.000000        6.917737         2    ;  uncertainty k = 0.583901
         8         7         6        37     9        0.000000        1.463818         3    ;  uncertainty k = 0.217536
         8         7         6        37     9      180.000000        1.686541         4    ;  uncertainty k = 0.256320
         8         7         9        10     9        0.000000        0.577113         1    ;  uncertainty k = 0.839214
         8         7         9        10     9      180.000000        4.374001         2    ;  uncertainty k = 0.259898
         8         7         9        10     9        0.000000        0.310715         3    ;  uncertainty k = 0.200157
         8         7         9        10     9      180.000000       -0.034774         4    ;  uncertainty k = 0.102004
         8         7         9        35     9        0.000000        0.063922         1    ;  uncertainty k = 0.802333
         8         7         9        35     9      180.000000        3.869396         2    ;  uncertainty k = 0.175766
         8         7         9        35     9        0.000000        0.641555         3    ;  uncertainty k = 0.157662
         8         7         9        35     9      180.000000       -0.162970         4    ;  uncertainty k = 0.081803
         9         7         6        37     9        0.000000       -0.174783         1    ;  uncertainty k = 0.349607
         9         7         6        37     9      180.000000        7.187870         2    ;  uncertainty k = 0.358633
         9         7         6        37     9        0.000000        0.677750         3    ;  uncertainty k = 0.291506
         9         7         6        37     9      180.000000        1.081331         4    ;  uncertainty k = 0.227152
         9         7         8        38     9        0.000000       -0.174783         1    ;  uncertainty k = 0.349607
         9         7         8        38     9      180.000000        7.187870         2    ;  uncertainty k = 0.358633
         9         7         8        38     9        0.000000        0.677750         3    ;  uncertainty k = 0.291506
         9         7         8        38     9      180.000000        1.081331         4    ;  uncertainty k = 0.227152
         9        10        11        12     9        0.000000       -0.883013         1    ;  uncertainty k = 4.130763
         9        10        11        12     9      180.000000       12.873682         2    ;  uncertainty k = 0.835773
         9        10        11        12     9        0.000000        1.816017         3    ;  uncertainty k = 0.967456
         9        10        11        12     9      180.000000        0.130732         4    ;  uncertainty k = 0.447645
         9        10        11        32     9        0.000000        3.891953         1    ;  uncertainty k = 2.526568
         9        10        11        32     9      180.000000        4.735668         2    ;  uncertainty k = 1.364247
         9        10        11        32     9        0.000000        1.841466         3    ;  uncertainty k = 0.687600
         9        10        11        32     9      180.000000        0.376448         4    ;  uncertainty k = 0.594894
         9        35        34        32     9        0.000000       -0.247893         1    ;  uncertainty k = 0.726731
         9        35        34        32     9      180.000000       17.791946         2    ;  uncertainty k = 0.335372
         9        35        34        32     9        0.000000        0.675075         3    ;  uncertainty k = 0.419223
         9        35        34        32     9      180.000000        0.996300         4    ;  uncertainty k = 0.368799
         9        35        34        60     9        0.000000       -0.353358         1    ;  uncertainty k = 0.789415
         9        35        34        60     9      180.000000       16.620936         2    ;  uncertainty k = 0.655546
         9        35        34        60     9        0.000000        1.944681         3    ;  uncertainty k = 0.309790
         9        35        34        60     9      180.000000        1.162896         4    ;  uncertainty k = 0.587297
        10         9        35        34     9        0.000000        0.352014         1    ;  uncertainty k = 1.410780
        10         9        35        34     9      180.000000        4.437854         2    ;  uncertainty k = 0.753048
        10         9        35        34     9        0.000000        0.213422         3    ;  uncertainty k = 0.453701
        10         9        35        34     9      180.000000        0.599744         4    ;  uncertainty k = 0.185202
        10         9        35        61     9        0.000000       -0.968929         1    ;  uncertainty k = 0.799758
        10         9        35        61     9      180.000000        4.602263         2    ;  uncertainty k = 0.838958
        10         9        35        61     9        0.000000        0.753727         3    ;  uncertainty k = 0.438991
        10         9        35        61     9      180.000000        0.503348         4    ;  uncertainty k = 0.169976
        10        11        12        13     9        0.000000        0.213657         1    ;  uncertainty k = 0.643387
        10        11        12        13     9      180.000000       -0.034757         2    ;  uncertainty k = 0.433130
        10        11        12        13     9        0.000000        0.775484         3    ;  uncertainty k = 0.335918
        10        11        12        13     9      180.000000        0.196087         4    ;  uncertainty k = 0.079432
        10        11        12        39     9        0.000000        0.384343         1    ;  uncertainty k = 0.533563
        10        11        12        39     9      180.000000        1.171207         2    ;  uncertainty k = 0.401916
        10        11        12        39     9        0.000000        0.582809         3    ;  uncertainty k = 0.073617
        10        11        12        39     9      180.000000        0.242043         4    ;  uncertainty k = 0.128011
        10        11        12        40     9        0.000000        0.384343         1    ;  uncertainty k = 0.533563
        10        11        12        40     9      180.000000        1.171207         2    ;  uncertainty k = 0.401916
        10        11        12        40     9        0.000000        0.582809         3    ;  uncertainty k = 0.073617
        10        11        12        40     9      180.000000        0.242043         4    ;  uncertainty k = 0.128011
        10        11        32        33     9        0.000000        2.605130         1    ;  uncertainty k = 1.172599
        10        11        32        33     9      180.000000       10.822444         2    ;  uncertainty k = 0.452983
        10        11        32        33     9        0.000000        1.231348         3    ;  uncertainty k = 0.502015
        10        11        32        33     9      180.000000       -0.281985         4    ;  uncertainty k = 0.368205
        10        11        32        34     9        0.000000        2.898928         1    ;  uncertainty k = 2.397586
        10        11        32        34     9      180.000000        2.029916         2    ;  uncertainty k = 0.771882
        10        11        32        34     9        0.000000        1.223009         3    ;  uncertainty k = 0.519453
        10        11        32        34     9      180.000000        0.577304         4    ;  uncertainty k = 0.261783
        11        10         9        35     9        0.000000        0.188392         1    ;  uncertainty k = 0.780217
        11        10         9        35     9      180.000000       24.687753         2    ;  uncertainty k = 0.176802
        11        10         9        35     9        0.000000        1.985801         3    ;  uncertainty k = 0.563903
        11        10         9        35     9      180.000000        0.690133         4    ;  uncertainty k = 0.279420
        11        12        13        14     9        0.000000        1.836254         1    ;  uncertainty k = 0.824466
        11        12        13        14     9      180.000000        2.325637         2    ;  uncertainty k = 0.303280
        11        12        13        14     9        0.000000        0.608226         3    ;  uncertainty k = 0.123113
        11        12        13        14     9      180.000000        0.109860         4    ;  uncertainty k = 0.055471
        11        12        13        31     9        0.000000        1.458656         1    ;  uncertainty k = 0.920543
        11        12        13        31     9      180.000000        2.435980         2    ;  uncertainty k = 0.374262
        11        12        13        31     9        0.000000        0.622421         3    ;  uncertainty k = 0.171188
        11        12        13        31     9      180.000000        0.099314         4    ;  uncertainty k = 0.111846
        11        32        34        35     9        0.000000        0.419279         1    ;  uncertainty k = 2.274476
        11        32        34        35     9      180.000000        1.605235         2    ;  uncertainty k = 0.697546
        11        32        34        35     9        0.000000       -0.163994         3    ;  uncertainty k = 0.200173
        11        32        34        35     9      180.000000        0.325528         4    ;  uncertainty k = 0.077907
        11        32        34        60     9        0.000000       -1.120181         1    ;  uncertainty k = 2.456074
        11        32        34        60     9      180.000000        2.364370         2    ;  uncertainty k = 0.329357
        11        32        34        60     9        0.000000        0.459245         3    ;  uncertainty k = 0.206810
        11        32        34        60     9      180.000000        0.273913         4    ;  uncertainty k = 0.151694
        12        11        32        33     9        0.000000        0.933003         1    ;  uncertainty k = 1.275895
        12        11        32        33     9      180.000000       11.755138         2    ;  uncertainty k = 0.388002
        12        11        32        33     9        0.000000        0.655499         3    ;  uncertainty k = 0.128149
        12        11        32        33     9      180.000000       -0.185635         4    ;  uncertainty k = 0.344316
        12        11        32        34     9        0.000000        0.642342         1    ;  uncertainty k = 1.105842
        12        11        32        34     9      180.000000        7.717695         2    ;  uncertainty k = 0.353809
        12        11        32        34     9        0.000000        1.753360         3    ;  uncertainty k = 0.395672
        12        11        32        34     9      180.000000       -0.226969         4    ;  uncertainty k = 0.311365
        12        13        14        15     9        0.000000        0.210126         1    ;  uncertainty k = 0.215011
        12        13        14        15     9      180.000000        9.761302         2    ;  uncertainty k = 0.589647
        12        13        14        15     9        0.000000        1.300307         3    ;  uncertainty k = 0.330587
        12        13        14        15     9      180.000000        1.786170         4    ;  uncertainty k = 0.244823
        12        13        14        41     9        0.000000       -0.025819         1    ;  uncertainty k = 0.285179
        12        13        14        41     9      180.000000        7.522388         2    ;  uncertainty k = 0.270151
        12        13        14        41     9        0.000000        0.619495         3    ;  uncertainty k = 0.277884
        12        13        14        41     9      180.000000        1.015298         4    ;  uncertainty k = 0.197767
        12        13        31        17     9        0.000000       -0.038400         1    ;  uncertainty k = 0.244750
        12        13        31        17     9      180.000000        9.661109         2    ;  uncertainty k = 0.587839
        12        13        31        17     9        0.000000        1.415434         3    ;  uncertainty k = 0.218087
        12        13        31        17     9      180.000000        1.779770         4    ;  uncertainty k = 0.338952
        12        13        31        59     9        0.000000       -0.055956         1    ;  uncertainty k = 0.223102
        12        13        31        59     9      180.000000        7.832168         2    ;  uncertainty k = 0.279774
        12        13        31        59     9        0.000000        0.560745         3    ;  uncertainty k = 0.284575
        12        13        31        59     9      180.000000        1.062391         4    ;  uncertainty k = 0.127439
        13        12        11        32     9        0.000000        1.515073         1    ;  uncertainty k = 0.548571
        13        12        11        32     9      180.000000        0.052635         2    ;  uncertainty k = 0.186938
        13        12        11        32     9        0.000000        0.176477         3    ;  uncertainty k = 0.225488
        13        12        11        32     9      180.000000        0.260304         4    ;  uncertainty k = 0.125182
        13        14        15        16     9        0.000000       -0.214213         1    ;  uncertainty k = 0.125754
        13        14        15        16     9      180.000000       14.120850         2    ;  uncertainty k = 0.457234
        13        14        15        16     9        0.000000       -1.065439         3    ;  uncertainty k = 0.377531
        13        14        15        16     9      180.000000        0.671542         4    ;  uncertainty k = 0.254726
        13        14        15        42     9        0.000000        0.016581         1    ;  uncertainty k = 0.222152
        13        14        15        42     9      180.000000        7.432107         2    ;  uncertainty k = 0.440638
        13        14        15        42     9        0.000000        1.347616         3    ;  uncertainty k = 0.218066
        13        14        15        42     9      180.000000        1.724727         4    ;  uncertainty k = 0.135960
        13        31        17        16     9        0.000000       -0.036521         1    ;  uncertainty k = 0.127665
        13        31        17        16     9      180.000000        8.885113         2    ;  uncertainty k = 0.490801
        13        31        17        16     9        0.000000        0.120816         3    ;  uncertainty k = 0.259068
        13        31        17        16     9      180.000000        1.286895         4    ;  uncertainty k = 0.266579
        13        31        17        18     9        0.000000        0.000289         1    ;  uncertainty k = 0.192850
        13        31        17        18     9      180.000000       10.294688         2    ;  uncertainty k = 0.502851
        13        31        17        18     9        0.000000        1.181242         3    ;  uncertainty k = 0.412067
        13        31        17        18     9      180.000000        1.683165         4    ;  uncertainty k = 0.279692
        14        13        12        39     9        0.000000       -0.584742         1    ;  uncertainty k = 0.281896
        14        13        12        39     9      180.000000        2.026334         2    ;  uncertainty k = 0.152854
        14        13        12        39     9        0.000000        0.497942         3    ;  uncertainty k = 0.040362
        14        13        12        39     9      180.000000        0.150395         4    ;  uncertainty k = 0.040544
        14        13        12        40     9        0.000000       -0.584742         1    ;  uncertainty k = 0.281896
        14        13        12        40     9      180.000000        2.026334         2    ;  uncertainty k = 0.152854
        14        13        12        40     9        0.000000        0.497942         3    ;  uncertainty k = 0.040362
        14        13        12        40     9      180.000000        0.150395         4    ;  uncertainty k = 0.040544
        14        13        31        17     9        0.000000       -0.365465         1    ;  uncertainty k = 0.138735
        14        13        31        17     9      180.000000       12.105865         2    ;  uncertainty k = 0.340421
        14        13        31        17     9        0.000000       -0.249559         3    ;  uncertainty k = 0.264223
        14        13        31        17     9      180.000000        0.898483         4    ;  uncertainty k = 0.363792
        14        13        31        59     9        0.000000        0.233112         1    ;  uncertainty k = 0.115857
        14        13        31        59     9      180.000000        7.838869         2    ;  uncertainty k = 0.562398
        14        13        31        59     9        0.000000        1.429930         3    ;  uncertainty k = 0.361199
        14        13        31        59     9      180.000000        1.671002         4    ;  uncertainty k = 0.144231
        14        15        16        17     9        0.000000       -0.233246         1    ;  uncertainty k = 0.247170
        14        15        16        17     9      180.000000       14.235957         2    ;  uncertainty k = 0.154210
        14        15        16        17     9        0.000000       -0.849909         3    ;  uncertainty k = 0.363332
        14        15        16        17     9      180.000000        0.754478         4    ;  uncertainty k = 0.236492
        14        15        16        43     9        0.000000        0.051402         1    ;  uncertainty k = 0.049411
        14        15        16        43     9      180.000000        7.968768         2    ;  uncertainty k = 0.369168
        14        15        16        43     9        0.000000        1.455926         3    ;  uncertainty k = 0.282645
        14        15        16        43     9      180.000000        1.863727         4    ;  uncertainty k = 0.229372
        15        14        13        31     9        0.000000       -0.241515         1    ;  uncertainty k = 0.159644
        15        14        13        31     9      180.000000       12.307712         2    ;  uncertainty k = 0.439249
        15        14        13        31     9        0.000000       -0.637035         3    ;  uncertainty k = 0.308993
        15        14        13        31     9      180.000000        0.749611         4    ;  uncertainty k = 0.374826
        15        16        17        18     9        0.000000        0.063854         1    ;  uncertainty k = 0.280689
        15        16        17        18     9      180.000000       10.253824         2    ;  uncertainty k = 0.581909
        15        16        17        18     9        0.000000        1.078668         3    ;  uncertainty k = 0.402797
        15        16        17        18     9      180.000000        1.686097         4    ;  uncertainty k = 0.286724
        15        16        17        31     9        0.000000       -0.132183         1    ;  uncertainty k = 0.166343
        15        16        17        31     9      180.000000        9.694269         2    ;  uncertainty k = 0.368234
        15        16        17        31     9        0.000000       -0.123175         3    ;  uncertainty k = 0.110614
        15        16        17        31     9      180.000000        1.178931         4    ;  uncertainty k = 0.251672
        16        15        14        41     9        0.000000        0.083888         1    ;  uncertainty k = 0.201425
        16        15        14        41     9      180.000000        7.881366         2    ;  uncertainty k = 0.386825
        16        15        14        41     9        0.000000        1.402035         3    ;  uncertainty k = 0.296255
        16        15        14        41     9      180.000000        1.800265         4    ;  uncertainty k = 0.151511
        16        17        18        19     9        0.000000        1.157379         1    ;  uncertainty k = 0.657067
        16        17        18        19     9      180.000000        3.860023         2    ;  uncertainty k = 0.070506
        16        17        18        19     9        0.000000        0.894317         3    ;  uncertainty k = 0.057370
        16        17        18        19     9      180.000000        0.273009         4    ;  uncertainty k = 0.047670
        16        17        18        44     9        0.000000        0.849414         1    ;  uncertainty k = 0.684932
        16        17        18        44     9      180.000000        3.526449         2    ;  uncertainty k = 0.180576
        16        17        18        44     9        0.000000        0.785569         3    ;  uncertainty k = 0.091359
        16        17        18        44     9      180.000000        0.333015         4    ;  uncertainty k = 0.078858
        16        17        31        59     9        0.000000        0.314196         1    ;  uncertainty k = 0.489459
        16        17        31        59     9      180.000000        6.970949         2    ;  uncertainty k = 0.549918
        16        17        31        59     9        0.000000        1.368943         3    ;  uncertainty k = 0.283180
        16        17        31        59     9      180.000000        1.552615         4    ;  uncertainty k = 0.142345
        17        16        15        42     9        0.000000       -0.046695         1    ;  uncertainty k = 0.153625
        17        16        15        42     9      180.000000        7.994589         2    ;  uncertainty k = 0.480593
        17        16        15        42     9        0.000000        1.316534         3    ;  uncertainty k = 0.244315
        17        16        15        42     9      180.000000        1.659829         4    ;  uncertainty k = 0.101881
        17        18        19        20     9        0.000000        4.667218         1    ;  uncertainty k = 1.263955
        17        18        19        20     9      180.000000       12.197287         2    ;  uncertainty k = 0.200599
        17        18        19        20     9        0.000000        0.753975         3    ;  uncertainty k = 0.197393
        17        18        19        20     9      180.000000       -0.956852         4    ;  uncertainty k = 0.126148
        17        18        19        21     9        0.000000        5.011440         1    ;  uncertainty k = 1.445825
        17        18        19        21     9      180.000000        9.116745         2    ;  uncertainty k = 0.741179
        17        18        19        21     9        0.000000        1.812831         3    ;  uncertainty k = 0.466977
        17        18        19        21     9      180.000000       -0.398846         4    ;  uncertainty k = 0.300036
        18        17        16        43     9        0.000000       -0.143785         1    ;  uncertainty k = 0.216337
        18        17        16        43     9      180.000000        8.021171         2    ;  uncertainty k = 0.326898
        18        17        16        43     9        0.000000        0.839061         3    ;  uncertainty k = 0.284763
        18        17        16        43     9      180.000000        1.171641         4    ;  uncertainty k = 0.163651
        18        17        31        59     9        0.000000       -0.072597         1    ;  uncertainty k = 0.159574
        18        17        31        59     9      180.000000        8.254414         2    ;  uncertainty k = 0.404030
        18        17        31        59     9        0.000000        0.817632         3    ;  uncertainty k = 0.261542
        18        17        31        59     9      180.000000        1.190426         4    ;  uncertainty k = 0.147526
        18        19        21        22     9        0.000000        3.793754         1    ;  uncertainty k = 1.114753
        18        19        21        22     9      180.000000        8.983713         2    ;  uncertainty k = 0.158125
        18        19        21        22     9        0.000000        0.724710         3    ;  uncertainty k = 0.402624
        18        19        21        22     9      180.000000        0.263035         4    ;  uncertainty k = 0.137509
        19        18        17        31     9        0.000000        1.032937         1    ;  uncertainty k = 0.756227
        19        18        17        31     9      180.000000        4.020398         2    ;  uncertainty k = 0.142947
        19        18        17        31     9        0.000000        0.824540         3    ;  uncertainty k = 0.117848
        19        18        17        31     9      180.000000        0.280213         4    ;  uncertainty k = 0.070364
        19        21        22        23     9        0.000000       -0.492312         1    ;  uncertainty k = 0.329368
        19        21        22        23     9      180.000000        2.031045         2    ;  uncertainty k = 0.299627
        19        21        22        23     9        0.000000       -0.520965         3    ;  uncertainty k = 0.333734
        19        21        22        23     9      180.000000        0.813983         4    ;  uncertainty k = 0.193340
        19        21        22        45     9        0.000000        4.795456         1    ;  uncertainty k = 0.412154
        19        21        22        45     9      180.000000        0.492563         2    ;  uncertainty k = 0.204881
        19        21        22        45     9        0.000000        0.005121         3    ;  uncertainty k = 0.064308
        19        21        22        45     9      180.000000        0.463072         4    ;  uncertainty k = 0.118237
        19        21        22        46     9        0.000000        4.795456         1    ;  uncertainty k = 0.412154
        19        21        22        46     9      180.000000        0.492563         2    ;  uncertainty k = 0.204881
        19        21        22        46     9        0.000000        0.005121         3    ;  uncertainty k = 0.064308
        19        21        22        46     9      180.000000        0.463072         4    ;  uncertainty k = 0.118237
        20        19        18        44     9        0.000000        2.812642         1    ;  uncertainty k = 0.596005
        20        19        18        44     9      180.000000       14.024605         2    ;  uncertainty k = 0.261486
        20        19        18        44     9        0.000000        1.739270         3    ;  uncertainty k = 0.315015
        20        19        18        44     9      180.000000       -0.383905         4    ;  uncertainty k = 0.250923
        20        19        21        22     9        0.000000        5.864230         1    ;  uncertainty k = 0.964797
        20        19        21        22     9      180.000000       11.195802         2    ;  uncertainty k = 0.201223
        20        19        21        22     9        0.000000        0.667108         3    ;  uncertainty k = 0.343846
        20        19        21        22     9      180.000000        0.286514         4    ;  uncertainty k = 0.202566
        21        19        18        44     9        0.000000        2.399865         1    ;  uncertainty k = 1.080095
        21        19        18        44     9      180.000000        7.986484         2    ;  uncertainty k = 0.458089
        21        19        18        44     9        0.000000        1.666177         3    ;  uncertainty k = 0.260837
        21        19        18        44     9      180.000000       -0.025478         4    ;  uncertainty k = 0.313747
        21        22        23        24     9        0.000000       -2.407024         1    ;  uncertainty k = 0.608836
        21        22        23        24     9      180.000000       -3.274317         2    ;  uncertainty k = 0.256189
        21        22        23        24     9        0.000000        2.009601         3    ;  uncertainty k = 0.253572
        21        22        23        24     9      180.000000       -0.518400         4    ;  uncertainty k = 0.185501
        21        22        23        47     9        0.000000        0.490514         1    ;  uncertainty k = 0.382780
        21        22        23        47     9      180.000000       -2.838440         2    ;  uncertainty k = 0.311972
        21        22        23        47     9        0.000000        1.177840         3    ;  uncertainty k = 0.253107
        21        22        23        47     9      180.000000        0.007420         4    ;  uncertainty k = 0.071086
        21        22        23        48     9        0.000000        0.490513         1    ;  uncertainty k = 0.382780
        21        22        23        48     9      180.000000       -2.838439         2    ;  uncertainty k = 0.311971
        21        22        23        48     9        0.000000        1.177839         3    ;  uncertainty k = 0.253106
        21        22        23        48     9      180.000000        0.007420         4    ;  uncertainty k = 0.071087
        22        23        24        25     9        0.000000       -2.917252         1    ;  uncertainty k = 1.178492
        22        23        24        25     9      180.000000       -3.371364         2    ;  uncertainty k = 0.580042
        22        23        24        25     9        0.000000        1.829780         3    ;  uncertainty k = 0.333030
        22        23        24        25     9      180.000000       -0.295658         4    ;  uncertainty k = 0.285557
        22        23        24        49     9        0.000000       -1.500535         1    ;  uncertainty k = 0.685904
        22        23        24        49     9      180.000000        0.009793         2    ;  uncertainty k = 0.439940
        22        23        24        49     9        0.000000        0.842144         3    ;  uncertainty k = 0.123333
        22        23        24        49     9      180.000000       -0.321960         4    ;  uncertainty k = 0.130388
        22        23        24        50     9        0.000000       -1.500535         1    ;  uncertainty k = 0.685904
        22        23        24        50     9      180.000000        0.009793         2    ;  uncertainty k = 0.439940
        22        23        24        50     9        0.000000        0.842144         3    ;  uncertainty k = 0.123333
        22        23        24        50     9      180.000000       -0.321960         4    ;  uncertainty k = 0.130388
        23        24        25        26     9        0.000000       -1.742942         1    ;  uncertainty k = 0.552423
        23        24        25        26     9      180.000000        0.225994         2    ;  uncertainty k = 0.453632
        23        24        25        26     9        0.000000        0.979609         3    ;  uncertainty k = 0.162130
        23        24        25        26     9      180.000000       -0.150940         4    ;  uncertainty k = 0.128964
        23        24        25        30     9        0.000000       -1.742942         1    ;  uncertainty k = 0.552423
        23        24        25        30     9      180.000000        0.225994         2    ;  uncertainty k = 0.453632
        23        24        25        30     9        0.000000        0.979609         3    ;  uncertainty k = 0.162130
        23        24        25        30     9      180.000000       -0.150940         4    ;  uncertainty k = 0.128964
        23        24        25        62     9        0.000000       -1.100104         1    ;  uncertainty k = 0.864943
        23        24        25        62     9      180.000000       -0.225137         2    ;  uncertainty k = 0.364187
        23        24        25        62     9        0.000000        0.495161         3    ;  uncertainty k = 0.196298
        23        24        25        62     9      180.000000       -0.112649         4    ;  uncertainty k = 0.055948
        24        23        22        45     9        0.000000       -2.170926         1    ;  uncertainty k = 0.478680
        24        23        22        45     9      180.000000       -0.192208         2    ;  uncertainty k = 0.203553
        24        23        22        45     9        0.000000        0.935082         3    ;  uncertainty k = 0.106945
        24        23        22        45     9      180.000000       -0.396810         4    ;  uncertainty k = 0.146226
        24        23        22        46     9        0.000000       -2.170926         1    ;  uncertainty k = 0.478680
        24        23        22        46     9      180.000000       -0.192208         2    ;  uncertainty k = 0.203553
        24        23        22        46     9        0.000000        0.935082         3    ;  uncertainty k = 0.106945
        24        23        22        46     9      180.000000       -0.396810         4    ;  uncertainty k = 0.146226
        24        25        26        27     9        0.000000       -1.728055         1    ;  uncertainty k = 0.770927
        24        25        26        27     9      180.000000        0.277005         2    ;  uncertainty k = 0.527674
        24        25        26        27     9        0.000000        0.801181         3    ;  uncertainty k = 0.221751
        24        25        26        27     9      180.000000       -0.043110         4    ;  uncertainty k = 0.161042
        24        25        26        51     9        0.000000       -0.275364         1    ;  uncertainty k = 0.360903
        24        25        26        51     9      180.000000       -0.756502         2    ;  uncertainty k = 0.129960
        24        25        26        51     9        0.000000        0.827668         3    ;  uncertainty k = 0.117467
        24        25        26        51     9      180.000000       -0.047539         4    ;  uncertainty k = 0.106912
        24        25        26        52     9        0.000000       -0.275364         1    ;  uncertainty k = 0.360903
        24        25        26        52     9      180.000000       -0.756502         2    ;  uncertainty k = 0.129960
        24        25        26        52     9        0.000000        0.827668         3    ;  uncertainty k = 0.117467
        24        25        26        52     9      180.000000       -0.047539         4    ;  uncertainty k = 0.106912
        24        25        30        29     9        0.000000       -1.728055         1    ;  uncertainty k = 0.770927
        24        25        30        29     9      180.000000        0.277005         2    ;  uncertainty k = 0.527674
        24        25        30        29     9        0.000000        0.801181         3    ;  uncertainty k = 0.221751
        24        25        30        29     9      180.000000       -0.043110         4    ;  uncertainty k = 0.161042
        24        25        30        57     9        0.000000       -0.275364         1    ;  uncertainty k = 0.360903
        24        25        30        57     9      180.000000       -0.756502         2    ;  uncertainty k = 0.129960
        24        25        30        57     9        0.000000        0.827668         3    ;  uncertainty k = 0.117467
        24        25        30        57     9      180.000000       -0.047539         4    ;  uncertainty k = 0.106912
        24        25        30        58     9        0.000000       -0.275364         1    ;  uncertainty k = 0.360903
        24        25        30        58     9      180.000000       -0.756502         2    ;  uncertainty k = 0.129960
        24        25        30        58     9        0.000000        0.827668         3    ;  uncertainty k = 0.117467
        24        25        30        58     9      180.000000       -0.047539         4    ;  uncertainty k = 0.106912
        25        24        23        47     9        0.000000        0.698521         1    ;  uncertainty k = 0.848868
        25        24        23        47     9      180.000000       -2.349020         2    ;  uncertainty k = 0.265021
        25        24        23        47     9        0.000000        1.038597         3    ;  uncertainty k = 0.185304
        25        24        23        47     9      180.000000       -0.116769         4    ;  uncertainty k = 0.117568
        25        24        23        48     9        0.000000        0.698522         1    ;  uncertainty k = 0.848869
        25        24        23        48     9      180.000000       -2.349021         2    ;  uncertainty k = 0.265020
        25        24        23        48     9        0.000000        1.038597         3    ;  uncertainty k = 0.185305
        25        24        23        48     9      180.000000       -0.116769         4    ;  uncertainty k = 0.117567
        25        26        27        28     9        0.000000        2.052240         1    ;  uncertainty k = 1.306406
        25        26        27        28     9      180.000000       -5.322814         2    ;  uncertainty k = 0.715743
        25        26        27        28     9        0.000000        2.038654         3    ;  uncertainty k = 0.512053
        25        26        27        28     9      180.000000       -0.288085         4    ;  uncertainty k = 0.263258
        25        26        27        53     9        0.000000        2.938992         1    ;  uncertainty k = 1.852782
        25        26        27        53     9      180.000000       -3.403075         2    ;  uncertainty k = 0.908357
        25        26        27        53     9        0.000000        0.308341         3    ;  uncertainty k = 0.209999
        25        26        27        53     9      180.000000        0.219993         4    ;  uncertainty k = 0.134958
        25        26        27        54     9        0.000000        2.938992         1    ;  uncertainty k = 1.852782
        25        26        27        54     9      180.000000       -3.403075         2    ;  uncertainty k = 0.908357
        25        26        27        54     9        0.000000        0.308341         3    ;  uncertainty k = 0.209999
        25        26        27        54     9      180.000000        0.219993         4    ;  uncertainty k = 0.134958
        25        30        29        28     9        0.000000        2.052240         1    ;  uncertainty k = 1.306406
        25        30        29        28     9      180.000000       -5.322814         2    ;  uncertainty k = 0.715743
        25        30        29        28     9        0.000000        2.038654         3    ;  uncertainty k = 0.512053
        25        30        29        28     9      180.000000       -0.288085         4    ;  uncertainty k = 0.263258
        25        30        29        55     9        0.000000        2.938992         1    ;  uncertainty k = 1.852782
        25        30        29        55     9      180.000000       -3.403075         2    ;  uncertainty k = 0.908357
        25        30        29        55     9        0.000000        0.308341         3    ;  uncertainty k = 0.209999
        25        30        29        55     9      180.000000        0.219993         4    ;  uncertainty k = 0.134958
        25        30        29        56     9        0.000000        2.938992         1    ;  uncertainty k = 1.852782
        25        30        29        56     9      180.000000       -3.403075         2    ;  uncertainty k = 0.908357
        25        30        29        56     9        0.000000        0.308341         3    ;  uncertainty k = 0.209999
        25        30        29        56     9      180.000000        0.219993         4    ;  uncertainty k = 0.134958
        26        25        24        49     9        0.000000       -0.321294         1    ;  uncertainty k = 0.571808
        26        25        24        49     9      180.000000       -0.644257         2    ;  uncertainty k = 0.364882
        26        25        24        49     9        0.000000        0.897272         3    ;  uncertainty k = 0.105792
        26        25        24        49     9      180.000000       -0.034121         4    ;  uncertainty k = 0.167253
        26        25        24        50     9        0.000000       -0.321294         1    ;  uncertainty k = 0.571808
        26        25        24        50     9      180.000000       -0.644257         2    ;  uncertainty k = 0.364882
        26        25        24        50     9        0.000000        0.897272         3    ;  uncertainty k = 0.105792
        26        25        24        50     9      180.000000       -0.034121         4    ;  uncertainty k = 0.167253
        26        25        30        29     9        0.000000        0.461422         1    ;  uncertainty k = 1.244959
        26        25        30        29     9      180.000000       -0.552932         2    ;  uncertainty k = 0.718012
        26        25        30        29     9        0.000000        0.620032         3    ;  uncertainty k = 0.235125
        26        25        30        29     9      180.000000       -0.377938         4    ;  uncertainty k = 0.258278
        26        25        30        57     9        0.000000       -0.587987         1    ;  uncertainty k = 0.636547
        26        25        30        57     9      180.000000       -0.634818         2    ;  uncertainty k = 0.316597
        26        25        30        57     9        0.000000        0.463549         3    ;  uncertainty k = 0.211704
        26        25        30        57     9      180.000000       -0.044394         4    ;  uncertainty k = 0.253971
        26        25        30        58     9        0.000000       -0.587987         1    ;  uncertainty k = 0.636547
        26        25        30        58     9      180.000000       -0.634818         2    ;  uncertainty k = 0.316597
        26        25        30        58     9        0.000000        0.463549         3    ;  uncertainty k = 0.211704
        26        25        30        58     9      180.000000       -0.044394         4    ;  uncertainty k = 0.253971
        26        27        28        29     9        0.000000       -3.793580         1    ;  uncertainty k = 1.505059
        26        27        28        29     9      180.000000       -1.186968         2    ;  uncertainty k = 0.726436
        26        27        28        29     9        0.000000        0.760641         3    ;  uncertainty k = 0.316494
        26        27        28        29     9      180.000000       -0.264875         4    ;  uncertainty k = 0.311624
        27        26        25        30     9        0.000000        0.461422         1    ;  uncertainty k = 1.244959
        27        26        25        30     9      180.000000       -0.552932         2    ;  uncertainty k = 0.718012
        27        26        25        30     9        0.000000        0.620032         3    ;  uncertainty k = 0.235125
        27        26        25        30     9      180.000000       -0.377938         4    ;  uncertainty k = 0.258278
        27        26        25        62     9        0.000000        0.778914         1    ;  uncertainty k = 0.694539
        27        26        25        62     9      180.000000       -0.490427         2    ;  uncertainty k = 0.449374
        27        26        25        62     9        0.000000        0.316222         3    ;  uncertainty k = 0.226707
        27        26        25        62     9      180.000000       -0.150116         4    ;  uncertainty k = 0.113869
        27        28        29        30     9        0.000000       -3.793580         1    ;  uncertainty k = 1.505059
        27        28        29        30     9      180.000000       -1.186968         2    ;  uncertainty k = 0.726436
        27        28        29        30     9        0.000000        0.760641         3    ;  uncertainty k = 0.316494
        27        28        29        30     9      180.000000       -0.264875         4    ;  uncertainty k = 0.311624
        27        28        29        55     9        0.000000       -4.326699         1    ;  uncertainty k = 1.377398
        27        28        29        55     9      180.000000       -0.251313         2    ;  uncertainty k = 0.481292
        27        28        29        55     9        0.000000        0.787878         3    ;  uncertainty k = 0.166192
        27        28        29        55     9      180.000000       -0.399357         4    ;  uncertainty k = 0.134402
        27        28        29        56     9        0.000000       -4.326699         1    ;  uncertainty k = 1.377398
        27        28        29        56     9      180.000000       -0.251313         2    ;  uncertainty k = 0.481292
        27        28        29        56     9        0.000000        0.787878         3    ;  uncertainty k = 0.166192
        27        28        29        56     9      180.000000       -0.399357         4    ;  uncertainty k = 0.134402
        28        27        26        51     9        0.000000        0.349177         1    ;  uncertainty k = 0.741034
        28        27        26        51     9      180.000000       -0.778999         2    ;  uncertainty k = 0.542593
        28        27        26        51     9        0.000000        1.005916         3    ;  uncertainty k = 0.128390
        28        27        26        51     9      180.000000        0.031922         4    ;  uncertainty k = 0.033895
        28        27        26        52     9        0.000000        0.349177         1    ;  uncertainty k = 0.741034
        28        27        26        52     9      180.000000       -0.778999         2    ;  uncertainty k = 0.542593
        28        27        26        52     9        0.000000        1.005916         3    ;  uncertainty k = 0.128390
        28        27        26        52     9      180.000000        0.031922         4    ;  uncertainty k = 0.033895
        28        29        30        57     9        0.000000        0.349177         1    ;  uncertainty k = 0.741034
        28        29        30        57     9      180.000000       -0.778999         2    ;  uncertainty k = 0.542593
        28        29        30        57     9        0.000000        1.005916         3    ;  uncertainty k = 0.128390
        28        29        30        57     9      180.000000        0.031922         4    ;  uncertainty k = 0.033895
        28        29        30        58     9        0.000000        0.349177         1    ;  uncertainty k = 0.741034
        28        29        30        58     9      180.000000       -0.778999         2    ;  uncertainty k = 0.542593
        28        29        30        58     9        0.000000        1.005916         3    ;  uncertainty k = 0.128390
        28        29        30        58     9      180.000000        0.031922         4    ;  uncertainty k = 0.033895
        29        28        27        53     9        0.000000       -4.326699         1    ;  uncertainty k = 1.377398
        29        28        27        53     9      180.000000       -0.251313         2    ;  uncertainty k = 0.481292
        29        28        27        53     9        0.000000        0.787878         3    ;  uncertainty k = 0.166192
        29        28        27        53     9      180.000000       -0.399357         4    ;  uncertainty k = 0.134402
        29        28        27        54     9        0.000000       -4.326699         1    ;  uncertainty k = 1.377398
        29        28        27        54     9      180.000000       -0.251313         2    ;  uncertainty k = 0.481292
        29        28        27        54     9        0.000000        0.787878         3    ;  uncertainty k = 0.166192
        29        28        27        54     9      180.000000       -0.399357         4    ;  uncertainty k = 0.134402
        29        30        25        62     9        0.000000        0.778914         1    ;  uncertainty k = 0.694539
        29        30        25        62     9      180.000000       -0.490427         2    ;  uncertainty k = 0.449374
        29        30        25        62     9        0.000000        0.316222         3    ;  uncertainty k = 0.226707
        29        30        25        62     9      180.000000       -0.150116         4    ;  uncertainty k = 0.113869
        30        25        24        49     9        0.000000       -0.321294         1    ;  uncertainty k = 0.571808
        30        25        24        49     9      180.000000       -0.644257         2    ;  uncertainty k = 0.364882
        30        25        24        49     9        0.000000        0.897272         3    ;  uncertainty k = 0.105792
        30        25        24        49     9      180.000000       -0.034121         4    ;  uncertainty k = 0.167253
        30        25        24        50     9        0.000000       -0.321294         1    ;  uncertainty k = 0.571808
        30        25        24        50     9      180.000000       -0.644257         2    ;  uncertainty k = 0.364882
        30        25        24        50     9        0.000000        0.897272         3    ;  uncertainty k = 0.105792
        30        25        24        50     9      180.000000       -0.034121         4    ;  uncertainty k = 0.167253
        30        25        26        51     9        0.000000       -0.587987         1    ;  uncertainty k = 0.636547
        30        25        26        51     9      180.000000       -0.634818         2    ;  uncertainty k = 0.316597
        30        25        26        51     9        0.000000        0.463549         3    ;  uncertainty k = 0.211704
        30        25        26        51     9      180.000000       -0.044394         4    ;  uncertainty k = 0.253971
        30        25        26        52     9        0.000000       -0.587987         1    ;  uncertainty k = 0.636547
        30        25        26        52     9      180.000000       -0.634818         2    ;  uncertainty k = 0.316597
        30        25        26        52     9        0.000000        0.463549         3    ;  uncertainty k = 0.211704
        30        25        26        52     9      180.000000       -0.044394         4    ;  uncertainty k = 0.253971
        31        13        12        39     9        0.000000       -0.322548         1    ;  uncertainty k = 0.325145
        31        13        12        39     9      180.000000        1.883980         2    ;  uncertainty k = 0.185701
        31        13        12        39     9        0.000000        0.463714         3    ;  uncertainty k = 0.103731
        31        13        12        39     9      180.000000        0.146633         4    ;  uncertainty k = 0.049440
        31        13        12        40     9        0.000000       -0.322548         1    ;  uncertainty k = 0.325145
        31        13        12        40     9      180.000000        1.883980         2    ;  uncertainty k = 0.185701
        31        13        12        40     9        0.000000        0.463714         3    ;  uncertainty k = 0.103731
        31        13        12        40     9      180.000000        0.146633         4    ;  uncertainty k = 0.049440
        31        13        14        41     9        0.000000        0.160353         1    ;  uncertainty k = 0.386813
        31        13        14        41     9      180.000000        7.316652         2    ;  uncertainty k = 0.721939
        31        13        14        41     9        0.000000        1.412530         3    ;  uncertainty k = 0.351295
        31        13        14        41     9      180.000000        1.652942         4    ;  uncertainty k = 0.158232
        31        17        16        43     9        0.000000        0.113809         1    ;  uncertainty k = 0.344538
        31        17        16        43     9      180.000000        6.819609         2    ;  uncertainty k = 0.586546
        31        17        16        43     9        0.000000        1.303009         3    ;  uncertainty k = 0.321985
        31        17        16        43     9      180.000000        1.507426         4    ;  uncertainty k = 0.173885
        31        17        18        44     9        0.000000        1.300611         1    ;  uncertainty k = 0.885117
        31        17        18        44     9      180.000000        3.525255         2    ;  uncertainty k = 0.119609
        31        17        18        44     9        0.000000        0.720445         3    ;  uncertainty k = 0.178562
        31        17        18        44     9      180.000000        0.296064         4    ;  uncertainty k = 0.055572
        32        11        12        39     9        0.000000       -0.478630         1    ;  uncertainty k = 0.533396
        32        11        12        39     9      180.000000        1.254729         2    ;  uncertainty k = 0.272602
        32        11        12        39     9        0.000000        0.780641         3    ;  uncertainty k = 0.056035
        32        11        12        39     9      180.000000        0.412515         4    ;  uncertainty k = 0.035759
        32        11        12        40     9        0.000000       -0.478630         1    ;  uncertainty k = 0.533396
        32        11        12        40     9      180.000000        1.254729         2    ;  uncertainty k = 0.272602
        32        11        12        40     9        0.000000        0.780641         3    ;  uncertainty k = 0.056035
        32        11        12        40     9      180.000000        0.412515         4    ;  uncertainty k = 0.035759
        32        34        35        61     9        0.000000       -0.328810         1    ;  uncertainty k = 0.661923
        32        34        35        61     9      180.000000       15.838405         2    ;  uncertainty k = 0.436274
        32        34        35        61     9        0.000000        1.792267         3    ;  uncertainty k = 0.273244
        32        34        35        61     9      180.000000        1.039596         4    ;  uncertainty k = 0.351736
        33        32        34        35     9        0.000000       -2.001815         1    ;  uncertainty k = 1.317035
        33        32        34        35     9      180.000000        3.389784         2    ;  uncertainty k = 0.746168
        33        32        34        35     9        0.000000       -0.174174         3    ;  uncertainty k = 0.227865
        33        32        34        35     9      180.000000        0.016096         4    ;  uncertainty k = 0.112369
        33        32        34        60     9        0.000000       -3.368927         1    ;  uncertainty k = 1.838219
        33        32        34        60     9      180.000000        6.946405         2    ;  uncertainty k = 0.848336
        33        32        34        60     9        0.000000        0.461531         3    ;  uncertainty k = 0.415057
        33        32        34        60     9      180.000000       -0.155191         4    ;  uncertainty k = 0.180479
        41        14        15        42     9        0.000000       -0.091169         1    ;  uncertainty k = 0.257354
        41        14        15        42     9      180.000000        7.328807         2    ;  uncertainty k = 0.293803
        41        14        15        42     9        0.000000       -0.402499         3    ;  uncertainty k = 0.279090
        41        14        15        42     9      180.000000        0.109432         4    ;  uncertainty k = 0.115410
        42        15        16        43     9        0.000000       -0.116452         1    ;  uncertainty k = 0.397728
        42        15        16        43     9      180.000000        7.721886         2    ;  uncertainty k = 0.347412
        42        15        16        43     9        0.000000       -0.447690         3    ;  uncertainty k = 0.295786
        42        15        16        43     9      180.000000        0.188936         4    ;  uncertainty k = 0.136467
        45        22        23        47     9        0.000000        0.590800         1    ;  uncertainty k = 0.272460
        45        22        23        47     9      180.000000       -0.193480         2    ;  uncertainty k = 0.259252
        45        22        23        47     9        0.000000        0.197066         3    ;  uncertainty k = 0.071435
        45        22        23        47     9      180.000000        0.038395         4    ;  uncertainty k = 0.040212
        45        22        23        48     9        0.000000        0.590801         1    ;  uncertainty k = 0.272461
        45        22        23        48     9      180.000000       -0.193479         2    ;  uncertainty k = 0.259254
        45        22        23        48     9        0.000000        0.197066         3    ;  uncertainty k = 0.071436
        45        22        23        48     9      180.000000        0.038395         4    ;  uncertainty k = 0.040212
        46        22        23        47     9        0.000000        0.590800         1    ;  uncertainty k = 0.272460
        46        22        23        47     9      180.000000       -0.193480         2    ;  uncertainty k = 0.259252
        46        22        23        47     9        0.000000        0.197066         3    ;  uncertainty k = 0.071435
        46        22        23        47     9      180.000000        0.038395         4    ;  uncertainty k = 0.040212
        46        22        23        48     9        0.000000        0.590801         1    ;  uncertainty k = 0.272461
        46        22        23        48     9      180.000000       -0.193479         2    ;  uncertainty k = 0.259254
        46        22        23        48     9        0.000000        0.197066         3    ;  uncertainty k = 0.071436
        46        22        23        48     9      180.000000        0.038395         4    ;  uncertainty k = 0.040212
        47        23        24        49     9        0.000000        0.485963         1    ;  uncertainty k = 0.376836
        47        23        24        49     9      180.000000       -0.039992         2    ;  uncertainty k = 0.446262
        47        23        24        49     9        0.000000        0.151871         3    ;  uncertainty k = 0.140218
        47        23        24        49     9      180.000000        0.019271         4    ;  uncertainty k = 0.050679
        47        23        24        50     9        0.000000        0.485963         1    ;  uncertainty k = 0.376836
        47        23        24        50     9      180.000000       -0.039992         2    ;  uncertainty k = 0.446262
        47        23        24        50     9        0.000000        0.151871         3    ;  uncertainty k = 0.140218
        47        23        24        50     9      180.000000        0.019271         4    ;  uncertainty k = 0.050679
        48        23        24        49     9        0.000000        0.485961         1    ;  uncertainty k = 0.376835
        48        23        24        49     9      180.000000       -0.039992         2    ;  uncertainty k = 0.446261
        48        23        24        49     9        0.000000        0.151871         3    ;  uncertainty k = 0.140218
        48        23        24        49     9      180.000000        0.019271         4    ;  uncertainty k = 0.050679
        48        23        24        50     9        0.000000        0.485961         1    ;  uncertainty k = 0.376835
        48        23        24        50     9      180.000000       -0.039992         2    ;  uncertainty k = 0.446261
        48        23        24        50     9        0.000000        0.151871         3    ;  uncertainty k = 0.140218
        48        23        24        50     9      180.000000        0.019271         4    ;  uncertainty k = 0.050679
        49        24        25        62     9        0.000000        0.801441         1    ;  uncertainty k = 0.657593
        49        24        25        62     9      180.000000       -0.572881         2    ;  uncertainty k = 0.259977
        49        24        25        62     9        0.000000        0.047504         3    ;  uncertainty k = 0.217620
        49        24        25        62     9      180.000000       -0.003094         4    ;  uncertainty k = 0.078047
        50        24        25        62     9        0.000000        0.801441         1    ;  uncertainty k = 0.657593
        50        24        25        62     9      180.000000       -0.572881         2    ;  uncertainty k = 0.259977
        50        24        25        62     9        0.000000        0.047504         3    ;  uncertainty k = 0.217620
        50        24        25        62     9      180.000000       -0.003094         4    ;  uncertainty k = 0.078047
        51        26        25        62     9        0.000000        0.345550         1    ;  uncertainty k = 0.452150
        51        26        25        62     9      180.000000       -0.367712         2    ;  uncertainty k = 0.213138
        51        26        25        62     9        0.000000        0.056850         3    ;  uncertainty k = 0.103873
        51        26        25        62     9      180.000000       -0.000117         4    ;  uncertainty k = 0.093618
        51        26        27        53     9        0.000000       -1.158211         1    ;  uncertainty k = 0.687931
        51        26        27        53     9      180.000000        1.176101         2    ;  uncertainty k = 0.396899
        51        26        27        53     9        0.000000        0.113886         3    ;  uncertainty k = 0.174490
        51        26        27        53     9      180.000000       -0.386127         4    ;  uncertainty k = 0.102658
        51        26        27        54     9        0.000000       -1.158211         1    ;  uncertainty k = 0.687931
        51        26        27        54     9      180.000000        1.176101         2    ;  uncertainty k = 0.396899
        51        26        27        54     9        0.000000        0.113886         3    ;  uncertainty k = 0.174490
        51        26        27        54     9      180.000000       -0.386127         4    ;  uncertainty k = 0.102658
        52        26        25        62     9        0.000000        0.345550         1    ;  uncertainty k = 0.452150
        52        26        25        62     9      180.000000       -0.367712         2    ;  uncertainty k = 0.213138
        52        26        25        62     9        0.000000        0.056850         3    ;  uncertainty k = 0.103873
        52        26        25        62     9      180.000000       -0.000117         4    ;  uncertainty k = 0.093618
        52        26        27        53     9        0.000000       -1.158211         1    ;  uncertainty k = 0.687931
        52        26        27        53     9      180.000000        1.176101         2    ;  uncertainty k = 0.396899
        52        26        27        53     9        0.000000        0.113886         3    ;  uncertainty k = 0.174490
        52        26        27        53     9      180.000000       -0.386127         4    ;  uncertainty k = 0.102658
        52        26        27        54     9        0.000000       -1.158211         1    ;  uncertainty k = 0.687931
        52        26        27        54     9      180.000000        1.176101         2    ;  uncertainty k = 0.396899
        52        26        27        54     9        0.000000        0.113886         3    ;  uncertainty k = 0.174490
        52        26        27        54     9      180.000000       -0.386127         4    ;  uncertainty k = 0.102658
        55        29        30        57     9        0.000000       -1.158211         1    ;  uncertainty k = 0.687931
        55        29        30        57     9      180.000000        1.176101         2    ;  uncertainty k = 0.396899
        55        29        30        57     9        0.000000        0.113886         3    ;  uncertainty k = 0.174490
        55        29        30        57     9      180.000000       -0.386127         4    ;  uncertainty k = 0.102658
        55        29        30        58     9        0.000000       -1.158211         1    ;  uncertainty k = 0.687931
        55        29        30        58     9      180.000000        1.176101         2    ;  uncertainty k = 0.396899
        55        29        30        58     9        0.000000        0.113886         3    ;  uncertainty k = 0.174490
        55        29        30        58     9      180.000000       -0.386127         4    ;  uncertainty k = 0.102658
        56        29        30        57     9        0.000000       -1.158211         1    ;  uncertainty k = 0.687931
        56        29        30        57     9      180.000000        1.176101         2    ;  uncertainty k = 0.396899
        56        29        30        57     9        0.000000        0.113886         3    ;  uncertainty k = 0.174490
        56        29        30        57     9      180.000000       -0.386127         4    ;  uncertainty k = 0.102658
        56        29        30        58     9        0.000000       -1.158211         1    ;  uncertainty k = 0.687931
        56        29        30        58     9      180.000000        1.176101         2    ;  uncertainty k = 0.396899
        56        29        30        58     9        0.000000        0.113886         3    ;  uncertainty k = 0.174490
        56        29        30        58     9      180.000000       -0.386127         4    ;  uncertainty k = 0.102658
        57        30        25        62     9        0.000000        0.345550         1    ;  uncertainty k = 0.452150
        57        30        25        62     9      180.000000       -0.367712         2    ;  uncertainty k = 0.213138
        57        30        25        62     9        0.000000        0.056850         3    ;  uncertainty k = 0.103873
        57        30        25        62     9      180.000000       -0.000117         4    ;  uncertainty k = 0.093618
        58        30        25        62     9        0.000000        0.345550         1    ;  uncertainty k = 0.452150
        58        30        25        62     9      180.000000       -0.367712         2    ;  uncertainty k = 0.213138
        58        30        25        62     9        0.000000        0.056850         3    ;  uncertainty k = 0.103873
        58        30        25        62     9      180.000000       -0.000117         4    ;  uncertainty k = 0.093618
        60        34        35        61     9        0.000000       -0.308548         1    ;  uncertainty k = 0.397503
        60        34        35        61     9      180.000000       12.289340         2    ;  uncertainty k = 0.583478
        60        34        35        61     9        0.000000        1.036027         3    ;  uncertainty k = 0.400451
        60        34        35        61     9      180.000000        0.764719         4    ;  uncertainty k = 0.591319

[ dihedrals ] ; impropers
;       ai        aj        ak        al funct           phase               k        pn
         2         1         3         8     4      180.000000       17.764894         2    ;  uncertainty k = 0.031615
         2         3         8         1     4      180.000000       17.764894         2    ;  uncertainty k = 0.031615
         2         8         1         3     4      180.000000       17.764894         2    ;  uncertainty k = 0.031615
         3         2         4        36     4      180.000000        1.216897         2    ;  uncertainty k = 0.080609
         3         4        36         2     4      180.000000        1.216897         2    ;  uncertainty k = 0.080609
         3        36         2         4     4      180.000000        1.216897         2    ;  uncertainty k = 0.080609
         4         3         5         6     4      180.000000       17.764894         2    ;  uncertainty k = 0.031615
         4         5         6         3     4      180.000000       17.764894         2    ;  uncertainty k = 0.031615
         4         6         3         5     4      180.000000       17.764894         2    ;  uncertainty k = 0.031615
         6         4         7        37     4      180.000000        2.108085         2    ;  uncertainty k = 0.256058
         6         7        37         4     4      180.000000        2.108085         2    ;  uncertainty k = 0.256058
         6        37         4         7     4      180.000000        2.108085         2    ;  uncertainty k = 0.256058
         7         6         8         9     4      180.000000       12.665953         2    ;  uncertainty k = 0.077151
         7         8         9         6     4      180.000000       12.665953         2    ;  uncertainty k = 0.077151
         7         9         6         8     4      180.000000       12.665953         2    ;  uncertainty k = 0.077151
         8         2         7        38     4      180.000000        2.108085         2    ;  uncertainty k = 0.256058
         8         7        38         2     4      180.000000        2.108085         2    ;  uncertainty k = 0.256058
         8        38         2         7     4      180.000000        2.108085         2    ;  uncertainty k = 0.256058
         9         7        10        35     4      180.000000       17.338875         2    ;  uncertainty k = 0.107858
         9        10        35         7     4      180.000000       17.338875         2    ;  uncertainty k = 0.107858
         9        35         7        10     4      180.000000       17.338875         2    ;  uncertainty k = 0.107858
        11        10        12        32     4      180.000000        4.921548         2    ;  uncertainty k = 0.604527
        11        12        32        10     4      180.000000        4.921548         2    ;  uncertainty k = 0.604527
        11        32        10        12     4      180.000000        4.921548         2    ;  uncertainty k = 0.604527
        13        12        14        31     4      180.000000       12.454093         2    ;  uncertainty k = 0.028088
        13        14        31        12     4      180.000000       12.454093         2    ;  uncertainty k = 0.028088
        13        31        12        14     4      180.000000       12.454093         2    ;  uncertainty k = 0.028088
        14        13        15        41     4      180.000000        3.430480         2    ;  uncertainty k = 0.178267
        14        15        41        13     4      180.000000        3.430480         2    ;  uncertainty k = 0.178267
        14        41        13        15     4      180.000000        3.430480         2    ;  uncertainty k = 0.178267
        15        14        16        42     4      180.000000        4.377042         2    ;  uncertainty k = 0.148396
        15        16        42        14     4      180.000000        4.377042         2    ;  uncertainty k = 0.148396
        15        42        14        16     4      180.000000        4.377042         2    ;  uncertainty k = 0.148396
        16        15        17        43     4      180.000000        3.102975         2    ;  uncertainty k = 0.177303
        16        17        43        15     4      180.000000        3.102975         2    ;  uncertainty k = 0.177303
        16        43        15        17     4      180.000000        3.102975         2    ;  uncertainty k = 0.177303
        17        16        18        31     4      180.000000       18.062483         2    ;  uncertainty k = 0.140251
        17        18        31        16     4      180.000000       18.062483         2    ;  uncertainty k = 0.140251
        17        31        16        18     4      180.000000       18.062483         2    ;  uncertainty k = 0.140251
        18        17        19        44     4      180.000000        0.650065         2    ;  uncertainty k = 0.833106
        18        19        44        17     4      180.000000        0.650065         2    ;  uncertainty k = 0.833106
        18        44        17        19     4      180.000000        0.650065         2    ;  uncertainty k = 0.833106
        19        18        20        21     4      180.000000       59.844003         2    ;  uncertainty k = 0.031353
        19        20        21        18     4      180.000000       59.844003         2    ;  uncertainty k = 0.031353
        19        21        18        20     4      180.000000       59.844003         2    ;  uncertainty k = 0.031353
        31        13        17        59     4      180.000000        4.047648         2    ;  uncertainty k = 0.286594
        31        17        59        13     4      180.000000        4.047648         2    ;  uncertainty k = 0.286594
        31        59        13        17     4      180.000000        4.047648         2    ;  uncertainty k = 0.286594
        32        11        33        34     4      180.000000       49.481395         2    ;  uncertainty k = 0.023227
        32        33        34        11     4      180.000000       49.481395         2    ;  uncertainty k = 0.023227
        32        34        11        33     4      180.000000       49.481395         2    ;  uncertainty k = 0.023227
        34        32        35        60     4      180.000000        3.715533         2    ;  uncertainty k = 0.270487
        34        35        60        32     4      180.000000        3.715533         2    ;  uncertainty k = 0.270487
        34        60        32        35     4      180.000000        3.715533         2    ;  uncertainty k = 0.270487
        35         9        34        61     4      180.000000        6.632122         2    ;  uncertainty k = 0.364367
        35        34        61         9     4      180.000000        6.632122         2    ;  uncertainty k = 0.364367
        35        61         9        34     4      180.000000        6.632122         2    ;  uncertainty k = 0.364367

[ pairs ]
;       ai        aj funct
         1         4     1
         1         7     1
         1        36     1
         1        38     1
         2         5     1
         2         6     1
         2         9     1
         3         7     1
         3        37     1
         3        38     1
         4         8     1
         4         9     1
         5         7     1
         5        36     1
         5        37     1
         6        10     1
         6        35     1
         6        36     1
         6        38     1
         7        11     1
         7        34     1
         7        61     1
         8        10     1
         8        35     1
         8        36     1
         8        37     1
         9        12     1
         9        32     1
         9        37     1
         9        38     1
         9        60     1
        10        13     1
        10        33     1
        10        34     1
        10        39     1
        10        40     1
        10        61     1
        11        14     1
        11        31     1
        11        35     1
        11        60     1
        12        15     1
        12        17     1
        12        33     1
        12        34     1
        12        41     1
        12        59     1
        13        16     1
        13        18     1
        13        32     1
        13        42     1
        14        17     1
        14        39     1
        14        40     1
        14        43     1
        14        59     1
        15        18     1
        15        31     1
        16        19     1
        16        41     1
        16        44     1
        16        59     1
        17        20     1
        17        21     1
        17        42     1
        18        22     1
        18        43     1
        18        59     1
        19        23     1
        19        31     1
        19        45     1
        19        46     1
        20        22     1
        20        44     1
        21        24     1
        21        44     1
        21        47     1
        21        48     1
        22        25     1
        22        49     1
        22        50     1
        23        26     1
        23        30     1
        23        62     1
        24        27     1
        24        29     1
        24        45     1
        24        46     1
        24        51     1
        24        52     1
        24        57     1
        24        58     1
        25        28     1
        25        47     1
        25        48     1
        25        53     1
        25        54     1
        25        55     1
        25        56     1
        26        29     1
        26        49     1
        26        50     1
        26        57     1
        26        58     1
        27        30     1
        27        55     1
        27        56     1
        27        62     1
        28        51     1
        28        52     1
        28        57     1
        28        58     1
        29        53     1
        29        54     1
        29        62     1
        30        49     1
        30        50     1
        30        51     1
        30        52     1
        31        39     1
        31        40     1
        31        41     1
        31        43     1
        31        44     1
        32        39     1
        32        40     1
        32        61     1
        33        35     1
        33        60     1
        41        42     1
        42        43     1
        45        47     1
        45        48     1
        46        47     1
        46        48     1
        47        49     1
        47        50     1
        48        49     1
        48        50     1
        49        62     1
        50        62     1
        51        53     1
        51        54     1
        51        62     1
        52        53     1
        52        54     1
        52        62     1
        55        57     1
        55        58     1
        56        57     1
        56        58     1
        57        62     1
        58        62     1
        60        61     1
