; ITP file created by ByteFF-joint-25, 2026-02-17 09:11:23.150335

[ atomtypes ]
;name           bonded.type        at.num        mass        charge   ptype           sigma         epsilon
 c0bf                                   6      0.0000       0.00000       A     3.39769e-01     4.50558e-01    ;  uncertainty sigma = 0.000008, epsilon = 0.001195
 n1bf                                   7      0.0000       0.00000       A     2.58863e-01     1.06534e+01    ;  uncertainty sigma = 0.000096, epsilon = 0.001146
 c2bf                                   6      0.0000       0.00000       A     3.39769e-01     4.50558e-01    ;  uncertainty sigma = 0.000008, epsilon = 0.001195
 c3bf                                   6      0.0000       0.00000       A     3.39768e-01     4.50946e-01    ;  uncertainty sigma = 0.000013, epsilon = 0.001376
 c4bf                                   6      0.0000       0.00000       A     3.39755e-01     4.51204e-01    ;  uncertainty sigma = 0.000039, epsilon = 0.001307
 c5bf                                   6      0.0000       0.00000       A     3.39793e-01     4.50720e-01    ;  uncertainty sigma = 0.000013, epsilon = 0.000683
 o6bf                                   8      0.0000       0.00000       A     3.15578e-01     3.05203e-01    ;  uncertainty sigma = 0.000040, epsilon = 0.001719
 c7bf                                   6      0.0000       0.00000       A     3.31535e-01     4.12560e-01    ;  uncertainty sigma = 0.000021, epsilon = 0.001024
 o8bf                                   8      0.0000       0.00000       A     3.04835e-01     6.12187e-01    ;  uncertainty sigma = 0.000025, epsilon = 0.001323
 n9bf                                   7      0.0000       0.00000       A     3.26998e-01     4.91952e-01    ;  uncertainty sigma = 0.000012, epsilon = 0.000974
 c10bf                                  6      0.0000       0.00000       A     3.31547e-01     4.13146e-01    ;  uncertainty sigma = 0.000011, epsilon = 0.000757
 c11bf                                  6      0.0000       0.00000       A     3.31525e-01     4.13386e-01    ;  uncertainty sigma = 0.000005, epsilon = 0.000506
 c12bf                                  6      0.0000       0.00000       A     3.31520e-01     4.13558e-01    ;  uncertainty sigma = 0.000002, epsilon = 0.000530
 c13bf                                  6      0.0000       0.00000       A     3.31519e-01     4.13271e-01    ;  uncertainty sigma = 0.000004, epsilon = 0.000519
 c14bf                                  6      0.0000       0.00000       A     3.31505e-01     4.13446e-01    ;  uncertainty sigma = 0.000007, epsilon = 0.000287
 c15bf                                  6      0.0000       0.00000       A     3.39767e-01     4.50444e-01    ;  uncertainty sigma = 0.000009, epsilon = 0.000434
 n16bf                                  7      0.0000       0.00000       A     3.18130e-01     6.84059e-01    ;  uncertainty sigma = 0.000031, epsilon = 0.002260
 n17bf                                  7      0.0000       0.00000       A     3.38449e-01     3.94403e-01    ;  uncertainty sigma = 0.000019, epsilon = 0.001004
 c18bf                                  6      0.0000       0.00000       A     3.31498e-01     4.13397e-01    ;  uncertainty sigma = 0.000033, epsilon = 0.001041
 c19bf                                  6      0.0000       0.00000       A     3.31517e-01     4.13271e-01    ;  uncertainty sigma = 0.000015, epsilon = 0.000991
 c20bf                                  6      0.0000       0.00000       A     3.31479e-01     4.13326e-01    ;  uncertainty sigma = 0.000018, epsilon = 0.001521
 c21bf                                  6      0.0000       0.00000       A     3.31546e-01     4.13945e-01    ;  uncertainty sigma = 0.000006, epsilon = 0.001637
 o22bf                                  8      0.0000       0.00000       A     3.04802e-01     6.12255e-01    ;  uncertainty sigma = 0.000021, epsilon = 0.001274
 c23bf                                  6      0.0000       0.00000       A     3.31515e-01     4.13249e-01    ;  uncertainty sigma = 0.000015, epsilon = 0.000665
 c24bf                                  6      0.0000       0.00000       A     3.31520e-01     4.13570e-01    ;  uncertainty sigma = 0.000012, epsilon = 0.000687
 c25bf                                  6      0.0000       0.00000       A     3.31510e-01     4.13332e-01    ;  uncertainty sigma = 0.000009, epsilon = 0.000445
 f26bf                                  9      0.0000       0.00000       A     3.03433e-01     3.47910e-01    ;  uncertainty sigma = 0.000006, epsilon = 0.000761
 c27bf                                  6      0.0000       0.00000       A     3.31522e-01     4.13593e-01    ;  uncertainty sigma = 0.000007, epsilon = 0.000737
 c28bf                                  6      0.0000       0.00000       A     3.31510e-01     4.13332e-01    ;  uncertainty sigma = 0.000009, epsilon = 0.000445
 f29bf                                  9      0.0000       0.00000       A     3.03433e-01     3.47910e-01    ;  uncertainty sigma = 0.000006, epsilon = 0.000762
 c30bf                                  6      0.0000       0.00000       A     3.31520e-01     4.13570e-01    ;  uncertainty sigma = 0.000012, epsilon = 0.000687
 c31bf                                  6      0.0000       0.00000       A     3.31516e-01     4.13520e-01    ;  uncertainty sigma = 0.000006, epsilon = 0.000564
 h32bf                                  1      0.0000       0.00000       A     1.88754e-01     8.64620e-02    ;  uncertainty sigma = 0.000044, epsilon = 0.000601
 h33bf                                  1      0.0000       0.00000       A     1.88754e-01     8.64620e-02    ;  uncertainty sigma = 0.000044, epsilon = 0.000601
 h34bf                                  1      0.0000       0.00000       A     1.88754e-01     8.64620e-02    ;  uncertainty sigma = 0.000044, epsilon = 0.000601
 h35bf                                  1      0.0000       0.00000       A     1.88754e-01     8.64620e-02    ;  uncertainty sigma = 0.000044, epsilon = 0.000601
 h36bf                                  1      0.0000       0.00000       A     1.88754e-01     8.64620e-02    ;  uncertainty sigma = 0.000044, epsilon = 0.000601
 h37bf                                  1      0.0000       0.00000       A     1.88754e-01     8.64620e-02    ;  uncertainty sigma = 0.000044, epsilon = 0.000601
 h38bf                                  1      0.0000       0.00000       A     1.88742e-01     8.62334e-02    ;  uncertainty sigma = 0.000053, epsilon = 0.001073
 h39bf                                  1      0.0000       0.00000       A     1.88742e-01     8.62334e-02    ;  uncertainty sigma = 0.000053, epsilon = 0.001073
 h40bf                                  1      0.0000       0.00000       A     2.60095e-01     8.65006e-02    ;  uncertainty sigma = 0.000048, epsilon = 0.000537
 h41bf                                  1      0.0000       0.00000       A     2.60095e-01     8.65006e-02    ;  uncertainty sigma = 0.000048, epsilon = 0.000537
 h42bf                                  1      0.0000       0.00000       A     2.42248e-01     8.67405e-02    ;  uncertainty sigma = 0.000045, epsilon = 0.001040
 h43bf                                  1      0.0000       0.00000       A     2.42248e-01     8.67404e-02    ;  uncertainty sigma = 0.000045, epsilon = 0.001040
 h44bf                                  1      0.0000       0.00000       A     1.10628e-01     4.13106e-02    ;  uncertainty sigma = 0.000153, epsilon = 0.000442
 h45bf                                  1      0.0000       0.00000       A     2.62558e-01     6.70547e-02    ;  uncertainty sigma = 0.000013, epsilon = 0.000515
 h46bf                                  1      0.0000       0.00000       A     2.62562e-01     6.69924e-02    ;  uncertainty sigma = 0.000011, epsilon = 0.000440
 h47bf                                  1      0.0000       0.00000       A     2.62563e-01     6.70957e-02    ;  uncertainty sigma = 0.000006, epsilon = 0.000591
 h48bf                                  1      0.0000       0.00000       A     2.42236e-01     8.69097e-02    ;  uncertainty sigma = 0.000033, epsilon = 0.000580
 h49bf                                  1      0.0000       0.00000       A     2.42236e-01     8.69097e-02    ;  uncertainty sigma = 0.000033, epsilon = 0.000580
 h50bf                                  1      0.0000       0.00000       A     2.62549e-01     6.67404e-02    ;  uncertainty sigma = 0.000015, epsilon = 0.000444
 h51bf                                  1      0.0000       0.00000       A     2.62519e-01     6.70320e-02    ;  uncertainty sigma = 0.000024, epsilon = 0.000745
 h52bf                                  1      0.0000       0.00000       A     2.62551e-01     6.70389e-02    ;  uncertainty sigma = 0.000014, epsilon = 0.000667
 h53bf                                  1      0.0000       0.00000       A     2.62567e-01     6.73686e-02    ;  uncertainty sigma = 0.000010, epsilon = 0.000382
 h54bf                                  1      0.0000       0.00000       A     2.62551e-01     6.70389e-02    ;  uncertainty sigma = 0.000014, epsilon = 0.000667
 h55bf                                  1      0.0000       0.00000       A     2.62545e-01     6.69581e-02    ;  uncertainty sigma = 0.000007, epsilon = 0.000727
 h56bf                                  1      0.0000       0.00000       A     1.10713e-01     4.17134e-02    ;  uncertainty sigma = 0.000108, epsilon = 0.000765

[ moleculetype ]
;name             nrexcl
 MOL                   3

[ atoms ]
;       nr            type      resi   res      atom      cgnr      charge          mass ; qtot
         1            c0bf         1   UNL        c0         1     0.11306       12.0110 ; qtot    0.113
         2            n1bf         1   UNL        n1         2    -0.71190       14.0070 ; qtot   -0.599
         3            c2bf         1   UNL        c2         3     0.11306       12.0110 ; qtot   -0.486
         4            c3bf         1   UNL        c3         4     0.13485       12.0110 ; qtot   -0.351
         5            c4bf         1   UNL        c4         5    -0.11185       12.0110 ; qtot   -0.463
         6            c5bf         1   UNL        c5         6     0.16235       12.0110 ; qtot   -0.300
         7            o6bf         1   UNL        o6         7    -0.43853       15.9990 ; qtot   -0.739
         8            c7bf         1   UNL        c7         8     0.76479       12.0110 ; qtot    0.026
         9            o8bf         1   UNL        o8         9    -0.56309       15.9990 ; qtot   -0.537
        10            n9bf         1   UNL        n9        10    -0.46587       14.0070 ; qtot   -1.003
        11           c10bf         1   UNL       c10        11     0.08441       12.0110 ; qtot   -0.919
        12           c11bf         1   UNL       c11        12    -0.16573       12.0110 ; qtot   -1.084
        13           c12bf         1   UNL       c12        13    -0.09971       12.0110 ; qtot   -1.184
        14           c13bf         1   UNL       c13        14    -0.13451       12.0110 ; qtot   -1.319
        15           c14bf         1   UNL       c14        15    -0.09251       12.0110 ; qtot   -1.411
        16           c15bf         1   UNL       c15        16     0.15869       12.0110 ; qtot   -1.252
        17           n16bf         1   UNL       n16        17    -0.20382       14.0070 ; qtot   -1.456
        18           n17bf         1   UNL       n17        18    -0.40752       14.0070 ; qtot   -1.864
        19           c18bf         1   UNL       c18        19     0.39145       12.0110 ; qtot   -1.472
        20           c19bf         1   UNL       c19        20    -0.16644       12.0110 ; qtot   -1.639
        21           c20bf         1   UNL       c20        21    -0.21412       12.0110 ; qtot   -1.853
        22           c21bf         1   UNL       c21        22     0.67439       12.0110 ; qtot   -1.179
        23           o22bf         1   UNL       o22        23    -0.61615       15.9990 ; qtot   -1.795
        24           c23bf         1   UNL       c23        24    -0.06971       12.0110 ; qtot   -1.864
        25           c24bf         1   UNL       c24        25    -0.15743       12.0110 ; qtot   -2.022
        26           c25bf         1   UNL       c25        26     0.15364       12.0110 ; qtot   -1.868
        27           f26bf         1   UNL       f26        27    -0.13656       18.9980 ; qtot   -2.005
        28           c27bf         1   UNL       c27        28    -0.19537       12.0110 ; qtot   -2.200
        29           c28bf         1   UNL       c28        29     0.15364       12.0110 ; qtot   -2.046
        30           f29bf         1   UNL       f29        30    -0.13656       18.9980 ; qtot   -2.183
        31           c30bf         1   UNL       c30        31    -0.15743       12.0110 ; qtot   -2.340
        32           c31bf         1   UNL       c31        32    -0.14967       12.0110 ; qtot   -2.490
        33           h32bf         1   UNL       h32        33     0.10248        1.0080 ; qtot   -2.388
        34           h33bf         1   UNL       h33        34     0.10248        1.0080 ; qtot   -2.285
        35           h34bf         1   UNL       h34        35     0.10248        1.0080 ; qtot   -2.183
        36           h35bf         1   UNL       h35        36     0.10248        1.0080 ; qtot   -2.080
        37           h36bf         1   UNL       h36        37     0.10248        1.0080 ; qtot   -1.978
        38           h37bf         1   UNL       h37        38     0.10248        1.0080 ; qtot   -1.875
        39           h38bf         1   UNL       h38        39     0.10127        1.0080 ; qtot   -1.774
        40           h39bf         1   UNL       h39        40     0.10127        1.0080 ; qtot   -1.673
        41           h40bf         1   UNL       h40        41     0.08629        1.0080 ; qtot   -1.586
        42           h41bf         1   UNL       h41        42     0.08629        1.0080 ; qtot   -1.500
        43           h42bf         1   UNL       h42        43     0.07477        1.0080 ; qtot   -1.425
        44           h43bf         1   UNL       h43        44     0.07477        1.0080 ; qtot   -1.351
        45           h44bf         1   UNL       h44        45     0.33729        1.0080 ; qtot   -1.013
        46           h45bf         1   UNL       h45        46     0.14950        1.0080 ; qtot   -0.864
        47           h46bf         1   UNL       h46        47     0.13294        1.0080 ; qtot   -0.731
        48           h47bf         1   UNL       h47        48     0.14021        1.0080 ; qtot   -0.591
        49           h48bf         1   UNL       h48        49     0.08056        1.0080 ; qtot   -0.510
        50           h49bf         1   UNL       h49        50     0.08056        1.0080 ; qtot   -0.430
        51           h50bf         1   UNL       h50        51     0.15224        1.0080 ; qtot   -0.277
        52           h51bf         1   UNL       h51        52     0.16763        1.0080 ; qtot   -0.110
        53           h52bf         1   UNL       h52        53     0.16641        1.0080 ; qtot    0.057
        54           h53bf         1   UNL       h53        54     0.17223        1.0080 ; qtot    0.229
        55           h54bf         1   UNL       h54        55     0.16641        1.0080 ; qtot    0.395
        56           h55bf         1   UNL       h55        56     0.15209        1.0080 ; qtot    0.547
        57           h56bf         1   UNL       h56        57     0.45254        1.0080 ; qtot    1.000

[ bonds ]
;       ai        aj funct               r               k
         1         2     1        0.150391   206968.363086    ;  uncertainty r = 0.000046, k = 15.575453
         1        33     1        0.108982   314172.586426    ;  uncertainty r = 0.000020, k = 1.327852
         1        34     1        0.108982   314172.586426    ;  uncertainty r = 0.000020, k = 1.327852
         1        35     1        0.108982   314172.586426    ;  uncertainty r = 0.000020, k = 1.327852
         2         3     1        0.150391   206968.363086    ;  uncertainty r = 0.000046, k = 15.575453
         2         4     1        0.151896   190623.451147    ;  uncertainty r = 0.000187, k = 18.489269
         2        57     1        0.102672   380024.211035    ;  uncertainty r = 0.000103, k = 9.662741
         3        36     1        0.108982   314172.586426    ;  uncertainty r = 0.000020, k = 1.327852
         3        37     1        0.108982   314172.586426    ;  uncertainty r = 0.000020, k = 1.327852
         3        38     1        0.108982   314172.586426    ;  uncertainty r = 0.000020, k = 1.327852
         4         5     1        0.152781   203023.147827    ;  uncertainty r = 0.000058, k = 8.137994
         4        39     1        0.109093   311579.471729    ;  uncertainty r = 0.000034, k = 1.765694
         4        40     1        0.109093   311579.471729    ;  uncertainty r = 0.000034, k = 1.765694
         5         6     1        0.152752   205543.149780    ;  uncertainty r = 0.000148, k = 9.532703
         5        41     1        0.109525   311599.569434    ;  uncertainty r = 0.000032, k = 3.571391
         5        42     1        0.109525   311599.569434    ;  uncertainty r = 0.000032, k = 3.571391
         6         7     1        0.143251   235999.715137    ;  uncertainty r = 0.000111, k = 12.822357
         6        43     1        0.109332   309242.877295    ;  uncertainty r = 0.000051, k = 1.896445
         6        44     1        0.109332   309242.877295    ;  uncertainty r = 0.000051, k = 1.896423
         7         8     1        0.135673   305511.113965    ;  uncertainty r = 0.000284, k = 11.132607
         8         9     1        0.122616   644699.393066    ;  uncertainty r = 0.000039, k = 7.605595
         8        10     1        0.138131   343482.956934    ;  uncertainty r = 0.000069, k = 22.073265
        10        11     1        0.141076   333335.301318    ;  uncertainty r = 0.000105, k = 7.499574
        10        45     1        0.101866   432896.804102    ;  uncertainty r = 0.000029, k = 5.130966
        11        12     1        0.140186   352899.102051    ;  uncertainty r = 0.000034, k = 2.422065
        11        32     1        0.140069   349368.443457    ;  uncertainty r = 0.000052, k = 3.734286
        12        13     1        0.139409   370601.758252    ;  uncertainty r = 0.000025, k = 3.328321
        12        46     1        0.108704   336382.006152    ;  uncertainty r = 0.000016, k = 2.175057
        13        14     1        0.139634   368272.569580    ;  uncertainty r = 0.000034, k = 1.652810
        13        47     1        0.108798   332993.129590    ;  uncertainty r = 0.000011, k = 1.633844
        14        15     1        0.139725   354880.986035    ;  uncertainty r = 0.000047, k = 2.055301
        14        48     1        0.108829   333246.100195    ;  uncertainty r = 0.000010, k = 0.920721
        15        16     1        0.151453   228443.999512    ;  uncertainty r = 0.000025, k = 5.149704
        15        32     1        0.139364   348866.664795    ;  uncertainty r = 0.000054, k = 5.388341
        16        17     1        0.146965   226363.669971    ;  uncertainty r = 0.000065, k = 7.980746
        16        49     1        0.109290   307673.979443    ;  uncertainty r = 0.000021, k = 0.780857
        16        50     1        0.109290   307673.979443    ;  uncertainty r = 0.000021, k = 0.780857
        17        18     1        0.133719   291839.975684    ;  uncertainty r = 0.000103, k = 13.619026
        17        22     1        0.139210   287082.463281    ;  uncertainty r = 0.000112, k = 8.370610
        18        19     1        0.130260   486820.964258    ;  uncertainty r = 0.000104, k = 8.324314
        19        20     1        0.143148   246844.814746    ;  uncertainty r = 0.000136, k = 10.011203
        19        24     1        0.147088   262485.477051    ;  uncertainty r = 0.000091, k = 9.142570
        20        21     1        0.134977   481508.785840    ;  uncertainty r = 0.000047, k = 10.409223
        20        51     1        0.108783   336902.861035    ;  uncertainty r = 0.000050, k = 1.619691
        21        22     1        0.145432   272577.129785    ;  uncertainty r = 0.000089, k = 4.402721
        21        52     1        0.108708   341990.721484    ;  uncertainty r = 0.000030, k = 2.410362
        22        23     1        0.124008   735950.584180    ;  uncertainty r = 0.000059, k = 6.569249
        24        25     1        0.139863   351792.144971    ;  uncertainty r = 0.000071, k = 3.727356
        24        31     1        0.139863   351792.144971    ;  uncertainty r = 0.000071, k = 3.727335
        25        26     1        0.138801   355605.524902    ;  uncertainty r = 0.000040, k = 2.002096
        25        53     1        0.108712   335835.333252    ;  uncertainty r = 0.000032, k = 0.851157
        26        27     1        0.135275   339582.801904    ;  uncertainty r = 0.000035, k = 2.432588
        26        28     1        0.139032   365693.193848    ;  uncertainty r = 0.000026, k = 3.713232
        28        29     1        0.139032   365693.193848    ;  uncertainty r = 0.000026, k = 3.713258
        28        54     1        0.108762   339357.998730    ;  uncertainty r = 0.000015, k = 0.997642
        29        30     1        0.135275   339582.827441    ;  uncertainty r = 0.000035, k = 2.432599
        29        31     1        0.138801   355605.524902    ;  uncertainty r = 0.000040, k = 2.002129
        31        55     1        0.108712   335835.307715    ;  uncertainty r = 0.000032, k = 0.851177
        32        56     1        0.108829   333785.265186    ;  uncertainty r = 0.000052, k = 2.324969

[ angles ]
;       ai        aj        ak funct           theta             cth
         1         2         3     1      111.640198      714.699291    ;  uncertainty theta = 0.001271, k = 0.164693
         1         2         4     1      111.582054      649.296200    ;  uncertainty theta = 0.001920, k = 0.208508
         1         2        57     1      106.282303      462.351217    ;  uncertainty theta = 0.001772, k = 0.176947
         2         1        33     1      107.947853      470.857724    ;  uncertainty theta = 0.002394, k = 0.062057
         2         1        34     1      107.947853      470.857724    ;  uncertainty theta = 0.002394, k = 0.062057
         2         1        35     1      107.947853      470.857724    ;  uncertainty theta = 0.002394, k = 0.062057
         2         3        36     1      107.947853      470.857724    ;  uncertainty theta = 0.002394, k = 0.062057
         2         3        37     1      107.947853      470.857724    ;  uncertainty theta = 0.002394, k = 0.062057
         2         3        38     1      107.947853      470.857724    ;  uncertainty theta = 0.002394, k = 0.062057
         2         4         5     1      111.110435      677.242225    ;  uncertainty theta = 0.003585, k = 0.211334
         2         4        39     1      105.571762      464.256062    ;  uncertainty theta = 0.000961, k = 0.076844
         2         4        40     1      105.571762      464.256062    ;  uncertainty theta = 0.000961, k = 0.076844
         3         2         4     1      111.582054      649.296200    ;  uncertainty theta = 0.001920, k = 0.208508
         3         2        57     1      106.282303      462.351217    ;  uncertainty theta = 0.001772, k = 0.176947
         4         2        57     1      106.242310      446.535319    ;  uncertainty theta = 0.003187, k = 0.052506
         4         5         6     1      109.625488      538.239206    ;  uncertainty theta = 0.001097, k = 0.107562
         4         5        41     1      107.396484      400.865391    ;  uncertainty theta = 0.002736, k = 0.046667
         4         5        42     1      107.396484      400.865391    ;  uncertainty theta = 0.002736, k = 0.046667
         5         4        39     1      109.795776      402.025861    ;  uncertainty theta = 0.002482, k = 0.049635
         5         4        40     1      109.795776      402.025861    ;  uncertainty theta = 0.002482, k = 0.049635
         5         6         7     1      108.556114      588.952330    ;  uncertainty theta = 0.004548, k = 0.092862
         5         6        43     1      109.894211      401.892398    ;  uncertainty theta = 0.001497, k = 0.050823
         5         6        44     1      109.894211      401.892398    ;  uncertainty theta = 0.001497, k = 0.050823
         6         5        41     1      107.149193      402.466727    ;  uncertainty theta = 0.001187, k = 0.038533
         6         5        42     1      107.149193      402.466727    ;  uncertainty theta = 0.001187, k = 0.038533
         6         7         8     1      110.684410      522.456826    ;  uncertainty theta = 0.005424, k = 0.147355
         7         6        43     1      106.034561      422.094134    ;  uncertainty theta = 0.002713, k = 0.102687
         7         6        44     1      106.034561      422.094134    ;  uncertainty theta = 0.002713, k = 0.102687
         7         8         9     1      124.460983      620.482105    ;  uncertainty theta = 0.004972, k = 0.146010
         7         8        10     1      110.490623      616.499210    ;  uncertainty theta = 0.007257, k = 0.124679
         8        10        11     1      116.856888      431.155020    ;  uncertainty theta = 0.003501, k = 0.142522
         8        10        45     1      116.074951      368.010144    ;  uncertainty theta = 0.003761, k = 0.094801
         9         8        10     1      124.872360      671.300698    ;  uncertainty theta = 0.003627, k = 0.149966
        10        11        12     1      120.065506      531.641566    ;  uncertainty theta = 0.004001, k = 0.118810
        10        11        32     1      119.671364      529.186205    ;  uncertainty theta = 0.004041, k = 0.130987
        11        10        45     1      113.870056      315.075387    ;  uncertainty theta = 0.008233, k = 0.139557
        11        12        13     1      118.594276      510.018466    ;  uncertainty theta = 0.001819, k = 0.112867
        11        12        46     1      119.090187      268.230241    ;  uncertainty theta = 0.002329, k = 0.029093
        11        32        15     1      120.252426      520.259421    ;  uncertainty theta = 0.003614, k = 0.054614
        11        32        56     1      119.097778      273.854790    ;  uncertainty theta = 0.002931, k = 0.063198
        12        11        32     1      120.105507      370.063200    ;  uncertainty theta = 0.006223, k = 0.047735
        12        13        14     1      120.600754      497.371659    ;  uncertainty theta = 0.002700, k = 0.081478
        12        13        47     1      119.752975      279.519240    ;  uncertainty theta = 0.001747, k = 0.036118
        13        12        46     1      121.147278      313.787998    ;  uncertainty theta = 0.001651, k = 0.077590
        13        14        15     1      119.270897      516.501923    ;  uncertainty theta = 0.002340, k = 0.045046
        13        14        48     1      120.679565      293.795090    ;  uncertainty theta = 0.002153, k = 0.029574
        14        13        47     1      120.257736      282.073589    ;  uncertainty theta = 0.001426, k = 0.031912
        14        15        16     1      120.424866      423.871996    ;  uncertainty theta = 0.001310, k = 0.060262
        14        15        32     1      120.953552      449.928051    ;  uncertainty theta = 0.001670, k = 0.163937
        15        14        48     1      119.290146      270.091130    ;  uncertainty theta = 0.002426, k = 0.051603
        15        16        17     1      111.927551      645.672740    ;  uncertainty theta = 0.001797, k = 0.124936
        15        16        49     1      108.925598      418.083914    ;  uncertainty theta = 0.001832, k = 0.057006
        15        16        50     1      108.925598      418.083914    ;  uncertainty theta = 0.001832, k = 0.057006
        15        32        56     1      119.717880      283.192849    ;  uncertainty theta = 0.002777, k = 0.118835
        16        15        32     1      119.224709      396.563633    ;  uncertainty theta = 0.002532, k = 0.147585
        16        17        18     1      110.598839      500.139946    ;  uncertainty theta = 0.005840, k = 0.101735
        16        17        22     1      115.549644      389.321596    ;  uncertainty theta = 0.005941, k = 0.248220
        17        16        49     1      105.433105      444.170327    ;  uncertainty theta = 0.001589, k = 0.052748
        17        16        50     1      105.433105      444.170327    ;  uncertainty theta = 0.001589, k = 0.052748
        17        18        19     1      119.599083      506.750546    ;  uncertainty theta = 0.009383, k = 0.233462
        17        22        21     1      111.385658      354.543852    ;  uncertainty theta = 0.004876, k = 0.498398
        17        22        23     1      122.027390      653.228724    ;  uncertainty theta = 0.001797, k = 0.051888
        18        17        22     1      124.130821      552.011816    ;  uncertainty theta = 0.006513, k = 0.232378
        18        19        20     1      126.192650      534.970839    ;  uncertainty theta = 0.003715, k = 0.203915
        18        19        24     1      116.228676      442.181529    ;  uncertainty theta = 0.006577, k = 0.257503
        19        20        21     1      119.137741      483.732417    ;  uncertainty theta = 0.004425, k = 0.316234
        19        20        51     1      118.496231      262.252068    ;  uncertainty theta = 0.005672, k = 0.058663
        19        24        25     1      118.724350      391.877126    ;  uncertainty theta = 0.002727, k = 0.206133
        19        24        31     1      118.724350      391.877094    ;  uncertainty theta = 0.002727, k = 0.206133
        20        19        24     1      120.406021      386.651563    ;  uncertainty theta = 0.002392, k = 0.102654
        20        21        22     1      119.665359      523.118907    ;  uncertainty theta = 0.005349, k = 0.100266
        20        21        52     1      123.138992      265.275997    ;  uncertainty theta = 0.005028, k = 0.152927
        21        20        51     1      122.361343      282.774455    ;  uncertainty theta = 0.005531, k = 0.167097
        21        22        23     1      127.351967      536.919129    ;  uncertainty theta = 0.003562, k = 0.161864
        22        21        52     1      117.583885      254.681432    ;  uncertainty theta = 0.006644, k = 0.184684
        24        25        26     1      118.720169      498.330993    ;  uncertainty theta = 0.002325, k = 0.126937
        24        25        53     1      120.100601      263.055497    ;  uncertainty theta = 0.002410, k = 0.043472
        24        31        29     1      118.720169      498.330993    ;  uncertainty theta = 0.002325, k = 0.126938
        24        31        55     1      120.100601      263.055497    ;  uncertainty theta = 0.002410, k = 0.043473
        25        24        31     1      122.382584      431.454570    ;  uncertainty theta = 0.000960, k = 0.097327
        25        26        27     1      118.785866      507.579736    ;  uncertainty theta = 0.002109, k = 0.057206
        25        26        28     1      123.859070      366.023101    ;  uncertainty theta = 0.005134, k = 0.176821
        26        25        53     1      120.887062      288.478009    ;  uncertainty theta = 0.000717, k = 0.013022
        26        28        29     1      115.525330      473.107958    ;  uncertainty theta = 0.002651, k = 0.198626
        26        28        54     1      122.239304      279.302494    ;  uncertainty theta = 0.002821, k = 0.053520
        27        26        28     1      118.429832      503.503534    ;  uncertainty theta = 0.002161, k = 0.048153
        28        29        30     1      118.429832      503.503438    ;  uncertainty theta = 0.002161, k = 0.048154
        28        29        31     1      123.859070      366.023101    ;  uncertainty theta = 0.005134, k = 0.176822
        29        28        54     1      122.239304      279.302494    ;  uncertainty theta = 0.002821, k = 0.053520
        29        31        55     1      120.887062      288.478073    ;  uncertainty theta = 0.000717, k = 0.013022
        30        29        31     1      118.785866      507.579768    ;  uncertainty theta = 0.002109, k = 0.057206
        33         1        34     1      108.453964      318.843707    ;  uncertainty theta = 0.003157, k = 0.041407
        33         1        35     1      108.453964      318.843707    ;  uncertainty theta = 0.003157, k = 0.041407
        34         1        35     1      108.453964      318.843707    ;  uncertainty theta = 0.003157, k = 0.041407
        36         3        37     1      108.453964      318.843707    ;  uncertainty theta = 0.003157, k = 0.041407
        36         3        38     1      108.453964      318.843707    ;  uncertainty theta = 0.003157, k = 0.041407
        37         3        38     1      108.453964      318.843739    ;  uncertainty theta = 0.003157, k = 0.041407
        39         4        40     1      107.755394      320.528709    ;  uncertainty theta = 0.003998, k = 0.079848
        41         5        42     1      105.789474      325.410096    ;  uncertainty theta = 0.002374, k = 0.047208
        43         6        44     1      107.754440      331.728998    ;  uncertainty theta = 0.003994, k = 0.021826
        49        16        50     1      106.064781      312.971385    ;  uncertainty theta = 0.003438, k = 0.064673

[ dihedrals ] ; propers for gromacs 4.5 or higher, use funct 9
;       ai        aj        ak        al funct           phase               k        pn
         1         2         3        36     9        0.000000       -0.651781         1    ;  uncertainty k = 0.566291
         1         2         3        36     9      180.000000       -0.654867         2    ;  uncertainty k = 0.378370
         1         2         3        36     9        0.000000        1.225484         3    ;  uncertainty k = 0.063991
         1         2         3        36     9      180.000000       -0.019961         4    ;  uncertainty k = 0.106496
         1         2         3        37     9        0.000000       -0.651781         1    ;  uncertainty k = 0.566291
         1         2         3        37     9      180.000000       -0.654867         2    ;  uncertainty k = 0.378370
         1         2         3        37     9        0.000000        1.225484         3    ;  uncertainty k = 0.063991
         1         2         3        37     9      180.000000       -0.019961         4    ;  uncertainty k = 0.106496
         1         2         3        38     9        0.000000       -0.651781         1    ;  uncertainty k = 0.566291
         1         2         3        38     9      180.000000       -0.654867         2    ;  uncertainty k = 0.378370
         1         2         3        38     9        0.000000        1.225484         3    ;  uncertainty k = 0.063991
         1         2         3        38     9      180.000000       -0.019961         4    ;  uncertainty k = 0.106496
         1         2         4         5     9        0.000000       -1.775519         1    ;  uncertainty k = 0.598033
         1         2         4         5     9      180.000000        0.607420         2    ;  uncertainty k = 0.631635
         1         2         4         5     9        0.000000        1.172893         3    ;  uncertainty k = 0.208301
         1         2         4         5     9      180.000000       -0.148101         4    ;  uncertainty k = 0.098837
         1         2         4        39     9        0.000000       -0.460646         1    ;  uncertainty k = 0.348521
         1         2         4        39     9      180.000000       -0.394059         2    ;  uncertainty k = 0.305149
         1         2         4        39     9        0.000000        0.927633         3    ;  uncertainty k = 0.073719
         1         2         4        39     9      180.000000       -0.007406         4    ;  uncertainty k = 0.150639
         1         2         4        40     9        0.000000       -0.460646         1    ;  uncertainty k = 0.348521
         1         2         4        40     9      180.000000       -0.394059         2    ;  uncertainty k = 0.305149
         1         2         4        40     9        0.000000        0.927633         3    ;  uncertainty k = 0.073719
         1         2         4        40     9      180.000000       -0.007406         4    ;  uncertainty k = 0.150639
         2         4         5         6     9        0.000000       -3.391415         1    ;  uncertainty k = 1.308639
         2         4         5         6     9      180.000000       -3.231227         2    ;  uncertainty k = 0.414193
         2         4         5         6     9        0.000000        1.916947         3    ;  uncertainty k = 0.219650
         2         4         5         6     9      180.000000       -0.323214         4    ;  uncertainty k = 0.306374
         2         4         5        41     9        0.000000        0.506009         1    ;  uncertainty k = 0.515754
         2         4         5        41     9      180.000000       -2.426136         2    ;  uncertainty k = 0.424450
         2         4         5        41     9        0.000000        1.118820         3    ;  uncertainty k = 0.268161
         2         4         5        41     9      180.000000       -0.157241         4    ;  uncertainty k = 0.089483
         2         4         5        42     9        0.000000        0.506009         1    ;  uncertainty k = 0.515754
         2         4         5        42     9      180.000000       -2.426136         2    ;  uncertainty k = 0.424450
         2         4         5        42     9        0.000000        1.118820         3    ;  uncertainty k = 0.268161
         2         4         5        42     9      180.000000       -0.157241         4    ;  uncertainty k = 0.089483
         3         2         1        33     9        0.000000       -0.651781         1    ;  uncertainty k = 0.566291
         3         2         1        33     9      180.000000       -0.654867         2    ;  uncertainty k = 0.378370
         3         2         1        33     9        0.000000        1.225484         3    ;  uncertainty k = 0.063991
         3         2         1        33     9      180.000000       -0.019961         4    ;  uncertainty k = 0.106496
         3         2         1        34     9        0.000000       -0.651781         1    ;  uncertainty k = 0.566291
         3         2         1        34     9      180.000000       -0.654867         2    ;  uncertainty k = 0.378370
         3         2         1        34     9        0.000000        1.225484         3    ;  uncertainty k = 0.063991
         3         2         1        34     9      180.000000       -0.019961         4    ;  uncertainty k = 0.106496
         3         2         1        35     9        0.000000       -0.651781         1    ;  uncertainty k = 0.566291
         3         2         1        35     9      180.000000       -0.654867         2    ;  uncertainty k = 0.378370
         3         2         1        35     9        0.000000        1.225484         3    ;  uncertainty k = 0.063991
         3         2         1        35     9      180.000000       -0.019961         4    ;  uncertainty k = 0.106496
         3         2         4         5     9        0.000000       -1.775519         1    ;  uncertainty k = 0.598033
         3         2         4         5     9      180.000000        0.607420         2    ;  uncertainty k = 0.631635
         3         2         4         5     9        0.000000        1.172893         3    ;  uncertainty k = 0.208301
         3         2         4         5     9      180.000000       -0.148101         4    ;  uncertainty k = 0.098837
         3         2         4        39     9        0.000000       -0.460646         1    ;  uncertainty k = 0.348521
         3         2         4        39     9      180.000000       -0.394059         2    ;  uncertainty k = 0.305149
         3         2         4        39     9        0.000000        0.927633         3    ;  uncertainty k = 0.073719
         3         2         4        39     9      180.000000       -0.007406         4    ;  uncertainty k = 0.150639
         3         2         4        40     9        0.000000       -0.460646         1    ;  uncertainty k = 0.348521
         3         2         4        40     9      180.000000       -0.394059         2    ;  uncertainty k = 0.305149
         3         2         4        40     9        0.000000        0.927633         3    ;  uncertainty k = 0.073719
         3         2         4        40     9      180.000000       -0.007406         4    ;  uncertainty k = 0.150639
         4         2         1        33     9        0.000000       -0.357673         1    ;  uncertainty k = 0.629780
         4         2         1        33     9      180.000000       -1.015205         2    ;  uncertainty k = 0.339526
         4         2         1        33     9        0.000000        1.210428         3    ;  uncertainty k = 0.071935
         4         2         1        33     9      180.000000       -0.033062         4    ;  uncertainty k = 0.095635
         4         2         1        34     9        0.000000       -0.357673         1    ;  uncertainty k = 0.629780
         4         2         1        34     9      180.000000       -1.015205         2    ;  uncertainty k = 0.339526
         4         2         1        34     9        0.000000        1.210428         3    ;  uncertainty k = 0.071935
         4         2         1        34     9      180.000000       -0.033062         4    ;  uncertainty k = 0.095635
         4         2         1        35     9        0.000000       -0.357673         1    ;  uncertainty k = 0.629780
         4         2         1        35     9      180.000000       -1.015205         2    ;  uncertainty k = 0.339526
         4         2         1        35     9        0.000000        1.210428         3    ;  uncertainty k = 0.071935
         4         2         1        35     9      180.000000       -0.033062         4    ;  uncertainty k = 0.095635
         4         2         3        36     9        0.000000       -0.357673         1    ;  uncertainty k = 0.629780
         4         2         3        36     9      180.000000       -1.015205         2    ;  uncertainty k = 0.339526
         4         2         3        36     9        0.000000        1.210428         3    ;  uncertainty k = 0.071935
         4         2         3        36     9      180.000000       -0.033062         4    ;  uncertainty k = 0.095635
         4         2         3        37     9        0.000000       -0.357673         1    ;  uncertainty k = 0.629780
         4         2         3        37     9      180.000000       -1.015205         2    ;  uncertainty k = 0.339526
         4         2         3        37     9        0.000000        1.210428         3    ;  uncertainty k = 0.071935
         4         2         3        37     9      180.000000       -0.033062         4    ;  uncertainty k = 0.095635
         4         2         3        38     9        0.000000       -0.357673         1    ;  uncertainty k = 0.629780
         4         2         3        38     9      180.000000       -1.015205         2    ;  uncertainty k = 0.339526
         4         2         3        38     9        0.000000        1.210428         3    ;  uncertainty k = 0.071935
         4         2         3        38     9      180.000000       -0.033062         4    ;  uncertainty k = 0.095635
         4         5         6         7     9        0.000000       -2.580397         1    ;  uncertainty k = 0.677595
         4         5         6         7     9      180.000000       -3.294366         2    ;  uncertainty k = 0.283595
         4         5         6         7     9        0.000000        1.974442         3    ;  uncertainty k = 0.332183
         4         5         6         7     9      180.000000       -0.528267         4    ;  uncertainty k = 0.155692
         4         5         6        43     9        0.000000       -2.118482         1    ;  uncertainty k = 0.443870
         4         5         6        43     9      180.000000       -0.238924         2    ;  uncertainty k = 0.185734
         4         5         6        43     9        0.000000        0.894630         3    ;  uncertainty k = 0.093744
         4         5         6        43     9      180.000000       -0.413751         4    ;  uncertainty k = 0.146502
         4         5         6        44     9        0.000000       -2.118481         1    ;  uncertainty k = 0.443868
         4         5         6        44     9      180.000000       -0.238924         2    ;  uncertainty k = 0.185735
         4         5         6        44     9        0.000000        0.894630         3    ;  uncertainty k = 0.093745
         4         5         6        44     9      180.000000       -0.413751         4    ;  uncertainty k = 0.146502
         5         4         2        57     9        0.000000       -1.193357         1    ;  uncertainty k = 0.735371
         5         4         2        57     9      180.000000       -0.281288         2    ;  uncertainty k = 0.426105
         5         4         2        57     9        0.000000        0.440405         3    ;  uncertainty k = 0.182543
         5         4         2        57     9      180.000000       -0.146605         4    ;  uncertainty k = 0.123038
         5         6         7         8     9        0.000000       -0.569011         1    ;  uncertainty k = 0.376225
         5         6         7         8     9      180.000000        2.042872         2    ;  uncertainty k = 0.311425
         5         6         7         8     9        0.000000       -0.526361         3    ;  uncertainty k = 0.306421
         5         6         7         8     9      180.000000        0.826918         4    ;  uncertainty k = 0.217092
         6         5         4        39     9        0.000000       -1.381194         1    ;  uncertainty k = 0.699201
         6         5         4        39     9      180.000000       -0.043825         2    ;  uncertainty k = 0.328166
         6         5         4        39     9        0.000000        0.867119         3    ;  uncertainty k = 0.075077
         6         5         4        39     9      180.000000       -0.293088         4    ;  uncertainty k = 0.110301
         6         5         4        40     9        0.000000       -1.381194         1    ;  uncertainty k = 0.699201
         6         5         4        40     9      180.000000       -0.043825         2    ;  uncertainty k = 0.328166
         6         5         4        40     9        0.000000        0.867119         3    ;  uncertainty k = 0.075077
         6         5         4        40     9      180.000000       -0.293088         4    ;  uncertainty k = 0.110301
         6         7         8         9     9        0.000000        5.917380         1    ;  uncertainty k = 0.939119
         6         7         8         9     9      180.000000       11.174241         2    ;  uncertainty k = 0.200044
         6         7         8         9     9        0.000000        0.681871         3    ;  uncertainty k = 0.341791
         6         7         8         9     9      180.000000        0.283136         4    ;  uncertainty k = 0.191301
         6         7         8        10     9        0.000000        3.810788         1    ;  uncertainty k = 1.077091
         6         7         8        10     9      180.000000        8.931472         2    ;  uncertainty k = 0.160039
         6         7         8        10     9        0.000000        0.730426         3    ;  uncertainty k = 0.405577
         6         7         8        10     9      180.000000        0.262326         4    ;  uncertainty k = 0.142495
         7         6         5        41     9        0.000000        0.479212         1    ;  uncertainty k = 0.380046
         7         6         5        41     9      180.000000       -2.801456         2    ;  uncertainty k = 0.321196
         7         6         5        41     9        0.000000        1.200312         3    ;  uncertainty k = 0.273677
         7         6         5        41     9      180.000000        0.007450         4    ;  uncertainty k = 0.064575
         7         6         5        42     9        0.000000        0.479212         1    ;  uncertainty k = 0.380046
         7         6         5        42     9      180.000000       -2.801456         2    ;  uncertainty k = 0.321196
         7         6         5        42     9        0.000000        1.200312         3    ;  uncertainty k = 0.273677
         7         6         5        42     9      180.000000        0.007450         4    ;  uncertainty k = 0.064575
         7         8        10        11     9        0.000000        4.979279         1    ;  uncertainty k = 1.480931
         7         8        10        11     9      180.000000        9.130362         2    ;  uncertainty k = 0.744514
         7         8        10        11     9        0.000000        1.810589         3    ;  uncertainty k = 0.466275
         7         8        10        11     9      180.000000       -0.399321         4    ;  uncertainty k = 0.299204
         7         8        10        45     9        0.000000        2.380880         1    ;  uncertainty k = 1.062013
         7         8        10        45     9      180.000000        7.988637         2    ;  uncertainty k = 0.447360
         7         8        10        45     9        0.000000        1.665237         3    ;  uncertainty k = 0.265942
         7         8        10        45     9      180.000000       -0.023548         4    ;  uncertainty k = 0.313678
         8         7         6        43     9        0.000000        4.828172         1    ;  uncertainty k = 0.448066
         8         7         6        43     9      180.000000        0.477272         2    ;  uncertainty k = 0.245134
         8         7         6        43     9        0.000000        0.002149         3    ;  uncertainty k = 0.067404
         8         7         6        43     9      180.000000        0.463134         4    ;  uncertainty k = 0.119478
         8         7         6        44     9        0.000000        4.828173         1    ;  uncertainty k = 0.448064
         8         7         6        44     9      180.000000        0.477272         2    ;  uncertainty k = 0.245134
         8         7         6        44     9        0.000000        0.002149         3    ;  uncertainty k = 0.067404
         8         7         6        44     9      180.000000        0.463133         4    ;  uncertainty k = 0.119478
         8        10        11        12     9        0.000000        1.157378         1    ;  uncertainty k = 0.657069
         8        10        11        12     9      180.000000        3.860024         2    ;  uncertainty k = 0.070504
         8        10        11        12     9        0.000000        0.894317         3    ;  uncertainty k = 0.057369
         8        10        11        12     9      180.000000        0.273009         4    ;  uncertainty k = 0.047670
         8        10        11        32     9        0.000000        1.032938         1    ;  uncertainty k = 0.756229
         8        10        11        32     9      180.000000        4.020399         2    ;  uncertainty k = 0.142947
         8        10        11        32     9        0.000000        0.824540         3    ;  uncertainty k = 0.117847
         8        10        11        32     9      180.000000        0.280213         4    ;  uncertainty k = 0.070363
         9         8        10        11     9        0.000000        4.667222         1    ;  uncertainty k = 1.263953
         9         8        10        11     9      180.000000       12.197288         2    ;  uncertainty k = 0.200599
         9         8        10        11     9        0.000000        0.753974         3    ;  uncertainty k = 0.197394
         9         8        10        11     9      180.000000       -0.956852         4    ;  uncertainty k = 0.126147
         9         8        10        45     9        0.000000        2.812641         1    ;  uncertainty k = 0.596003
         9         8        10        45     9      180.000000       14.024607         2    ;  uncertainty k = 0.261487
         9         8        10        45     9        0.000000        1.739271         3    ;  uncertainty k = 0.315016
         9         8        10        45     9      180.000000       -0.383905         4    ;  uncertainty k = 0.250923
        10        11        12        13     9        0.000000        0.063853         1    ;  uncertainty k = 0.280690
        10        11        12        13     9      180.000000       10.253822         2    ;  uncertainty k = 0.581909
        10        11        12        13     9        0.000000        1.078668         3    ;  uncertainty k = 0.402797
        10        11        12        13     9      180.000000        1.686098         4    ;  uncertainty k = 0.286725
        10        11        12        46     9        0.000000       -0.143784         1    ;  uncertainty k = 0.216337
        10        11        12        46     9      180.000000        8.021172         2    ;  uncertainty k = 0.326898
        10        11        12        46     9        0.000000        0.839062         3    ;  uncertainty k = 0.284763
        10        11        12        46     9      180.000000        1.171640         4    ;  uncertainty k = 0.163651
        10        11        32        15     9        0.000000        0.000290         1    ;  uncertainty k = 0.192850
        10        11        32        15     9      180.000000       10.294687         2    ;  uncertainty k = 0.502851
        10        11        32        15     9        0.000000        1.181242         3    ;  uncertainty k = 0.412068
        10        11        32        15     9      180.000000        1.683166         4    ;  uncertainty k = 0.279692
        10        11        32        56     9        0.000000       -0.072597         1    ;  uncertainty k = 0.159575
        10        11        32        56     9      180.000000        8.254417         2    ;  uncertainty k = 0.404029
        10        11        32        56     9        0.000000        0.817632         3    ;  uncertainty k = 0.261543
        10        11        32        56     9      180.000000        1.190427         4    ;  uncertainty k = 0.147527
        11        12        13        14     9        0.000000       -0.233245         1    ;  uncertainty k = 0.247171
        11        12        13        14     9      180.000000       14.235955         2    ;  uncertainty k = 0.154211
        11        12        13        14     9        0.000000       -0.849909         3    ;  uncertainty k = 0.363333
        11        12        13        14     9      180.000000        0.754478         4    ;  uncertainty k = 0.236492
        11        12        13        47     9        0.000000       -0.046695         1    ;  uncertainty k = 0.153625
        11        12        13        47     9      180.000000        7.994590         2    ;  uncertainty k = 0.480593
        11        12        13        47     9        0.000000        1.316534         3    ;  uncertainty k = 0.244315
        11        12        13        47     9      180.000000        1.659830         4    ;  uncertainty k = 0.101881
        11        32        15        14     9        0.000000       -0.365465         1    ;  uncertainty k = 0.138733
        11        32        15        14     9      180.000000       12.105866         2    ;  uncertainty k = 0.340422
        11        32        15        14     9        0.000000       -0.249559         3    ;  uncertainty k = 0.264224
        11        32        15        14     9      180.000000        0.898484         4    ;  uncertainty k = 0.363792
        11        32        15        16     9        0.000000       -0.038400         1    ;  uncertainty k = 0.244752
        11        32        15        16     9      180.000000        9.661107         2    ;  uncertainty k = 0.587837
        11        32        15        16     9        0.000000        1.415434         3    ;  uncertainty k = 0.218087
        11        32        15        16     9      180.000000        1.779770         4    ;  uncertainty k = 0.338951
        12        11        10        45     9        0.000000        0.849414         1    ;  uncertainty k = 0.684931
        12        11        10        45     9      180.000000        3.526447         2    ;  uncertainty k = 0.180577
        12        11        10        45     9        0.000000        0.785569         3    ;  uncertainty k = 0.091359
        12        11        10        45     9      180.000000        0.333015         4    ;  uncertainty k = 0.078858
        12        11        32        15     9        0.000000       -0.036522         1    ;  uncertainty k = 0.127665
        12        11        32        15     9      180.000000        8.885112         2    ;  uncertainty k = 0.490802
        12        11        32        15     9        0.000000        0.120816         3    ;  uncertainty k = 0.259069
        12        11        32        15     9      180.000000        1.286895         4    ;  uncertainty k = 0.266578
        12        11        32        56     9        0.000000        0.314196         1    ;  uncertainty k = 0.489459
        12        11        32        56     9      180.000000        6.970950         2    ;  uncertainty k = 0.549918
        12        11        32        56     9        0.000000        1.368944         3    ;  uncertainty k = 0.283180
        12        11        32        56     9      180.000000        1.552615         4    ;  uncertainty k = 0.142344
        12        13        14        15     9        0.000000       -0.214211         1    ;  uncertainty k = 0.125753
        12        13        14        15     9      180.000000       14.120853         2    ;  uncertainty k = 0.457236
        12        13        14        15     9        0.000000       -1.065438         3    ;  uncertainty k = 0.377530
        12        13        14        15     9      180.000000        0.671541         4    ;  uncertainty k = 0.254726
        12        13        14        48     9        0.000000        0.083889         1    ;  uncertainty k = 0.201425
        12        13        14        48     9      180.000000        7.881367         2    ;  uncertainty k = 0.386824
        12        13        14        48     9        0.000000        1.402035         3    ;  uncertainty k = 0.296255
        12        13        14        48     9      180.000000        1.800265         4    ;  uncertainty k = 0.151512
        13        12        11        32     9        0.000000       -0.132184         1    ;  uncertainty k = 0.166343
        13        12        11        32     9      180.000000        9.694270         2    ;  uncertainty k = 0.368234
        13        12        11        32     9        0.000000       -0.123174         3    ;  uncertainty k = 0.110614
        13        12        11        32     9      180.000000        1.178931         4    ;  uncertainty k = 0.251672
        13        14        15        16     9        0.000000        0.210125         1    ;  uncertainty k = 0.215012
        13        14        15        16     9      180.000000        9.761302         2    ;  uncertainty k = 0.589647
        13        14        15        16     9        0.000000        1.300306         3    ;  uncertainty k = 0.330587
        13        14        15        16     9      180.000000        1.786170         4    ;  uncertainty k = 0.244823
        13        14        15        32     9        0.000000       -0.241516         1    ;  uncertainty k = 0.159642
        13        14        15        32     9      180.000000       12.307711         2    ;  uncertainty k = 0.439249
        13        14        15        32     9        0.000000       -0.637036         3    ;  uncertainty k = 0.308994
        13        14        15        32     9      180.000000        0.749612         4    ;  uncertainty k = 0.374826
        14        13        12        46     9        0.000000        0.051402         1    ;  uncertainty k = 0.049411
        14        13        12        46     9      180.000000        7.968770         2    ;  uncertainty k = 0.369167
        14        13        12        46     9        0.000000        1.455927         3    ;  uncertainty k = 0.282644
        14        13        12        46     9      180.000000        1.863727         4    ;  uncertainty k = 0.229372
        14        15        16        17     9        0.000000        1.836254         1    ;  uncertainty k = 0.824467
        14        15        16        17     9      180.000000        2.325637         2    ;  uncertainty k = 0.303280
        14        15        16        17     9        0.000000        0.608227         3    ;  uncertainty k = 0.123113
        14        15        16        17     9      180.000000        0.109860         4    ;  uncertainty k = 0.055470
        14        15        16        49     9        0.000000       -0.584742         1    ;  uncertainty k = 0.281895
        14        15        16        49     9      180.000000        2.026335         2    ;  uncertainty k = 0.152855
        14        15        16        49     9        0.000000        0.497942         3    ;  uncertainty k = 0.040362
        14        15        16        49     9      180.000000        0.150395         4    ;  uncertainty k = 0.040543
        14        15        16        50     9        0.000000       -0.584742         1    ;  uncertainty k = 0.281895
        14        15        16        50     9      180.000000        2.026335         2    ;  uncertainty k = 0.152855
        14        15        16        50     9        0.000000        0.497942         3    ;  uncertainty k = 0.040362
        14        15        16        50     9      180.000000        0.150395         4    ;  uncertainty k = 0.040543
        14        15        32        56     9        0.000000        0.233111         1    ;  uncertainty k = 0.115858
        14        15        32        56     9      180.000000        7.838869         2    ;  uncertainty k = 0.562397
        14        15        32        56     9        0.000000        1.429931         3    ;  uncertainty k = 0.361200
        14        15        32        56     9      180.000000        1.671000         4    ;  uncertainty k = 0.144230
        15        14        13        47     9        0.000000        0.016581         1    ;  uncertainty k = 0.222151
        15        14        13        47     9      180.000000        7.432107         2    ;  uncertainty k = 0.440638
        15        14        13        47     9        0.000000        1.347616         3    ;  uncertainty k = 0.218065
        15        14        13        47     9      180.000000        1.724727         4    ;  uncertainty k = 0.135961
        15        16        17        18     9        0.000000        0.213656         1    ;  uncertainty k = 0.643387
        15        16        17        18     9      180.000000       -0.034757         2    ;  uncertainty k = 0.433132
        15        16        17        18     9        0.000000        0.775484         3    ;  uncertainty k = 0.335920
        15        16        17        18     9      180.000000        0.196087         4    ;  uncertainty k = 0.079432
        15        16        17        22     9        0.000000        1.515072         1    ;  uncertainty k = 0.548572
        15        16        17        22     9      180.000000        0.052634         2    ;  uncertainty k = 0.186939
        15        16        17        22     9        0.000000        0.176477         3    ;  uncertainty k = 0.225488
        15        16        17        22     9      180.000000        0.260304         4    ;  uncertainty k = 0.125183
        16        15        14        48     9        0.000000       -0.025819         1    ;  uncertainty k = 0.285179
        16        15        14        48     9      180.000000        7.522389         2    ;  uncertainty k = 0.270149
        16        15        14        48     9        0.000000        0.619494         3    ;  uncertainty k = 0.277883
        16        15        14        48     9      180.000000        1.015298         4    ;  uncertainty k = 0.197767
        16        15        32        56     9        0.000000       -0.055955         1    ;  uncertainty k = 0.223101
        16        15        32        56     9      180.000000        7.832169         2    ;  uncertainty k = 0.279774
        16        15        32        56     9        0.000000        0.560744         3    ;  uncertainty k = 0.284575
        16        15        32        56     9      180.000000        1.062391         4    ;  uncertainty k = 0.127439
        16        17        18        19     9        0.000000       -0.883013         1    ;  uncertainty k = 4.130766
        16        17        18        19     9      180.000000       12.873682         2    ;  uncertainty k = 0.835773
        16        17        18        19     9        0.000000        1.816017         3    ;  uncertainty k = 0.967457
        16        17        18        19     9      180.000000        0.130732         4    ;  uncertainty k = 0.447645
        16        17        22        21     9        0.000000        0.642342         1    ;  uncertainty k = 1.105839
        16        17        22        21     9      180.000000        7.717693         2    ;  uncertainty k = 0.353810
        16        17        22        21     9        0.000000        1.753361         3    ;  uncertainty k = 0.395672
        16        17        22        21     9      180.000000       -0.226969         4    ;  uncertainty k = 0.311365
        16        17        22        23     9        0.000000        0.933001         1    ;  uncertainty k = 1.275895
        16        17        22        23     9      180.000000       11.755139         2    ;  uncertainty k = 0.388002
        16        17        22        23     9        0.000000        0.655499         3    ;  uncertainty k = 0.128148
        16        17        22        23     9      180.000000       -0.185636         4    ;  uncertainty k = 0.344316
        17        16        15        32     9        0.000000        1.458659         1    ;  uncertainty k = 0.920543
        17        16        15        32     9      180.000000        2.435979         2    ;  uncertainty k = 0.374262
        17        16        15        32     9        0.000000        0.622421         3    ;  uncertainty k = 0.171188
        17        16        15        32     9      180.000000        0.099313         4    ;  uncertainty k = 0.111846
        17        18        19        20     9        0.000000        0.188393         1    ;  uncertainty k = 0.780216
        17        18        19        20     9      180.000000       24.687753         2    ;  uncertainty k = 0.176803
        17        18        19        20     9        0.000000        1.985802         3    ;  uncertainty k = 0.563904
        17        18        19        20     9      180.000000        0.690133         4    ;  uncertainty k = 0.279420
        17        18        19        24     9        0.000000       -0.043172         1    ;  uncertainty k = 0.548350
        17        18        19        24     9      180.000000       25.753064         2    ;  uncertainty k = 0.233339
        17        18        19        24     9        0.000000        2.942378         3    ;  uncertainty k = 0.125640
        17        18        19        24     9      180.000000        0.686554         4    ;  uncertainty k = 0.574272
        17        22        21        20     9        0.000000        0.419278         1    ;  uncertainty k = 2.274473
        17        22        21        20     9      180.000000        1.605236         2    ;  uncertainty k = 0.697545
        17        22        21        20     9        0.000000       -0.163994         3    ;  uncertainty k = 0.200172
        17        22        21        20     9      180.000000        0.325528         4    ;  uncertainty k = 0.077908
        17        22        21        52     9        0.000000       -1.120179         1    ;  uncertainty k = 2.456073
        17        22        21        52     9      180.000000        2.364370         2    ;  uncertainty k = 0.329357
        17        22        21        52     9        0.000000        0.459246         3    ;  uncertainty k = 0.206811
        17        22        21        52     9      180.000000        0.273913         4    ;  uncertainty k = 0.151693
        18        17        16        49     9        0.000000        0.384342         1    ;  uncertainty k = 0.533562
        18        17        16        49     9      180.000000        1.171207         2    ;  uncertainty k = 0.401915
        18        17        16        49     9        0.000000        0.582809         3    ;  uncertainty k = 0.073617
        18        17        16        49     9      180.000000        0.242043         4    ;  uncertainty k = 0.128011
        18        17        16        50     9        0.000000        0.384342         1    ;  uncertainty k = 0.533562
        18        17        16        50     9      180.000000        1.171207         2    ;  uncertainty k = 0.401915
        18        17        16        50     9        0.000000        0.582809         3    ;  uncertainty k = 0.073617
        18        17        16        50     9      180.000000        0.242043         4    ;  uncertainty k = 0.128011
        18        17        22        21     9        0.000000        2.898929         1    ;  uncertainty k = 2.397583
        18        17        22        21     9      180.000000        2.029916         2    ;  uncertainty k = 0.771883
        18        17        22        21     9        0.000000        1.223010         3    ;  uncertainty k = 0.519452
        18        17        22        21     9      180.000000        0.577304         4    ;  uncertainty k = 0.261783
        18        17        22        23     9        0.000000        2.605133         1    ;  uncertainty k = 1.172602
        18        17        22        23     9      180.000000       10.822449         2    ;  uncertainty k = 0.452983
        18        17        22        23     9        0.000000        1.231348         3    ;  uncertainty k = 0.502016
        18        17        22        23     9      180.000000       -0.281985         4    ;  uncertainty k = 0.368205
        18        19        20        21     9        0.000000        0.352014         1    ;  uncertainty k = 1.410780
        18        19        20        21     9      180.000000        4.437856         2    ;  uncertainty k = 0.753046
        18        19        20        21     9        0.000000        0.213422         3    ;  uncertainty k = 0.453700
        18        19        20        21     9      180.000000        0.599744         4    ;  uncertainty k = 0.185202
        18        19        20        51     9        0.000000       -0.968928         1    ;  uncertainty k = 0.799755
        18        19        20        51     9      180.000000        4.602265         2    ;  uncertainty k = 0.838958
        18        19        20        51     9        0.000000        0.753727         3    ;  uncertainty k = 0.438991
        18        19        20        51     9      180.000000        0.503348         4    ;  uncertainty k = 0.169976
        18        19        24        25     9        0.000000        0.577113         1    ;  uncertainty k = 0.839214
        18        19        24        25     9      180.000000        4.374001         2    ;  uncertainty k = 0.259899
        18        19        24        25     9        0.000000        0.310715         3    ;  uncertainty k = 0.200156
        18        19        24        25     9      180.000000       -0.034774         4    ;  uncertainty k = 0.102004
        18        19        24        31     9        0.000000        0.577112         1    ;  uncertainty k = 0.839214
        18        19        24        31     9      180.000000        4.374001         2    ;  uncertainty k = 0.259898
        18        19        24        31     9        0.000000        0.310715         3    ;  uncertainty k = 0.200157
        18        19        24        31     9      180.000000       -0.034774         4    ;  uncertainty k = 0.102004
        19        18        17        22     9        0.000000        3.891956         1    ;  uncertainty k = 2.526573
        19        18        17        22     9      180.000000        4.735669         2    ;  uncertainty k = 1.364246
        19        18        17        22     9        0.000000        1.841464         3    ;  uncertainty k = 0.687599
        19        18        17        22     9      180.000000        0.376448         4    ;  uncertainty k = 0.594894
        19        20        21        22     9        0.000000       -0.247895         1    ;  uncertainty k = 0.726732
        19        20        21        22     9      180.000000       17.791948         2    ;  uncertainty k = 0.335371
        19        20        21        22     9        0.000000        0.675076         3    ;  uncertainty k = 0.419223
        19        20        21        22     9      180.000000        0.996301         4    ;  uncertainty k = 0.368800
        19        20        21        52     9        0.000000       -0.353358         1    ;  uncertainty k = 0.789416
        19        20        21        52     9      180.000000       16.620934         2    ;  uncertainty k = 0.655545
        19        20        21        52     9        0.000000        1.944682         3    ;  uncertainty k = 0.309791
        19        20        21        52     9      180.000000        1.162896         4    ;  uncertainty k = 0.587297
        19        24        25        26     9        0.000000        0.184078         1    ;  uncertainty k = 0.251452
        19        24        25        26     9      180.000000        9.064982         2    ;  uncertainty k = 0.510143
        19        24        25        26     9        0.000000        1.393257         3    ;  uncertainty k = 0.168521
        19        24        25        26     9      180.000000        1.772060         4    ;  uncertainty k = 0.162457
        19        24        25        53     9        0.000000       -0.174783         1    ;  uncertainty k = 0.349607
        19        24        25        53     9      180.000000        7.187869         2    ;  uncertainty k = 0.358632
        19        24        25        53     9        0.000000        0.677750         3    ;  uncertainty k = 0.291506
        19        24        25        53     9      180.000000        1.081331         4    ;  uncertainty k = 0.227152
        19        24        31        29     9        0.000000        0.184078         1    ;  uncertainty k = 0.251452
        19        24        31        29     9      180.000000        9.064982         2    ;  uncertainty k = 0.510143
        19        24        31        29     9        0.000000        1.393258         3    ;  uncertainty k = 0.168521
        19        24        31        29     9      180.000000        1.772060         4    ;  uncertainty k = 0.162457
        19        24        31        55     9        0.000000       -0.174783         1    ;  uncertainty k = 0.349608
        19        24        31        55     9      180.000000        7.187870         2    ;  uncertainty k = 0.358633
        19        24        31        55     9        0.000000        0.677750         3    ;  uncertainty k = 0.291506
        19        24        31        55     9      180.000000        1.081331         4    ;  uncertainty k = 0.227152
        20        19        24        25     9        0.000000        0.063923         1    ;  uncertainty k = 0.802333
        20        19        24        25     9      180.000000        3.869396         2    ;  uncertainty k = 0.175768
        20        19        24        25     9        0.000000        0.641555         3    ;  uncertainty k = 0.157661
        20        19        24        25     9      180.000000       -0.162970         4    ;  uncertainty k = 0.081803
        20        19        24        31     9        0.000000        0.063923         1    ;  uncertainty k = 0.802332
        20        19        24        31     9      180.000000        3.869397         2    ;  uncertainty k = 0.175767
        20        19        24        31     9        0.000000        0.641555         3    ;  uncertainty k = 0.157661
        20        19        24        31     9      180.000000       -0.162970         4    ;  uncertainty k = 0.081803
        20        21        22        23     9        0.000000       -2.001816         1    ;  uncertainty k = 1.317032
        20        21        22        23     9      180.000000        3.389786         2    ;  uncertainty k = 0.746169
        20        21        22        23     9        0.000000       -0.174173         3    ;  uncertainty k = 0.227865
        20        21        22        23     9      180.000000        0.016096         4    ;  uncertainty k = 0.112368
        21        20        19        24     9        0.000000        0.540598         1    ;  uncertainty k = 0.803544
        21        20        19        24     9      180.000000        4.601494         2    ;  uncertainty k = 0.981891
        21        20        19        24     9        0.000000        0.716168         3    ;  uncertainty k = 0.328634
        21        20        19        24     9      180.000000        0.575741         4    ;  uncertainty k = 0.279114
        22        17        16        49     9        0.000000       -0.478630         1    ;  uncertainty k = 0.533397
        22        17        16        49     9      180.000000        1.254728         2    ;  uncertainty k = 0.272602
        22        17        16        49     9        0.000000        0.780641         3    ;  uncertainty k = 0.056035
        22        17        16        49     9      180.000000        0.412515         4    ;  uncertainty k = 0.035759
        22        17        16        50     9        0.000000       -0.478630         1    ;  uncertainty k = 0.533397
        22        17        16        50     9      180.000000        1.254728         2    ;  uncertainty k = 0.272602
        22        17        16        50     9        0.000000        0.780641         3    ;  uncertainty k = 0.056035
        22        17        16        50     9      180.000000        0.412515         4    ;  uncertainty k = 0.035759
        22        21        20        51     9        0.000000       -0.328809         1    ;  uncertainty k = 0.661921
        22        21        20        51     9      180.000000       15.838400         2    ;  uncertainty k = 0.436273
        22        21        20        51     9        0.000000        1.792267         3    ;  uncertainty k = 0.273244
        22        21        20        51     9      180.000000        1.039596         4    ;  uncertainty k = 0.351736
        23        22        21        52     9        0.000000       -3.368927         1    ;  uncertainty k = 1.838218
        23        22        21        52     9      180.000000        6.946407         2    ;  uncertainty k = 0.848337
        23        22        21        52     9        0.000000        0.461531         3    ;  uncertainty k = 0.415057
        23        22        21        52     9      180.000000       -0.155191         4    ;  uncertainty k = 0.180479
        24        19        20        51     9        0.000000       -0.583861         1    ;  uncertainty k = 1.092916
        24        19        20        51     9      180.000000        5.200620         2    ;  uncertainty k = 0.384920
        24        19        20        51     9        0.000000        1.054483         3    ;  uncertainty k = 0.197088
        24        19        20        51     9      180.000000        0.361604         4    ;  uncertainty k = 0.155457
        24        25        26        27     9        0.000000       -0.049880         1    ;  uncertainty k = 0.257803
        24        25        26        27     9      180.000000       12.651865         2    ;  uncertainty k = 0.408916
        24        25        26        27     9        0.000000        1.531328         3    ;  uncertainty k = 0.260602
        24        25        26        27     9      180.000000        1.472262         4    ;  uncertainty k = 0.165252
        24        25        26        28     9        0.000000        0.057718         1    ;  uncertainty k = 0.164909
        24        25        26        28     9      180.000000        8.885299         2    ;  uncertainty k = 0.653771
        24        25        26        28     9        0.000000       -0.076192         3    ;  uncertainty k = 0.320383
        24        25        26        28     9      180.000000        1.240042         4    ;  uncertainty k = 0.346858
        24        31        29        28     9        0.000000        0.057717         1    ;  uncertainty k = 0.164910
        24        31        29        28     9      180.000000        8.885304         2    ;  uncertainty k = 0.653772
        24        31        29        28     9        0.000000       -0.076193         3    ;  uncertainty k = 0.320383
        24        31        29        28     9      180.000000        1.240042         4    ;  uncertainty k = 0.346859
        24        31        29        30     9        0.000000       -0.049880         1    ;  uncertainty k = 0.257802
        24        31        29        30     9      180.000000       12.651868         2    ;  uncertainty k = 0.408916
        24        31        29        30     9        0.000000        1.531328         3    ;  uncertainty k = 0.260602
        24        31        29        30     9      180.000000        1.472261         4    ;  uncertainty k = 0.165253
        25        24        31        29     9        0.000000        0.022121         1    ;  uncertainty k = 0.243825
        25        24        31        29     9      180.000000       11.046753         2    ;  uncertainty k = 0.290033
        25        24        31        29     9        0.000000       -0.498760         3    ;  uncertainty k = 0.387970
        25        24        31        29     9      180.000000        1.024180         4    ;  uncertainty k = 0.289071
        25        24        31        55     9        0.000000        0.218088         1    ;  uncertainty k = 0.243952
        25        24        31        55     9      180.000000        6.917737         2    ;  uncertainty k = 0.583903
        25        24        31        55     9        0.000000        1.463818         3    ;  uncertainty k = 0.217536
        25        24        31        55     9      180.000000        1.686540         4    ;  uncertainty k = 0.256320
        25        26        28        29     9        0.000000        0.079699         1    ;  uncertainty k = 0.154156
        25        26        28        29     9      180.000000        8.889417         2    ;  uncertainty k = 0.512493
        25        26        28        29     9        0.000000       -0.106306         3    ;  uncertainty k = 0.476973
        25        26        28        29     9      180.000000        1.234735         4    ;  uncertainty k = 0.285241
        25        26        28        54     9        0.000000        0.130306         1    ;  uncertainty k = 0.144655
        25        26        28        54     9      180.000000        5.532845         2    ;  uncertainty k = 0.680368
        25        26        28        54     9        0.000000        1.265321         3    ;  uncertainty k = 0.294957
        25        26        28        54     9      180.000000        1.481411         4    ;  uncertainty k = 0.077611
        26        25        24        31     9        0.000000        0.022121         1    ;  uncertainty k = 0.243825
        26        25        24        31     9      180.000000       11.046753         2    ;  uncertainty k = 0.290033
        26        25        24        31     9        0.000000       -0.498760         3    ;  uncertainty k = 0.387970
        26        25        24        31     9      180.000000        1.024180         4    ;  uncertainty k = 0.289072
        26        28        29        30     9        0.000000       -0.032346         1    ;  uncertainty k = 0.289698
        26        28        29        30     9      180.000000       12.548670         2    ;  uncertainty k = 0.646212
        26        28        29        30     9        0.000000        1.557435         3    ;  uncertainty k = 0.311241
        26        28        29        30     9      180.000000        1.512892         4    ;  uncertainty k = 0.296059
        26        28        29        31     9        0.000000        0.079700         1    ;  uncertainty k = 0.154156
        26        28        29        31     9      180.000000        8.889417         2    ;  uncertainty k = 0.512494
        26        28        29        31     9        0.000000       -0.106307         3    ;  uncertainty k = 0.476972
        26        28        29        31     9      180.000000        1.234735         4    ;  uncertainty k = 0.285241
        27        26        25        53     9        0.000000       -0.415350         1    ;  uncertainty k = 0.228614
        27        26        25        53     9      180.000000        9.086429         2    ;  uncertainty k = 0.377300
        27        26        25        53     9        0.000000        0.802704         3    ;  uncertainty k = 0.232487
        27        26        25        53     9      180.000000        1.043252         4    ;  uncertainty k = 0.211577
        27        26        28        29     9        0.000000       -0.032346         1    ;  uncertainty k = 0.289699
        27        26        28        29     9      180.000000       12.548670         2    ;  uncertainty k = 0.646211
        27        26        28        29     9        0.000000        1.557435         3    ;  uncertainty k = 0.311241
        27        26        28        29     9      180.000000        1.512893         4    ;  uncertainty k = 0.296059
        27        26        28        54     9        0.000000       -0.234234         1    ;  uncertainty k = 0.255324
        27        26        28        54     9      180.000000        8.539480         2    ;  uncertainty k = 0.302303
        27        26        28        54     9        0.000000        0.791090         3    ;  uncertainty k = 0.302725
        27        26        28        54     9      180.000000        0.996026         4    ;  uncertainty k = 0.177951
        28        26        25        53     9        0.000000       -0.021691         1    ;  uncertainty k = 0.235351
        28        26        25        53     9      180.000000        5.842806         2    ;  uncertainty k = 0.659902
        28        26        25        53     9        0.000000        1.305046         3    ;  uncertainty k = 0.309758
        28        26        25        53     9      180.000000        1.641078         4    ;  uncertainty k = 0.167200
        28        29        31        55     9        0.000000       -0.021691         1    ;  uncertainty k = 0.235351
        28        29        31        55     9      180.000000        5.842806         2    ;  uncertainty k = 0.659903
        28        29        31        55     9        0.000000        1.305046         3    ;  uncertainty k = 0.309757
        28        29        31        55     9      180.000000        1.641078         4    ;  uncertainty k = 0.167201
        30        29        28        54     9        0.000000       -0.234235         1    ;  uncertainty k = 0.255323
        30        29        28        54     9      180.000000        8.539483         2    ;  uncertainty k = 0.302304
        30        29        28        54     9        0.000000        0.791090         3    ;  uncertainty k = 0.302725
        30        29        28        54     9      180.000000        0.996026         4    ;  uncertainty k = 0.177951
        30        29        31        55     9        0.000000       -0.415351         1    ;  uncertainty k = 0.228614
        30        29        31        55     9      180.000000        9.086428         2    ;  uncertainty k = 0.377299
        30        29        31        55     9        0.000000        0.802704         3    ;  uncertainty k = 0.232487
        30        29        31        55     9      180.000000        1.043252         4    ;  uncertainty k = 0.211577
        31        24        25        53     9        0.000000        0.218088         1    ;  uncertainty k = 0.243952
        31        24        25        53     9      180.000000        6.917737         2    ;  uncertainty k = 0.583902
        31        24        25        53     9        0.000000        1.463818         3    ;  uncertainty k = 0.217536
        31        24        25        53     9      180.000000        1.686540         4    ;  uncertainty k = 0.256320
        31        29        28        54     9        0.000000        0.130307         1    ;  uncertainty k = 0.144655
        31        29        28        54     9      180.000000        5.532844         2    ;  uncertainty k = 0.680369
        31        29        28        54     9        0.000000        1.265320         3    ;  uncertainty k = 0.294958
        31        29        28        54     9      180.000000        1.481411         4    ;  uncertainty k = 0.077611
        32        11        10        45     9        0.000000        1.300612         1    ;  uncertainty k = 0.885114
        32        11        10        45     9      180.000000        3.525254         2    ;  uncertainty k = 0.119608
        32        11        10        45     9        0.000000        0.720445         3    ;  uncertainty k = 0.178562
        32        11        10        45     9      180.000000        0.296064         4    ;  uncertainty k = 0.055572
        32        11        12        46     9        0.000000        0.113809         1    ;  uncertainty k = 0.344539
        32        11        12        46     9      180.000000        6.819611         2    ;  uncertainty k = 0.586546
        32        11        12        46     9        0.000000        1.303009         3    ;  uncertainty k = 0.321986
        32        11        12        46     9      180.000000        1.507425         4    ;  uncertainty k = 0.173884
        32        15        14        48     9        0.000000        0.160352         1    ;  uncertainty k = 0.386812
        32        15        14        48     9      180.000000        7.316654         2    ;  uncertainty k = 0.721939
        32        15        14        48     9        0.000000        1.412530         3    ;  uncertainty k = 0.351295
        32        15        14        48     9      180.000000        1.652943         4    ;  uncertainty k = 0.158232
        32        15        16        49     9        0.000000       -0.322549         1    ;  uncertainty k = 0.325145
        32        15        16        49     9      180.000000        1.883980         2    ;  uncertainty k = 0.185702
        32        15        16        49     9        0.000000        0.463714         3    ;  uncertainty k = 0.103731
        32        15        16        49     9      180.000000        0.146633         4    ;  uncertainty k = 0.049440
        32        15        16        50     9        0.000000       -0.322549         1    ;  uncertainty k = 0.325145
        32        15        16        50     9      180.000000        1.883980         2    ;  uncertainty k = 0.185702
        32        15        16        50     9        0.000000        0.463714         3    ;  uncertainty k = 0.103731
        32        15        16        50     9      180.000000        0.146633         4    ;  uncertainty k = 0.049440
        33         1         2        57     9        0.000000        0.051179         1    ;  uncertainty k = 0.508164
        33         1         2        57     9      180.000000       -0.572991         2    ;  uncertainty k = 0.412864
        33         1         2        57     9        0.000000        0.376089         3    ;  uncertainty k = 0.057152
        33         1         2        57     9      180.000000        0.081725         4    ;  uncertainty k = 0.106528
        34         1         2        57     9        0.000000        0.051179         1    ;  uncertainty k = 0.508164
        34         1         2        57     9      180.000000       -0.572991         2    ;  uncertainty k = 0.412864
        34         1         2        57     9        0.000000        0.376089         3    ;  uncertainty k = 0.057152
        34         1         2        57     9      180.000000        0.081725         4    ;  uncertainty k = 0.106528
        35         1         2        57     9        0.000000        0.051179         1    ;  uncertainty k = 0.508164
        35         1         2        57     9      180.000000       -0.572991         2    ;  uncertainty k = 0.412864
        35         1         2        57     9        0.000000        0.376089         3    ;  uncertainty k = 0.057152
        35         1         2        57     9      180.000000        0.081725         4    ;  uncertainty k = 0.106528
        36         3         2        57     9        0.000000        0.051179         1    ;  uncertainty k = 0.508164
        36         3         2        57     9      180.000000       -0.572991         2    ;  uncertainty k = 0.412864
        36         3         2        57     9        0.000000        0.376089         3    ;  uncertainty k = 0.057152
        36         3         2        57     9      180.000000        0.081725         4    ;  uncertainty k = 0.106528
        37         3         2        57     9        0.000000        0.051179         1    ;  uncertainty k = 0.508164
        37         3         2        57     9      180.000000       -0.572991         2    ;  uncertainty k = 0.412864
        37         3         2        57     9        0.000000        0.376089         3    ;  uncertainty k = 0.057152
        37         3         2        57     9      180.000000        0.081725         4    ;  uncertainty k = 0.106528
        38         3         2        57     9        0.000000        0.051179         1    ;  uncertainty k = 0.508164
        38         3         2        57     9      180.000000       -0.572991         2    ;  uncertainty k = 0.412864
        38         3         2        57     9        0.000000        0.376089         3    ;  uncertainty k = 0.057152
        38         3         2        57     9      180.000000        0.081725         4    ;  uncertainty k = 0.106528
        39         4         2        57     9        0.000000        0.898796         1    ;  uncertainty k = 0.580533
        39         4         2        57     9      180.000000       -0.586093         2    ;  uncertainty k = 0.270238
        39         4         2        57     9        0.000000       -0.005030         3    ;  uncertainty k = 0.197389
        39         4         2        57     9      180.000000       -0.037399         4    ;  uncertainty k = 0.093372
        39         4         5        41     9        0.000000        0.474274         1    ;  uncertainty k = 0.345634
        39         4         5        41     9      180.000000       -0.041918         2    ;  uncertainty k = 0.364319
        39         4         5        41     9        0.000000        0.145815         3    ;  uncertainty k = 0.115342
        39         4         5        41     9      180.000000        0.026061         4    ;  uncertainty k = 0.062268
        39         4         5        42     9        0.000000        0.474274         1    ;  uncertainty k = 0.345634
        39         4         5        42     9      180.000000       -0.041918         2    ;  uncertainty k = 0.364319
        39         4         5        42     9        0.000000        0.145815         3    ;  uncertainty k = 0.115342
        39         4         5        42     9      180.000000        0.026061         4    ;  uncertainty k = 0.062268
        40         4         2        57     9        0.000000        0.898796         1    ;  uncertainty k = 0.580533
        40         4         2        57     9      180.000000       -0.586093         2    ;  uncertainty k = 0.270238
        40         4         2        57     9        0.000000       -0.005030         3    ;  uncertainty k = 0.197389
        40         4         2        57     9      180.000000       -0.037399         4    ;  uncertainty k = 0.093372
        40         4         5        41     9        0.000000        0.474274         1    ;  uncertainty k = 0.345634
        40         4         5        41     9      180.000000       -0.041918         2    ;  uncertainty k = 0.364319
        40         4         5        41     9        0.000000        0.145815         3    ;  uncertainty k = 0.115342
        40         4         5        41     9      180.000000        0.026061         4    ;  uncertainty k = 0.062268
        40         4         5        42     9        0.000000        0.474274         1    ;  uncertainty k = 0.345634
        40         4         5        42     9      180.000000       -0.041918         2    ;  uncertainty k = 0.364319
        40         4         5        42     9        0.000000        0.145815         3    ;  uncertainty k = 0.115342
        40         4         5        42     9      180.000000        0.026061         4    ;  uncertainty k = 0.062268
        41         5         6        43     9        0.000000        0.579944         1    ;  uncertainty k = 0.271035
        41         5         6        43     9      180.000000       -0.181764         2    ;  uncertainty k = 0.272968
        41         5         6        43     9        0.000000        0.197279         3    ;  uncertainty k = 0.066271
        41         5         6        43     9      180.000000        0.035130         4    ;  uncertainty k = 0.042033
        41         5         6        44     9        0.000000        0.579943         1    ;  uncertainty k = 0.271035
        41         5         6        44     9      180.000000       -0.181764         2    ;  uncertainty k = 0.272967
        41         5         6        44     9        0.000000        0.197279         3    ;  uncertainty k = 0.066271
        41         5         6        44     9      180.000000        0.035130         4    ;  uncertainty k = 0.042033
        42         5         6        43     9        0.000000        0.579944         1    ;  uncertainty k = 0.271035
        42         5         6        43     9      180.000000       -0.181764         2    ;  uncertainty k = 0.272968
        42         5         6        43     9        0.000000        0.197279         3    ;  uncertainty k = 0.066271
        42         5         6        43     9      180.000000        0.035130         4    ;  uncertainty k = 0.042033
        42         5         6        44     9        0.000000        0.579943         1    ;  uncertainty k = 0.271035
        42         5         6        44     9      180.000000       -0.181764         2    ;  uncertainty k = 0.272967
        42         5         6        44     9        0.000000        0.197279         3    ;  uncertainty k = 0.066271
        42         5         6        44     9      180.000000        0.035130         4    ;  uncertainty k = 0.042033
        46        12        13        47     9        0.000000       -0.116451         1    ;  uncertainty k = 0.397729
        46        12        13        47     9      180.000000        7.721887         2    ;  uncertainty k = 0.347413
        46        12        13        47     9        0.000000       -0.447690         3    ;  uncertainty k = 0.295786
        46        12        13        47     9      180.000000        0.188935         4    ;  uncertainty k = 0.136467
        47        13        14        48     9        0.000000       -0.091168         1    ;  uncertainty k = 0.257354
        47        13        14        48     9      180.000000        7.328810         2    ;  uncertainty k = 0.293802
        47        13        14        48     9        0.000000       -0.402500         3    ;  uncertainty k = 0.279091
        47        13        14        48     9      180.000000        0.109432         4    ;  uncertainty k = 0.115411
        51        20        21        52     9        0.000000       -0.308549         1    ;  uncertainty k = 0.397502
        51        20        21        52     9      180.000000       12.289337         2    ;  uncertainty k = 0.583478
        51        20        21        52     9        0.000000        1.036027         3    ;  uncertainty k = 0.400452
        51        20        21        52     9      180.000000        0.764718         4    ;  uncertainty k = 0.591319

[ dihedrals ] ; impropers
;       ai        aj        ak        al funct           phase               k        pn
         8         7         9        10     4      180.000000       59.855893         2    ;  uncertainty k = 0.030876
         8         9        10         7     4      180.000000       59.855893         2    ;  uncertainty k = 0.030876
         8        10         7         9     4      180.000000       59.855893         2    ;  uncertainty k = 0.030876
        10         8        11        45     4      180.000000        0.650065         2    ;  uncertainty k = 0.833105
        10        11        45         8     4      180.000000        0.650065         2    ;  uncertainty k = 0.833105
        10        45         8        11     4      180.000000        0.650065         2    ;  uncertainty k = 0.833105
        11        10        12        32     4      180.000000       18.062483         2    ;  uncertainty k = 0.140251
        11        12        32        10     4      180.000000       18.062483         2    ;  uncertainty k = 0.140251
        11        32        10        12     4      180.000000       18.062483         2    ;  uncertainty k = 0.140251
        12        11        13        46     4      180.000000        3.102977         2    ;  uncertainty k = 0.177302
        12        13        46        11     4      180.000000        3.102977         2    ;  uncertainty k = 0.177302
        12        46        11        13     4      180.000000        3.102977         2    ;  uncertainty k = 0.177302
        13        12        14        47     4      180.000000        4.377039         2    ;  uncertainty k = 0.148395
        13        14        47        12     4      180.000000        4.377039         2    ;  uncertainty k = 0.148395
        13        47        12        14     4      180.000000        4.377039         2    ;  uncertainty k = 0.148395
        14        13        15        48     4      180.000000        3.430480         2    ;  uncertainty k = 0.178268
        14        15        48        13     4      180.000000        3.430480         2    ;  uncertainty k = 0.178268
        14        48        13        15     4      180.000000        3.430480         2    ;  uncertainty k = 0.178268
        15        14        16        32     4      180.000000       12.454093         2    ;  uncertainty k = 0.028088
        15        16        32        14     4      180.000000       12.454093         2    ;  uncertainty k = 0.028088
        15        32        14        16     4      180.000000       12.454093         2    ;  uncertainty k = 0.028088
        17        16        18        22     4      180.000000        4.921550         2    ;  uncertainty k = 0.604527
        17        18        22        16     4      180.000000        4.921550         2    ;  uncertainty k = 0.604527
        17        22        16        18     4      180.000000        4.921550         2    ;  uncertainty k = 0.604527
        19        18        20        24     4      180.000000       17.338875         2    ;  uncertainty k = 0.107858
        19        20        24        18     4      180.000000       17.338875         2    ;  uncertainty k = 0.107858
        19        24        18        20     4      180.000000       17.338875         2    ;  uncertainty k = 0.107858
        20        19        21        51     4      180.000000        6.632122         2    ;  uncertainty k = 0.364367
        20        21        51        19     4      180.000000        6.632122         2    ;  uncertainty k = 0.364367
        20        51        19        21     4      180.000000        6.632122         2    ;  uncertainty k = 0.364367
        21        20        22        52     4      180.000000        3.715532         2    ;  uncertainty k = 0.270488
        21        22        52        20     4      180.000000        3.715532         2    ;  uncertainty k = 0.270488
        21        52        20        22     4      180.000000        3.715532         2    ;  uncertainty k = 0.270488
        22        17        21        23     4      180.000000       49.481395         2    ;  uncertainty k = 0.023227
        22        21        23        17     4      180.000000       49.481395         2    ;  uncertainty k = 0.023227
        22        23        17        21     4      180.000000       49.481395         2    ;  uncertainty k = 0.023227
        24        19        25        31     4      180.000000       12.665951         2    ;  uncertainty k = 0.077152
        24        25        31        19     4      180.000000       12.665951         2    ;  uncertainty k = 0.077152
        24        31        19        25     4      180.000000       12.665951         2    ;  uncertainty k = 0.077152
        25        24        26        53     4      180.000000        2.108081         2    ;  uncertainty k = 0.256057
        25        26        53        24     4      180.000000        2.108081         2    ;  uncertainty k = 0.256057
        25        53        24        26     4      180.000000        2.108081         2    ;  uncertainty k = 0.256057
        26        25        27        28     4      180.000000       17.764897         2    ;  uncertainty k = 0.031615
        26        27        28        25     4      180.000000       17.764897         2    ;  uncertainty k = 0.031615
        26        28        25        27     4      180.000000       17.764897         2    ;  uncertainty k = 0.031615
        28        26        29        54     4      180.000000        1.216901         2    ;  uncertainty k = 0.080605
        28        29        54        26     4      180.000000        1.216901         2    ;  uncertainty k = 0.080605
        28        54        26        29     4      180.000000        1.216901         2    ;  uncertainty k = 0.080605
        29        28        30        31     4      180.000000       17.764895         2    ;  uncertainty k = 0.031615
        29        30        31        28     4      180.000000       17.764895         2    ;  uncertainty k = 0.031615
        29        31        28        30     4      180.000000       17.764895         2    ;  uncertainty k = 0.031615
        31        24        29        55     4      180.000000        2.108085         2    ;  uncertainty k = 0.256058
        31        29        55        24     4      180.000000        2.108085         2    ;  uncertainty k = 0.256058
        31        55        24        29     4      180.000000        2.108085         2    ;  uncertainty k = 0.256058
        32        11        15        56     4      180.000000        4.047646         2    ;  uncertainty k = 0.286594
        32        15        56        11     4      180.000000        4.047646         2    ;  uncertainty k = 0.286594
        32        56        11        15     4      180.000000        4.047646         2    ;  uncertainty k = 0.286594

[ pairs ]
;       ai        aj funct
         1         5     1
         1        36     1
         1        37     1
         1        38     1
         1        39     1
         1        40     1
         2         6     1
         2        41     1
         2        42     1
         3         5     1
         3        33     1
         3        34     1
         3        35     1
         3        39     1
         3        40     1
         4         7     1
         4        33     1
         4        34     1
         4        35     1
         4        36     1
         4        37     1
         4        38     1
         4        43     1
         4        44     1
         5         8     1
         5        57     1
         6         9     1
         6        10     1
         6        39     1
         6        40     1
         7        11     1
         7        41     1
         7        42     1
         7        45     1
         8        12     1
         8        32     1
         8        43     1
         8        44     1
         9        11     1
         9        45     1
        10        13     1
        10        15     1
        10        46     1
        10        56     1
        11        14     1
        11        16     1
        11        47     1
        12        15     1
        12        45     1
        12        48     1
        12        56     1
        13        16     1
        13        32     1
        14        17     1
        14        46     1
        14        49     1
        14        50     1
        14        56     1
        15        18     1
        15        22     1
        15        47     1
        16        19     1
        16        21     1
        16        23     1
        16        48     1
        16        56     1
        17        20     1
        17        24     1
        17        32     1
        17        52     1
        18        21     1
        18        23     1
        18        25     1
        18        31     1
        18        49     1
        18        50     1
        18        51     1
        19        22     1
        19        26     1
        19        29     1
        19        52     1
        19        53     1
        19        55     1
        20        23     1
        20        25     1
        20        31     1
        21        24     1
        22        49     1
        22        50     1
        22        51     1
        23        52     1
        24        27     1
        24        28     1
        24        30     1
        24        51     1
        25        29     1
        25        54     1
        25        55     1
        26        30     1
        26        31     1
        27        29     1
        27        53     1
        27        54     1
        28        53     1
        28        55     1
        30        54     1
        30        55     1
        31        53     1
        31        54     1
        32        45     1
        32        46     1
        32        48     1
        32        49     1
        32        50     1
        33        57     1
        34        57     1
        35        57     1
        36        57     1
        37        57     1
        38        57     1
        39        41     1
        39        42     1
        39        57     1
        40        41     1
        40        42     1
        40        57     1
        41        43     1
        41        44     1
        42        43     1
        42        44     1
        46        47     1
        47        48     1
        51        52     1
