; ITP file created by ByteFF-joint-25, 2026-02-17 09:11:25.657834

[ atomtypes ]
;name           bonded.type        at.num        mass        charge   ptype           sigma         epsilon
 c0bf                                   6      0.0000       0.00000       A     3.39790e-01     4.50985e-01    ;  uncertainty sigma = 0.000004, epsilon = 0.000763
 o1bf                                   8      0.0000       0.00000       A     3.15639e-01     3.03016e-01    ;  uncertainty sigma = 0.000023, epsilon = 0.000796
 c2bf                                   6      0.0000       0.00000       A     3.31522e-01     4.13570e-01    ;  uncertainty sigma = 0.000004, epsilon = 0.000767
 c3bf                                   6      0.0000       0.00000       A     3.31514e-01     4.13261e-01    ;  uncertainty sigma = 0.000002, epsilon = 0.000678
 c4bf                                   6      0.0000       0.00000       A     3.31521e-01     4.13409e-01    ;  uncertainty sigma = 0.000003, epsilon = 0.000636
 c5bf                                   6      0.0000       0.00000       A     3.31515e-01     4.13292e-01    ;  uncertainty sigma = 0.000007, epsilon = 0.000649
 c6bf                                   6      0.0000       0.00000       A     3.31517e-01     4.13257e-01    ;  uncertainty sigma = 0.000014, epsilon = 0.000429
 c7bf                                   6      0.0000       0.00000       A     3.31523e-01     4.13195e-01    ;  uncertainty sigma = 0.000009, epsilon = 0.000957
 c8bf                                   6      0.0000       0.00000       A     3.31500e-01     4.13474e-01    ;  uncertainty sigma = 0.000031, epsilon = 0.001012
 n9bf                                   7      0.0000       0.00000       A     3.38449e-01     3.94403e-01    ;  uncertainty sigma = 0.000019, epsilon = 0.001004
 n10bf                                  7      0.0000       0.00000       A     3.18130e-01     6.84059e-01    ;  uncertainty sigma = 0.000031, epsilon = 0.002260
 c11bf                                  6      0.0000       0.00000       A     3.39766e-01     4.50446e-01    ;  uncertainty sigma = 0.000009, epsilon = 0.000438
 c12bf                                  6      0.0000       0.00000       A     3.31504e-01     4.13393e-01    ;  uncertainty sigma = 0.000003, epsilon = 0.000338
 c13bf                                  6      0.0000       0.00000       A     3.31517e-01     4.13355e-01    ;  uncertainty sigma = 0.000004, epsilon = 0.000528
 c14bf                                  6      0.0000       0.00000       A     3.31517e-01     4.13450e-01    ;  uncertainty sigma = 0.000002, epsilon = 0.000660
 c15bf                                  6      0.0000       0.00000       A     3.31518e-01     4.13405e-01    ;  uncertainty sigma = 0.000007, epsilon = 0.000656
 c16bf                                  6      0.0000       0.00000       A     3.31542e-01     4.13088e-01    ;  uncertainty sigma = 0.000011, epsilon = 0.000816
 c17bf                                  6      0.0000       0.00000       A     3.31508e-01     4.13193e-01    ;  uncertainty sigma = 0.000012, epsilon = 0.000741
 c18bf                                  6      0.0000       0.00000       A     3.31469e-01     4.13138e-01    ;  uncertainty sigma = 0.000018, epsilon = 0.000710
 n19bf                                  7      0.0000       0.00000       A     3.38408e-01     3.93550e-01    ;  uncertainty sigma = 0.000017, epsilon = 0.000712
 c20bf                                  6      0.0000       0.00000       A     3.31543e-01     4.13243e-01    ;  uncertainty sigma = 0.000006, epsilon = 0.000627
 c21bf                                  6      0.0000       0.00000       A     3.31546e-01     4.12320e-01    ;  uncertainty sigma = 0.000011, epsilon = 0.002527
 o22bf                                  8      0.0000       0.00000       A     3.15618e-01     3.04185e-01    ;  uncertainty sigma = 0.000021, epsilon = 0.001469
 c23bf                                  6      0.0000       0.00000       A     3.39785e-01     4.50681e-01    ;  uncertainty sigma = 0.000014, epsilon = 0.000680
 c24bf                                  6      0.0000       0.00000       A     3.39761e-01     4.51155e-01    ;  uncertainty sigma = 0.000032, epsilon = 0.001332
 c25bf                                  6      0.0000       0.00000       A     3.39769e-01     4.50965e-01    ;  uncertainty sigma = 0.000013, epsilon = 0.001386
 n26bf                                  7      0.0000       0.00000       A     2.58863e-01     1.06534e+01    ;  uncertainty sigma = 0.000096, epsilon = 0.001145
 c27bf                                  6      0.0000       0.00000       A     3.39769e-01     4.50558e-01    ;  uncertainty sigma = 0.000008, epsilon = 0.001194
 c28bf                                  6      0.0000       0.00000       A     3.39769e-01     4.50558e-01    ;  uncertainty sigma = 0.000008, epsilon = 0.001194
 c29bf                                  6      0.0000       0.00000       A     3.31543e-01     4.13243e-01    ;  uncertainty sigma = 0.000006, epsilon = 0.000627
 n30bf                                  7      0.0000       0.00000       A     3.38408e-01     3.93550e-01    ;  uncertainty sigma = 0.000017, epsilon = 0.000712
 c31bf                                  6      0.0000       0.00000       A     3.31546e-01     4.13945e-01    ;  uncertainty sigma = 0.000006, epsilon = 0.001637
 o32bf                                  8      0.0000       0.00000       A     3.04802e-01     6.12255e-01    ;  uncertainty sigma = 0.000021, epsilon = 0.001274
 c33bf                                  6      0.0000       0.00000       A     3.31479e-01     4.13326e-01    ;  uncertainty sigma = 0.000018, epsilon = 0.001521
 c34bf                                  6      0.0000       0.00000       A     3.31517e-01     4.13271e-01    ;  uncertainty sigma = 0.000015, epsilon = 0.000991
 h35bf                                  1      0.0000       0.00000       A     2.42205e-01     8.67537e-02    ;  uncertainty sigma = 0.000015, epsilon = 0.000624
 h36bf                                  1      0.0000       0.00000       A     2.42205e-01     8.67537e-02    ;  uncertainty sigma = 0.000015, epsilon = 0.000624
 h37bf                                  1      0.0000       0.00000       A     2.42205e-01     8.67537e-02    ;  uncertainty sigma = 0.000015, epsilon = 0.000624
 h38bf                                  1      0.0000       0.00000       A     2.62564e-01     6.71212e-02    ;  uncertainty sigma = 0.000006, epsilon = 0.000469
 h39bf                                  1      0.0000       0.00000       A     2.62568e-01     6.69690e-02    ;  uncertainty sigma = 0.000011, epsilon = 0.000459
 h40bf                                  1      0.0000       0.00000       A     2.62560e-01     6.70284e-02    ;  uncertainty sigma = 0.000012, epsilon = 0.000523
 h41bf                                  1      0.0000       0.00000       A     2.62555e-01     6.71060e-02    ;  uncertainty sigma = 0.000012, epsilon = 0.000809
 h42bf                                  1      0.0000       0.00000       A     2.42236e-01     8.69096e-02    ;  uncertainty sigma = 0.000033, epsilon = 0.000580
 h43bf                                  1      0.0000       0.00000       A     2.42236e-01     8.69096e-02    ;  uncertainty sigma = 0.000033, epsilon = 0.000580
 h44bf                                  1      0.0000       0.00000       A     2.62563e-01     6.70958e-02    ;  uncertainty sigma = 0.000006, epsilon = 0.000590
 h45bf                                  1      0.0000       0.00000       A     2.62563e-01     6.70147e-02    ;  uncertainty sigma = 0.000010, epsilon = 0.000410
 h46bf                                  1      0.0000       0.00000       A     2.62563e-01     6.70454e-02    ;  uncertainty sigma = 0.000011, epsilon = 0.000576
 h47bf                                  1      0.0000       0.00000       A     2.62558e-01     6.71381e-02    ;  uncertainty sigma = 0.000013, epsilon = 0.000769
 h48bf                                  1      0.0000       0.00000       A     2.53665e-01     6.72127e-02    ;  uncertainty sigma = 0.000035, epsilon = 0.000623
 h49bf                                  1      0.0000       0.00000       A     2.42218e-01     8.69724e-02    ;  uncertainty sigma = 0.000040, epsilon = 0.000956
 h50bf                                  1      0.0000       0.00000       A     2.42218e-01     8.69724e-02    ;  uncertainty sigma = 0.000040, epsilon = 0.000956
 h51bf                                  1      0.0000       0.00000       A     2.60093e-01     8.64942e-02    ;  uncertainty sigma = 0.000047, epsilon = 0.000571
 h52bf                                  1      0.0000       0.00000       A     2.60093e-01     8.64942e-02    ;  uncertainty sigma = 0.000047, epsilon = 0.000571
 h53bf                                  1      0.0000       0.00000       A     1.88742e-01     8.62334e-02    ;  uncertainty sigma = 0.000053, epsilon = 0.001073
 h54bf                                  1      0.0000       0.00000       A     1.88742e-01     8.62334e-02    ;  uncertainty sigma = 0.000053, epsilon = 0.001073
 h55bf                                  1      0.0000       0.00000       A     1.88754e-01     8.64620e-02    ;  uncertainty sigma = 0.000044, epsilon = 0.000601
 h56bf                                  1      0.0000       0.00000       A     1.88754e-01     8.64620e-02    ;  uncertainty sigma = 0.000044, epsilon = 0.000601
 h57bf                                  1      0.0000       0.00000       A     1.88754e-01     8.64620e-02    ;  uncertainty sigma = 0.000044, epsilon = 0.000601
 h58bf                                  1      0.0000       0.00000       A     1.88754e-01     8.64620e-02    ;  uncertainty sigma = 0.000044, epsilon = 0.000601
 h59bf                                  1      0.0000       0.00000       A     1.88754e-01     8.64620e-02    ;  uncertainty sigma = 0.000044, epsilon = 0.000601
 h60bf                                  1      0.0000       0.00000       A     1.88754e-01     8.64620e-02    ;  uncertainty sigma = 0.000044, epsilon = 0.000601
 h61bf                                  1      0.0000       0.00000       A     2.53665e-01     6.72127e-02    ;  uncertainty sigma = 0.000035, epsilon = 0.000623
 h62bf                                  1      0.0000       0.00000       A     2.62519e-01     6.70320e-02    ;  uncertainty sigma = 0.000024, epsilon = 0.000744
 h63bf                                  1      0.0000       0.00000       A     2.62549e-01     6.67405e-02    ;  uncertainty sigma = 0.000015, epsilon = 0.000444
 h64bf                                  1      0.0000       0.00000       A     1.10713e-01     4.17134e-02    ;  uncertainty sigma = 0.000108, epsilon = 0.000765

[ moleculetype ]
;name             nrexcl
 MOL                   3

[ atoms ]
;       nr            type      resi   res      atom      cgnr      charge          mass ; qtot
         1            c0bf         1   UNL        c0         1     0.12109       12.0110 ; qtot    0.121
         2            o1bf         1   UNL        o1         2    -0.32594       15.9990 ; qtot   -0.205
         3            c2bf         1   UNL        c2         3     0.12495       12.0110 ; qtot   -0.080
         4            c3bf         1   UNL        c3         4    -0.17831       12.0110 ; qtot   -0.258
         5            c4bf         1   UNL        c4         5    -0.10008       12.0110 ; qtot   -0.358
         6            c5bf         1   UNL        c5         6    -0.12731       12.0110 ; qtot   -0.486
         7            c6bf         1   UNL        c6         7    -0.09967       12.0110 ; qtot   -0.585
         8            c7bf         1   UNL        c7         8    -0.15890       12.0110 ; qtot   -0.744
         9            c8bf         1   UNL        c8         9     0.39840       12.0110 ; qtot   -0.346
        10            n9bf         1   UNL        n9        10    -0.41267       14.0070 ; qtot   -0.758
        11           n10bf         1   UNL       n10        11    -0.20396       14.0070 ; qtot   -0.962
        12           c11bf         1   UNL       c11        12     0.15983       12.0110 ; qtot   -0.803
        13           c12bf         1   UNL       c12        13    -0.12699       12.0110 ; qtot   -0.930
        14           c13bf         1   UNL       c13        14    -0.09108       12.0110 ; qtot   -1.021
        15           c14bf         1   UNL       c14        15    -0.14526       12.0110 ; qtot   -1.166
        16           c15bf         1   UNL       c15        16    -0.08221       12.0110 ; qtot   -1.248
        17           c16bf         1   UNL       c16        17    -0.15593       12.0110 ; qtot   -1.404
        18           c17bf         1   UNL       c17        18    -0.06423       12.0110 ; qtot   -1.468
        19           c18bf         1   UNL       c18        19     0.69795       12.0110 ; qtot   -0.770
        20           n19bf         1   UNL       n19        20    -0.67798       14.0070 ; qtot   -1.448
        21           c20bf         1   UNL       c20        21     0.39342       12.0110 ; qtot   -1.055
        22           c21bf         1   UNL       c21        22    -0.10674       12.0110 ; qtot   -1.162
        23           o22bf         1   UNL       o22        23    -0.32036       15.9990 ; qtot   -1.482
        24           c23bf         1   UNL       c23        24     0.14642       12.0110 ; qtot   -1.336
        25           c24bf         1   UNL       c24        25    -0.11271       12.0110 ; qtot   -1.448
        26           c25bf         1   UNL       c25        26     0.13470       12.0110 ; qtot   -1.314
        27           n26bf         1   UNL       n26        27    -0.71188       14.0070 ; qtot   -2.025
        28           c27bf         1   UNL       c27        28     0.11306       12.0110 ; qtot   -1.912
        29           c28bf         1   UNL       c28        29     0.11306       12.0110 ; qtot   -1.799
        30           c29bf         1   UNL       c29        30     0.39342       12.0110 ; qtot   -1.406
        31           n30bf         1   UNL       n30        31    -0.67798       14.0070 ; qtot   -2.084
        32           c31bf         1   UNL       c31        32     0.67439       12.0110 ; qtot   -1.410
        33           o32bf         1   UNL       o32        33    -0.61615       15.9990 ; qtot   -2.026
        34           c33bf         1   UNL       c33        34    -0.21412       12.0110 ; qtot   -2.240
        35           c34bf         1   UNL       c34        35    -0.16846       12.0110 ; qtot   -2.408
        36           h35bf         1   UNL       h35        36     0.04263        1.0080 ; qtot   -2.366
        37           h36bf         1   UNL       h36        37     0.04263        1.0080 ; qtot   -2.323
        38           h37bf         1   UNL       h37        38     0.04263        1.0080 ; qtot   -2.280
        39           h38bf         1   UNL       h38        39     0.14126        1.0080 ; qtot   -2.139
        40           h39bf         1   UNL       h39        40     0.13770        1.0080 ; qtot   -2.001
        41           h40bf         1   UNL       h40        41     0.14627        1.0080 ; qtot   -1.855
        42           h41bf         1   UNL       h41        42     0.15049        1.0080 ; qtot   -1.705
        43           h42bf         1   UNL       h42        43     0.08064        1.0080 ; qtot   -1.624
        44           h43bf         1   UNL       h43        44     0.08064        1.0080 ; qtot   -1.543
        45           h44bf         1   UNL       h44        45     0.13982        1.0080 ; qtot   -1.404
        46           h45bf         1   UNL       h45        46     0.13595        1.0080 ; qtot   -1.268
        47           h46bf         1   UNL       h46        47     0.15226        1.0080 ; qtot   -1.115
        48           h47bf         1   UNL       h47        48     0.15650        1.0080 ; qtot   -0.959
        49           h48bf         1   UNL       h48        49     0.03565        1.0080 ; qtot   -0.923
        50           h49bf         1   UNL       h49        50     0.06310        1.0080 ; qtot   -0.860
        51           h50bf         1   UNL       h50        51     0.06310        1.0080 ; qtot   -0.797
        52           h51bf         1   UNL       h51        52     0.08558        1.0080 ; qtot   -0.711
        53           h52bf         1   UNL       h52        53     0.08558        1.0080 ; qtot   -0.626
        54           h53bf         1   UNL       h53        54     0.10142        1.0080 ; qtot   -0.524
        55           h54bf         1   UNL       h54        55     0.10142        1.0080 ; qtot   -0.423
        56           h55bf         1   UNL       h55        56     0.10248        1.0080 ; qtot   -0.320
        57           h56bf         1   UNL       h56        57     0.10248        1.0080 ; qtot   -0.218
        58           h57bf         1   UNL       h57        58     0.10248        1.0080 ; qtot   -0.116
        59           h58bf         1   UNL       h58        59     0.10248        1.0080 ; qtot   -0.013
        60           h59bf         1   UNL       h59        60     0.10248        1.0080 ; qtot    0.089
        61           h60bf         1   UNL       h60        61     0.10248        1.0080 ; qtot    0.192
        62           h61bf         1   UNL       h61        62     0.03565        1.0080 ; qtot    0.228
        63           h62bf         1   UNL       h62        63     0.16763        1.0080 ; qtot    0.395
        64           h63bf         1   UNL       h63        64     0.15224        1.0080 ; qtot    0.547
        65           h64bf         1   UNL       h64        65     0.45256        1.0080 ; qtot    1.000

[ bonds ]
;       ai        aj funct               r               k
         1         2     1        0.141909   253420.748096    ;  uncertainty r = 0.000028, k = 2.106554
         1        36     1        0.109623   311224.914502    ;  uncertainty r = 0.000009, k = 1.869771
         1        37     1        0.109623   311224.914502    ;  uncertainty r = 0.000009, k = 1.869771
         1        38     1        0.109623   311224.914502    ;  uncertainty r = 0.000009, k = 1.869771
         2         3     1        0.136523   321383.857520    ;  uncertainty r = 0.000049, k = 3.521790
         3         4     1        0.139907   361458.630371    ;  uncertainty r = 0.000038, k = 2.597161
         3         8     1        0.139685   356488.904590    ;  uncertainty r = 0.000026, k = 2.232559
         4         5     1        0.139445   371536.263232    ;  uncertainty r = 0.000046, k = 1.662265
         4        39     1        0.108802   337752.965869    ;  uncertainty r = 0.000012, k = 0.450667
         5         6     1        0.139356   366370.157080    ;  uncertainty r = 0.000019, k = 2.352561
         5        40     1        0.108774   332349.339062    ;  uncertainty r = 0.000014, k = 1.424823
         6         7     1        0.139973   345729.481982    ;  uncertainty r = 0.000057, k = 4.181738
         6        41     1        0.108721   334184.691113    ;  uncertainty r = 0.000022, k = 1.048390
         7         8     1        0.139789   347332.727246    ;  uncertainty r = 0.000061, k = 3.249008
         7         9     1        0.147137   261679.653564    ;  uncertainty r = 0.000071, k = 10.459333
         8        42     1        0.108781   337571.907764    ;  uncertainty r = 0.000047, k = 1.029682
         9        10     1        0.130279   486461.912500    ;  uncertainty r = 0.000124, k = 7.185400
         9        35     1        0.143223   248753.100781    ;  uncertainty r = 0.000130, k = 12.545934
        10        11     1        0.133719   291839.975684    ;  uncertainty r = 0.000103, k = 13.619080
        11        12     1        0.146958   226285.092285    ;  uncertainty r = 0.000082, k = 7.991891
        11        32     1        0.139210   287082.437744    ;  uncertainty r = 0.000112, k = 8.370596
        12        13     1        0.151483   229275.079199    ;  uncertainty r = 0.000030, k = 5.987457
        12        43     1        0.109288   307627.680664    ;  uncertainty r = 0.000019, k = 0.761502
        12        44     1        0.109288   307627.680664    ;  uncertainty r = 0.000019, k = 0.761502
        13        14     1        0.139703   354765.558301    ;  uncertainty r = 0.000069, k = 2.816833
        13        18     1        0.139276   349283.175049    ;  uncertainty r = 0.000051, k = 4.888121
        14        15     1        0.139534   371200.960986    ;  uncertainty r = 0.000016, k = 1.371970
        14        45     1        0.108845   333137.720703    ;  uncertainty r = 0.000012, k = 0.688235
        15        16     1        0.139280   367550.839795    ;  uncertainty r = 0.000042, k = 4.029724
        15        46     1        0.108831   333139.355078    ;  uncertainty r = 0.000017, k = 1.251991
        16        17     1        0.139722   342720.214551    ;  uncertainty r = 0.000075, k = 2.913356
        16        47     1        0.108616   332854.999365    ;  uncertainty r = 0.000026, k = 0.969489
        17        18     1        0.139409   336931.871191    ;  uncertainty r = 0.000073, k = 5.943873
        17        19     1        0.146856   259786.996240    ;  uncertainty r = 0.000158, k = 4.145105
        18        48     1        0.108682   331298.767920    ;  uncertainty r = 0.000030, k = 1.060850
        19        20     1        0.135006   359311.214844    ;  uncertainty r = 0.000174, k = 8.718537
        19        31     1        0.135006   359311.214844    ;  uncertainty r = 0.000174, k = 8.718537
        20        21     1        0.133067   409378.913965    ;  uncertainty r = 0.000048, k = 4.249447
        21        22     1        0.139648   371796.077783    ;  uncertainty r = 0.000085, k = 9.706400
        21        49     1        0.109052   334640.068848    ;  uncertainty r = 0.000040, k = 3.901928
        22        23     1        0.136213   317844.337549    ;  uncertainty r = 0.000248, k = 6.331051
        22        30     1        0.139648   371796.077783    ;  uncertainty r = 0.000085, k = 9.706400
        23        24     1        0.142328   230736.593506    ;  uncertainty r = 0.000208, k = 7.039270
        24        25     1        0.152735   206765.432446    ;  uncertainty r = 0.000125, k = 9.273161
        24        50     1        0.109664   309138.685889    ;  uncertainty r = 0.000098, k = 3.958285
        24        51     1        0.109664   309138.685889    ;  uncertainty r = 0.000098, k = 3.958285
        25        26     1        0.152791   203112.910767    ;  uncertainty r = 0.000073, k = 8.586173
        25        52     1        0.109537   311668.008887    ;  uncertainty r = 0.000038, k = 3.411106
        25        53     1        0.109537   311668.008887    ;  uncertainty r = 0.000038, k = 3.411106
        26        27     1        0.151888   190701.658545    ;  uncertainty r = 0.000184, k = 18.246879
        26        54     1        0.109092   311624.033984    ;  uncertainty r = 0.000034, k = 1.755121
        26        55     1        0.109092   311624.059521    ;  uncertainty r = 0.000034, k = 1.755131
        27        28     1        0.150391   206968.337549    ;  uncertainty r = 0.000046, k = 15.575475
        27        29     1        0.150391   206968.337549    ;  uncertainty r = 0.000046, k = 15.575475
        27        65     1        0.102672   380024.211035    ;  uncertainty r = 0.000103, k = 9.662685
        28        56     1        0.108982   314172.586426    ;  uncertainty r = 0.000020, k = 1.327880
        28        57     1        0.108982   314172.586426    ;  uncertainty r = 0.000020, k = 1.327880
        28        58     1        0.108982   314172.586426    ;  uncertainty r = 0.000020, k = 1.327880
        29        59     1        0.108982   314172.586426    ;  uncertainty r = 0.000020, k = 1.327880
        29        60     1        0.108982   314172.586426    ;  uncertainty r = 0.000020, k = 1.327880
        29        61     1        0.108982   314172.586426    ;  uncertainty r = 0.000020, k = 1.327880
        30        31     1        0.133067   409378.862891    ;  uncertainty r = 0.000048, k = 4.249447
        30        62     1        0.109052   334640.068848    ;  uncertainty r = 0.000040, k = 3.901918
        32        33     1        0.124008   735950.379883    ;  uncertainty r = 0.000059, k = 6.569271
        32        34     1        0.145432   272577.129785    ;  uncertainty r = 0.000089, k = 4.402609
        34        35     1        0.134977   481508.785840    ;  uncertainty r = 0.000047, k = 10.409245
        34        63     1        0.108708   341990.721484    ;  uncertainty r = 0.000030, k = 2.410371
        35        64     1        0.108783   336902.886572    ;  uncertainty r = 0.000050, k = 1.619669

[ angles ]
;       ai        aj        ak funct           theta             cth
         1         2         3     1      109.588303      512.978376    ;  uncertainty theta = 0.001071, k = 0.061780
         2         1        36     1      108.795364      446.331628    ;  uncertainty theta = 0.001356, k = 0.023104
         2         1        37     1      108.795364      446.331628    ;  uncertainty theta = 0.001356, k = 0.023104
         2         1        38     1      108.795364      446.331628    ;  uncertainty theta = 0.001356, k = 0.023104
         2         3         4     1      119.705154      424.261980    ;  uncertainty theta = 0.003834, k = 0.059900
         2         3         8     1      118.960526      425.232869    ;  uncertainty theta = 0.003654, k = 0.121238
         3         4         5     1      118.303261      527.549851    ;  uncertainty theta = 0.002656, k = 0.017831
         3         4        39     1      119.746971      271.240524    ;  uncertainty theta = 0.002531, k = 0.039836
         3         8         7     1      120.561890      525.807901    ;  uncertainty theta = 0.003110, k = 0.112757
         3         8        42     1      119.836548      272.926739    ;  uncertainty theta = 0.002446, k = 0.095643
         4         3         8     1      121.460594      371.742201    ;  uncertainty theta = 0.006407, k = 0.066860
         4         5         6     1      121.260681      511.374391    ;  uncertainty theta = 0.001557, k = 0.040502
         4         5        40     1      120.036476      281.643448    ;  uncertainty theta = 0.000424, k = 0.066793
         5         4        39     1      121.047668      285.764883    ;  uncertainty theta = 0.002182, k = 0.027288
         5         6         7     1      119.922012      525.943407    ;  uncertainty theta = 0.001270, k = 0.049730
         5         6        41     1      120.587990      293.247926    ;  uncertainty theta = 0.001755, k = 0.036247
         6         5        40     1      120.157547      281.808450    ;  uncertainty theta = 0.000713, k = 0.022827
         6         7         8     1      122.058617      429.411282    ;  uncertainty theta = 0.001801, k = 0.090425
         6         7         9     1      119.189194      394.549712    ;  uncertainty theta = 0.002019, k = 0.150077
         7         6        41     1      118.677536      269.151429    ;  uncertainty theta = 0.002463, k = 0.038110
         7         8        42     1      118.987930      264.993524    ;  uncertainty theta = 0.002330, k = 0.068267
         7         9        10     1      116.621666      444.707213    ;  uncertainty theta = 0.005796, k = 0.238274
         7         9        35     1      120.599304      388.694404    ;  uncertainty theta = 0.001723, k = 0.116324
         8         7         9     1      118.350342      392.958591    ;  uncertainty theta = 0.002789, k = 0.160553
         9        10        11     1      119.463928      508.526013    ;  uncertainty theta = 0.009463, k = 0.209624
         9        35        34     1      119.155739      482.073143    ;  uncertainty theta = 0.004779, k = 0.322266
         9        35        64     1      118.631851      262.398699    ;  uncertainty theta = 0.005478, k = 0.055575
        10         9        35     1      126.030800      532.733725    ;  uncertainty theta = 0.003375, k = 0.216485
        10        11        12     1      110.577988      500.240115    ;  uncertainty theta = 0.005833, k = 0.098935
        10        11        32     1      124.130814      552.011816    ;  uncertainty theta = 0.006513, k = 0.232379
        11        12        13     1      111.862549      642.493625    ;  uncertainty theta = 0.001364, k = 0.091263
        11        12        43     1      105.434021      444.191874    ;  uncertainty theta = 0.001612, k = 0.053315
        11        12        44     1      105.434021      444.191874    ;  uncertainty theta = 0.001612, k = 0.053315
        11        32        33     1      122.027390      653.228788    ;  uncertainty theta = 0.001797, k = 0.051887
        11        32        34     1      111.385643      354.543947    ;  uncertainty theta = 0.004876, k = 0.498397
        12        11        32     1      115.546555      389.353517    ;  uncertainty theta = 0.005911, k = 0.248842
        12        13        14     1      120.426491      424.552145    ;  uncertainty theta = 0.001183, k = 0.075232
        12        13        18     1      119.739639      404.422104    ;  uncertainty theta = 0.001445, k = 0.125283
        13        12        43     1      108.739967      417.311545    ;  uncertainty theta = 0.001880, k = 0.053917
        13        12        44     1      108.739967      417.311545    ;  uncertainty theta = 0.001880, k = 0.053917
        13        14        15     1      119.885025      524.221759    ;  uncertainty theta = 0.002065, k = 0.043778
        13        14        45     1      119.030472      270.213357    ;  uncertainty theta = 0.002268, k = 0.024348
        13        18        17     1      121.979675      528.275648    ;  uncertainty theta = 0.001822, k = 0.081800
        13        18        48     1      119.316833      276.390593    ;  uncertainty theta = 0.001305, k = 0.080105
        14        13        18     1      120.774338      455.617432    ;  uncertainty theta = 0.001449, k = 0.156970
        14        15        16     1      120.290504      506.484545    ;  uncertainty theta = 0.001272, k = 0.077873
        14        15        46     1      120.362267      284.047991    ;  uncertainty theta = 0.001711, k = 0.048927
        15        14        45     1      120.372025      293.531196    ;  uncertainty theta = 0.002545, k = 0.019544
        15        16        17     1      120.232346      524.525332    ;  uncertainty theta = 0.000782, k = 0.072775
        15        16        47     1      120.926468      288.832049    ;  uncertainty theta = 0.001396, k = 0.073927
        16        15        46     1      120.239822      284.658998    ;  uncertainty theta = 0.001522, k = 0.023723
        16        17        18     1      121.895348      436.115923    ;  uncertainty theta = 0.002603, k = 0.071743
        16        17        19     1      116.993881      401.563543    ;  uncertainty theta = 0.006089, k = 0.080842
        17        16        47     1      117.565109      261.796821    ;  uncertainty theta = 0.001353, k = 0.076979
        17        18        48     1      117.407730      263.631583    ;  uncertainty theta = 0.002520, k = 0.101620
        17        19        20     1      117.590942      445.732560    ;  uncertainty theta = 0.004282, k = 0.099810
        17        19        31     1      117.590942      445.732560    ;  uncertainty theta = 0.004282, k = 0.099810
        18        17        19     1      116.438194      397.763334    ;  uncertainty theta = 0.006185, k = 0.074267
        19        20        21     1      117.415298      372.480894    ;  uncertainty theta = 0.006332, k = 0.318625
        19        31        30     1      117.415298      372.480894    ;  uncertainty theta = 0.006332, k = 0.318625
        20        19        31     1      127.269669      797.523607    ;  uncertainty theta = 0.000954, k = 0.105380
        20        21        22     1      121.520203      688.081260    ;  uncertainty theta = 0.003014, k = 0.106237
        20        21        49     1      117.332191      329.677985    ;  uncertainty theta = 0.004794, k = 0.095269
        21        22        23     1      119.933716      402.497723    ;  uncertainty theta = 0.007672, k = 0.155632
        21        22        30     1      117.805458      352.842314    ;  uncertainty theta = 0.006505, k = 0.510122
        22        21        49     1      120.776428      255.710737    ;  uncertainty theta = 0.002542, k = 0.172782
        22        23        24     1      110.369186      504.557674    ;  uncertainty theta = 0.001577, k = 0.162673
        22        30        31     1      121.520203      688.081260    ;  uncertainty theta = 0.003014, k = 0.106237
        22        30        62     1      120.776428      255.710737    ;  uncertainty theta = 0.002542, k = 0.172782
        23        22        30     1      119.933716      402.497723    ;  uncertainty theta = 0.007672, k = 0.155632
        23        24        25     1      109.063560      579.783486    ;  uncertainty theta = 0.004581, k = 0.100947
        23        24        50     1      107.461388      430.031962    ;  uncertainty theta = 0.003150, k = 0.051924
        23        24        51     1      107.461388      430.031962    ;  uncertainty theta = 0.003150, k = 0.051924
        24        25        26     1      109.752762      544.878280    ;  uncertainty theta = 0.001840, k = 0.186334
        24        25        52     1      107.254318      403.794657    ;  uncertainty theta = 0.001311, k = 0.061725
        24        25        53     1      107.254318      403.794657    ;  uncertainty theta = 0.001311, k = 0.061725
        25        24        50     1      109.584671      399.976827    ;  uncertainty theta = 0.002071, k = 0.097345
        25        24        51     1      109.584671      399.976827    ;  uncertainty theta = 0.002071, k = 0.097345
        25        26        27     1      111.160255      676.104547    ;  uncertainty theta = 0.003484, k = 0.216005
        25        26        54     1      109.832565      402.390148    ;  uncertainty theta = 0.002078, k = 0.055178
        25        26        55     1      109.832565      402.390148    ;  uncertainty theta = 0.002078, k = 0.055178
        26        25        52     1      107.366287      401.383890    ;  uncertainty theta = 0.002481, k = 0.064733
        26        25        53     1      107.366287      401.383890    ;  uncertainty theta = 0.002481, k = 0.064733
        26        27        28     1      111.577248      649.271940    ;  uncertainty theta = 0.001912, k = 0.208394
        26        27        29     1      111.577248      649.271940    ;  uncertainty theta = 0.001912, k = 0.208394
        26        27        65     1      106.240402      446.613909    ;  uncertainty theta = 0.003169, k = 0.051616
        27        26        54     1      105.574234      464.240739    ;  uncertainty theta = 0.000949, k = 0.077057
        27        26        55     1      105.574234      464.240739    ;  uncertainty theta = 0.000949, k = 0.077057
        27        28        56     1      107.947853      470.857724    ;  uncertainty theta = 0.002394, k = 0.062057
        27        28        57     1      107.947853      470.857724    ;  uncertainty theta = 0.002394, k = 0.062057
        27        28        58     1      107.947853      470.857724    ;  uncertainty theta = 0.002394, k = 0.062057
        27        29        59     1      107.947853      470.857724    ;  uncertainty theta = 0.002394, k = 0.062057
        27        29        60     1      107.947853      470.857724    ;  uncertainty theta = 0.002394, k = 0.062057
        27        29        61     1      107.947853      470.857724    ;  uncertainty theta = 0.002394, k = 0.062057
        28        27        29     1      111.640198      714.699291    ;  uncertainty theta = 0.001271, k = 0.164695
        28        27        65     1      106.282303      462.351312    ;  uncertainty theta = 0.001772, k = 0.176946
        29        27        65     1      106.282303      462.351312    ;  uncertainty theta = 0.001772, k = 0.176946
        31        30        62     1      117.332176      329.678017    ;  uncertainty theta = 0.004794, k = 0.095269
        32        34        35     1      119.665359      523.118939    ;  uncertainty theta = 0.005349, k = 0.100266
        32        34        63     1      117.583900      254.681432    ;  uncertainty theta = 0.006644, k = 0.184684
        33        32        34     1      127.351967      536.919193    ;  uncertainty theta = 0.003562, k = 0.161864
        34        35        64     1      122.361351      282.774455    ;  uncertainty theta = 0.005531, k = 0.167097
        35        34        63     1      123.138992      265.275997    ;  uncertainty theta = 0.005028, k = 0.152927
        36         1        37     1      109.081810      330.154316    ;  uncertainty theta = 0.001818, k = 0.013784
        36         1        38     1      109.081810      330.154380    ;  uncertainty theta = 0.001818, k = 0.013785
        37         1        38     1      109.081810      330.154380    ;  uncertainty theta = 0.001818, k = 0.013785
        43        12        44     1      106.067017      312.923918    ;  uncertainty theta = 0.003423, k = 0.065436
        50        24        51     1      107.585915      334.799388    ;  uncertainty theta = 0.004048, k = 0.068197
        52        25        53     1      105.731667      324.816454    ;  uncertainty theta = 0.002306, k = 0.047816
        54        26        55     1      107.757484      320.468825    ;  uncertainty theta = 0.004006, k = 0.081407
        56        28        57     1      108.453964      318.843675    ;  uncertainty theta = 0.003157, k = 0.041407
        56        28        58     1      108.453964      318.843675    ;  uncertainty theta = 0.003157, k = 0.041407
        57        28        58     1      108.453964      318.843675    ;  uncertainty theta = 0.003157, k = 0.041407
        59        29        60     1      108.453964      318.843675    ;  uncertainty theta = 0.003157, k = 0.041407
        59        29        61     1      108.453964      318.843675    ;  uncertainty theta = 0.003157, k = 0.041407
        60        29        61     1      108.453964      318.843675    ;  uncertainty theta = 0.003157, k = 0.041407

[ dihedrals ] ; propers for gromacs 4.5 or higher, use funct 9
;       ai        aj        ak        al funct           phase               k        pn
         1         2         3         4     9        0.000000        0.639447         1    ;  uncertainty k = 0.474021
         1         2         3         4     9      180.000000        7.614885         2    ;  uncertainty k = 0.075960
         1         2         3         4     9        0.000000        0.646695         3    ;  uncertainty k = 0.064343
         1         2         3         4     9      180.000000        0.293805         4    ;  uncertainty k = 0.011137
         1         2         3         8     9        0.000000       -0.343522         1    ;  uncertainty k = 0.482750
         1         2         3         8     9      180.000000        7.478726         2    ;  uncertainty k = 0.111352
         1         2         3         8     9        0.000000        0.471378         3    ;  uncertainty k = 0.111180
         1         2         3         8     9      180.000000        0.297278         4    ;  uncertainty k = 0.069257
         2         3         4         5     9        0.000000        0.020164         1    ;  uncertainty k = 0.281997
         2         3         4         5     9      180.000000       10.455589         2    ;  uncertainty k = 0.537723
         2         3         4         5     9        0.000000        1.141213         3    ;  uncertainty k = 0.293888
         2         3         4         5     9      180.000000        1.594671         4    ;  uncertainty k = 0.138720
         2         3         4        39     9        0.000000       -0.124944         1    ;  uncertainty k = 0.151804
         2         3         4        39     9      180.000000        8.175900         2    ;  uncertainty k = 0.331858
         2         3         4        39     9        0.000000        0.677288         3    ;  uncertainty k = 0.137521
         2         3         4        39     9      180.000000        0.997708         4    ;  uncertainty k = 0.218604
         2         3         8         7     9        0.000000        0.019510         1    ;  uncertainty k = 0.366514
         2         3         8         7     9      180.000000       10.963299         2    ;  uncertainty k = 0.377118
         2         3         8         7     9        0.000000        1.131328         3    ;  uncertainty k = 0.237114
         2         3         8         7     9      180.000000        1.562602         4    ;  uncertainty k = 0.108076
         2         3         8        42     9        0.000000       -0.073943         1    ;  uncertainty k = 0.284721
         2         3         8        42     9      180.000000        8.390127         2    ;  uncertainty k = 0.251078
         2         3         8        42     9        0.000000        0.689380         3    ;  uncertainty k = 0.182661
         2         3         8        42     9      180.000000        1.120485         4    ;  uncertainty k = 0.201559
         3         2         1        36     9        0.000000        0.698365         1    ;  uncertainty k = 0.176124
         3         2         1        36     9      180.000000       -1.403416         2    ;  uncertainty k = 0.116229
         3         2         1        36     9        0.000000        0.932913         3    ;  uncertainty k = 0.043343
         3         2         1        36     9      180.000000        0.291522         4    ;  uncertainty k = 0.059703
         3         2         1        37     9        0.000000        0.698365         1    ;  uncertainty k = 0.176124
         3         2         1        37     9      180.000000       -1.403416         2    ;  uncertainty k = 0.116229
         3         2         1        37     9        0.000000        0.932913         3    ;  uncertainty k = 0.043343
         3         2         1        37     9      180.000000        0.291522         4    ;  uncertainty k = 0.059703
         3         2         1        38     9        0.000000        0.698365         1    ;  uncertainty k = 0.176124
         3         2         1        38     9      180.000000       -1.403416         2    ;  uncertainty k = 0.116229
         3         2         1        38     9        0.000000        0.932913         3    ;  uncertainty k = 0.043343
         3         2         1        38     9      180.000000        0.291522         4    ;  uncertainty k = 0.059703
         3         4         5         6     9        0.000000       -0.150164         1    ;  uncertainty k = 0.249414
         3         4         5         6     9      180.000000       14.213415         2    ;  uncertainty k = 0.240423
         3         4         5         6     9        0.000000       -0.914415         3    ;  uncertainty k = 0.464963
         3         4         5         6     9      180.000000        0.764658         4    ;  uncertainty k = 0.224693
         3         4         5        40     9        0.000000       -0.028986         1    ;  uncertainty k = 0.136179
         3         4         5        40     9      180.000000        7.872487         2    ;  uncertainty k = 0.341613
         3         4         5        40     9        0.000000        1.301695         3    ;  uncertainty k = 0.285969
         3         4         5        40     9      180.000000        1.736990         4    ;  uncertainty k = 0.117228
         3         8         7         6     9        0.000000       -0.053979         1    ;  uncertainty k = 0.222708
         3         8         7         6     9      180.000000       11.047080         2    ;  uncertainty k = 0.269970
         3         8         7         6     9        0.000000       -0.354754         3    ;  uncertainty k = 0.210937
         3         8         7         6     9      180.000000        1.001524         4    ;  uncertainty k = 0.268255
         3         8         7         9     9        0.000000        0.218085         1    ;  uncertainty k = 0.338954
         3         8         7         9     9      180.000000        9.310973         2    ;  uncertainty k = 0.420227
         3         8         7         9     9        0.000000        1.391927         3    ;  uncertainty k = 0.200782
         3         8         7         9     9      180.000000        1.696694         4    ;  uncertainty k = 0.128637
         4         3         8         7     9        0.000000        0.033312         1    ;  uncertainty k = 0.360438
         4         3         8         7     9      180.000000        8.529810         2    ;  uncertainty k = 0.753107
         4         3         8         7     9        0.000000        0.151889         3    ;  uncertainty k = 0.309997
         4         3         8         7     9      180.000000        1.254123         4    ;  uncertainty k = 0.369938
         4         3         8        42     9        0.000000        0.249593         1    ;  uncertainty k = 0.328555
         4         3         8        42     9      180.000000        6.128540         2    ;  uncertainty k = 0.420037
         4         3         8        42     9        0.000000        1.436925         3    ;  uncertainty k = 0.272229
         4         3         8        42     9      180.000000        1.673621         4    ;  uncertainty k = 0.113209
         4         5         6         7     9        0.000000       -0.035681         1    ;  uncertainty k = 0.191680
         4         5         6         7     9      180.000000       13.968376         2    ;  uncertainty k = 0.329872
         4         5         6         7     9        0.000000       -0.968297         3    ;  uncertainty k = 0.360211
         4         5         6         7     9      180.000000        0.694039         4    ;  uncertainty k = 0.255955
         4         5         6        41     9        0.000000        0.125648         1    ;  uncertainty k = 0.106756
         4         5         6        41     9      180.000000        7.753590         2    ;  uncertainty k = 0.287043
         4         5         6        41     9        0.000000        1.402049         3    ;  uncertainty k = 0.255058
         4         5         6        41     9      180.000000        1.890740         4    ;  uncertainty k = 0.159961
         5         4         3         8     9        0.000000       -0.063129         1    ;  uncertainty k = 0.138755
         5         4         3         8     9      180.000000        9.009314         2    ;  uncertainty k = 0.505803
         5         4         3         8     9        0.000000        0.024463         3    ;  uncertainty k = 0.374719
         5         4         3         8     9      180.000000        1.195519         4    ;  uncertainty k = 0.311842
         5         6         7         8     9        0.000000       -0.141914         1    ;  uncertainty k = 0.131511
         5         6         7         8     9      180.000000       11.539077         2    ;  uncertainty k = 0.267855
         5         6         7         8     9        0.000000       -0.684505         3    ;  uncertainty k = 0.267554
         5         6         7         8     9      180.000000        0.847280         4    ;  uncertainty k = 0.251641
         5         6         7         9     9        0.000000        0.226773         1    ;  uncertainty k = 0.244546
         5         6         7         9     9      180.000000        9.208695         2    ;  uncertainty k = 0.360494
         5         6         7         9     9        0.000000        1.234290         3    ;  uncertainty k = 0.187676
         5         6         7         9     9      180.000000        1.658720         4    ;  uncertainty k = 0.185348
         6         5         4        39     9        0.000000        0.161034         1    ;  uncertainty k = 0.140794
         6         5         4        39     9      180.000000        7.603484         2    ;  uncertainty k = 0.302948
         6         5         4        39     9        0.000000        1.558780         3    ;  uncertainty k = 0.219858
         6         5         4        39     9      180.000000        1.831787         4    ;  uncertainty k = 0.112837
         6         7         8        42     9        0.000000        0.224724         1    ;  uncertainty k = 0.096405
         6         7         8        42     9      180.000000        7.084502         2    ;  uncertainty k = 0.484349
         6         7         8        42     9        0.000000        1.475880         3    ;  uncertainty k = 0.171852
         6         7         8        42     9      180.000000        1.696460         4    ;  uncertainty k = 0.197232
         6         7         9        10     9        0.000000        0.723343         1    ;  uncertainty k = 0.862465
         6         7         9        10     9      180.000000        4.390526         2    ;  uncertainty k = 0.241332
         6         7         9        10     9        0.000000        0.214776         3    ;  uncertainty k = 0.259660
         6         7         9        10     9      180.000000       -0.045630         4    ;  uncertainty k = 0.092780
         6         7         9        35     9        0.000000       -0.134884         1    ;  uncertainty k = 0.653481
         6         7         9        35     9      180.000000        3.962287         2    ;  uncertainty k = 0.208607
         6         7         9        35     9        0.000000        0.658311         3    ;  uncertainty k = 0.224672
         6         7         9        35     9      180.000000       -0.171227         4    ;  uncertainty k = 0.087677
         7         6         5        40     9        0.000000        0.049844         1    ;  uncertainty k = 0.131788
         7         6         5        40     9      180.000000        7.499325         2    ;  uncertainty k = 0.318612
         7         6         5        40     9        0.000000        1.410439         3    ;  uncertainty k = 0.230957
         7         6         5        40     9      180.000000        1.835408         4    ;  uncertainty k = 0.162348
         7         9        10        11     9        0.000000       -0.099326         1    ;  uncertainty k = 0.626045
         7         9        10        11     9      180.000000       25.450309         2    ;  uncertainty k = 0.186099
         7         9        10        11     9        0.000000        2.925831         3    ;  uncertainty k = 0.149885
         7         9        10        11     9      180.000000        0.719306         4    ;  uncertainty k = 0.546134
         7         9        35        34     9        0.000000        0.484356         1    ;  uncertainty k = 0.786096
         7         9        35        34     9      180.000000        4.606991         2    ;  uncertainty k = 0.912176
         7         9        35        34     9        0.000000        0.697678         3    ;  uncertainty k = 0.324617
         7         9        35        34     9      180.000000        0.568719         4    ;  uncertainty k = 0.256568
         7         9        35        64     9        0.000000       -0.577507         1    ;  uncertainty k = 1.112942
         7         9        35        64     9      180.000000        5.169199         2    ;  uncertainty k = 0.408305
         7         9        35        64     9        0.000000        1.048372         3    ;  uncertainty k = 0.191691
         7         9        35        64     9      180.000000        0.359307         4    ;  uncertainty k = 0.156699
         8         3         4        39     9        0.000000        0.228379         1    ;  uncertainty k = 0.297190
         8         3         4        39     9      180.000000        5.832300         2    ;  uncertainty k = 0.460113
         8         3         4        39     9        0.000000        1.440171         3    ;  uncertainty k = 0.277282
         8         3         4        39     9      180.000000        1.568987         4    ;  uncertainty k = 0.110143
         8         7         6        41     9        0.000000        0.082098         1    ;  uncertainty k = 0.189232
         8         7         6        41     9      180.000000        6.886793         2    ;  uncertainty k = 0.525482
         8         7         6        41     9        0.000000        1.441393         3    ;  uncertainty k = 0.182507
         8         7         6        41     9      180.000000        1.688680         4    ;  uncertainty k = 0.236167
         8         7         9        10     9        0.000000        0.061243         1    ;  uncertainty k = 0.971315
         8         7         9        10     9      180.000000        4.425477         2    ;  uncertainty k = 0.296599
         8         7         9        10     9        0.000000        0.219430         3    ;  uncertainty k = 0.210204
         8         7         9        10     9      180.000000       -0.061385         4    ;  uncertainty k = 0.097382
         8         7         9        35     9        0.000000        0.151389         1    ;  uncertainty k = 0.808387
         8         7         9        35     9      180.000000        3.843957         2    ;  uncertainty k = 0.162831
         8         7         9        35     9        0.000000        0.597891         3    ;  uncertainty k = 0.213820
         8         7         9        35     9      180.000000       -0.147126         4    ;  uncertainty k = 0.085728
         9         7         6        41     9        0.000000       -0.076341         1    ;  uncertainty k = 0.366783
         9         7         6        41     9      180.000000        7.219076         2    ;  uncertainty k = 0.454955
         9         7         6        41     9        0.000000        0.681365         3    ;  uncertainty k = 0.235475
         9         7         6        41     9      180.000000        1.085006         4    ;  uncertainty k = 0.179244
         9         7         8        42     9        0.000000       -0.246053         1    ;  uncertainty k = 0.312789
         9         7         8        42     9      180.000000        7.277417         2    ;  uncertainty k = 0.350360
         9         7         8        42     9        0.000000        0.649378         3    ;  uncertainty k = 0.270892
         9         7         8        42     9      180.000000        1.080375         4    ;  uncertainty k = 0.243572
         9        10        11        12     9        0.000000       -0.820618         1    ;  uncertainty k = 4.201630
         9        10        11        12     9      180.000000       12.743480         2    ;  uncertainty k = 0.795453
         9        10        11        12     9        0.000000        1.857137         3    ;  uncertainty k = 0.933317
         9        10        11        12     9      180.000000        0.105964         4    ;  uncertainty k = 0.378437
         9        10        11        32     9        0.000000        3.769775         1    ;  uncertainty k = 2.517534
         9        10        11        32     9      180.000000        4.717819         2    ;  uncertainty k = 1.316030
         9        10        11        32     9        0.000000        1.834097         3    ;  uncertainty k = 0.691388
         9        10        11        32     9      180.000000        0.356474         4    ;  uncertainty k = 0.590423
         9        35        34        32     9        0.000000       -0.226805         1    ;  uncertainty k = 0.717569
         9        35        34        32     9      180.000000       17.785054         2    ;  uncertainty k = 0.307392
         9        35        34        32     9        0.000000        0.664641         3    ;  uncertainty k = 0.441223
         9        35        34        32     9      180.000000        0.995092         4    ;  uncertainty k = 0.358294
         9        35        34        63     9        0.000000       -0.366873         1    ;  uncertainty k = 0.805148
         9        35        34        63     9      180.000000       16.600714         2    ;  uncertainty k = 0.651363
         9        35        34        63     9        0.000000        1.949415         3    ;  uncertainty k = 0.316848
         9        35        34        63     9      180.000000        1.165180         4    ;  uncertainty k = 0.578586
        10         9        35        34     9        0.000000        0.333165         1    ;  uncertainty k = 1.379289
        10         9        35        34     9      180.000000        4.382323         2    ;  uncertainty k = 0.782280
        10         9        35        34     9        0.000000        0.207229         3    ;  uncertainty k = 0.461366
        10         9        35        34     9      180.000000        0.600525         4    ;  uncertainty k = 0.186392
        10         9        35        64     9        0.000000       -0.996046         1    ;  uncertainty k = 0.822768
        10         9        35        64     9      180.000000        4.540335         2    ;  uncertainty k = 0.804451
        10         9        35        64     9        0.000000        0.748858         3    ;  uncertainty k = 0.438300
        10         9        35        64     9      180.000000        0.505497         4    ;  uncertainty k = 0.171658
        10        11        12        13     9        0.000000        0.436874         1    ;  uncertainty k = 0.691877
        10        11        12        13     9      180.000000        0.068828         2    ;  uncertainty k = 0.314386
        10        11        12        13     9        0.000000        0.773356         3    ;  uncertainty k = 0.370061
        10        11        12        13     9      180.000000        0.186067         4    ;  uncertainty k = 0.072048
        10        11        12        43     9        0.000000        0.383409         1    ;  uncertainty k = 0.534068
        10        11        12        43     9      180.000000        1.169991         2    ;  uncertainty k = 0.403949
        10        11        12        43     9        0.000000        0.582239         3    ;  uncertainty k = 0.072429
        10        11        12        43     9      180.000000        0.242244         4    ;  uncertainty k = 0.129086
        10        11        12        44     9        0.000000        0.383409         1    ;  uncertainty k = 0.534068
        10        11        12        44     9      180.000000        1.169991         2    ;  uncertainty k = 0.403949
        10        11        12        44     9        0.000000        0.582239         3    ;  uncertainty k = 0.072429
        10        11        12        44     9      180.000000        0.242244         4    ;  uncertainty k = 0.129086
        10        11        32        33     9        0.000000        2.605131         1    ;  uncertainty k = 1.172600
        10        11        32        33     9      180.000000       10.822446         2    ;  uncertainty k = 0.452983
        10        11        32        33     9        0.000000        1.231348         3    ;  uncertainty k = 0.502015
        10        11        32        33     9      180.000000       -0.281985         4    ;  uncertainty k = 0.368204
        10        11        32        34     9        0.000000        2.898930         1    ;  uncertainty k = 2.397583
        10        11        32        34     9      180.000000        2.029915         2    ;  uncertainty k = 0.771882
        10        11        32        34     9        0.000000        1.223009         3    ;  uncertainty k = 0.519453
        10        11        32        34     9      180.000000        0.577304         4    ;  uncertainty k = 0.261782
        11        10         9        35     9        0.000000        0.180083         1    ;  uncertainty k = 0.765912
        11        10         9        35     9      180.000000       24.458372         2    ;  uncertainty k = 0.191175
        11        10         9        35     9        0.000000        1.986063         3    ;  uncertainty k = 0.591079
        11        10         9        35     9      180.000000        0.717229         4    ;  uncertainty k = 0.275220
        11        12        13        14     9        0.000000        1.872176         1    ;  uncertainty k = 0.800661
        11        12        13        14     9      180.000000        2.343492         2    ;  uncertainty k = 0.316385
        11        12        13        14     9        0.000000        0.624301         3    ;  uncertainty k = 0.152598
        11        12        13        14     9      180.000000        0.095646         4    ;  uncertainty k = 0.049876
        11        12        13        18     9        0.000000        1.978358         1    ;  uncertainty k = 0.908937
        11        12        13        18     9      180.000000        2.263895         2    ;  uncertainty k = 0.392654
        11        12        13        18     9        0.000000        0.571494         3    ;  uncertainty k = 0.238357
        11        12        13        18     9      180.000000        0.100637         4    ;  uncertainty k = 0.060188
        11        32        34        35     9        0.000000        0.419275         1    ;  uncertainty k = 2.274476
        11        32        34        35     9      180.000000        1.605235         2    ;  uncertainty k = 0.697546
        11        32        34        35     9        0.000000       -0.163994         3    ;  uncertainty k = 0.200172
        11        32        34        35     9      180.000000        0.325528         4    ;  uncertainty k = 0.077908
        11        32        34        63     9        0.000000       -1.120181         1    ;  uncertainty k = 2.456074
        11        32        34        63     9      180.000000        2.364369         2    ;  uncertainty k = 0.329356
        11        32        34        63     9        0.000000        0.459245         3    ;  uncertainty k = 0.206811
        11        32        34        63     9      180.000000        0.273913         4    ;  uncertainty k = 0.151694
        12        11        32        33     9        0.000000        0.936355         1    ;  uncertainty k = 1.270751
        12        11        32        33     9      180.000000       11.759398         2    ;  uncertainty k = 0.389288
        12        11        32        33     9        0.000000        0.652542         3    ;  uncertainty k = 0.132948
        12        11        32        33     9      180.000000       -0.183661         4    ;  uncertainty k = 0.344178
        12        11        32        34     9        0.000000        0.634209         1    ;  uncertainty k = 1.109147
        12        11        32        34     9      180.000000        7.729795         2    ;  uncertainty k = 0.355043
        12        11        32        34     9        0.000000        1.756335         3    ;  uncertainty k = 0.398208
        12        11        32        34     9      180.000000       -0.228898         4    ;  uncertainty k = 0.310568
        12        13        14        15     9        0.000000        0.224489         1    ;  uncertainty k = 0.225259
        12        13        14        15     9      180.000000        9.771506         2    ;  uncertainty k = 0.581586
        12        13        14        15     9        0.000000        1.297806         3    ;  uncertainty k = 0.327208
        12        13        14        15     9      180.000000        1.799937         4    ;  uncertainty k = 0.234902
        12        13        14        45     9        0.000000        0.024907         1    ;  uncertainty k = 0.237816
        12        13        14        45     9      180.000000        7.591234         2    ;  uncertainty k = 0.209683
        12        13        14        45     9        0.000000        0.605780         3    ;  uncertainty k = 0.275315
        12        13        14        45     9      180.000000        1.047430         4    ;  uncertainty k = 0.187218
        12        13        18        17     9        0.000000        0.118765         1    ;  uncertainty k = 0.282848
        12        13        18        17     9      180.000000        9.675916         2    ;  uncertainty k = 0.673833
        12        13        18        17     9        0.000000        1.284044         3    ;  uncertainty k = 0.243148
        12        13        18        17     9      180.000000        1.626378         4    ;  uncertainty k = 0.321831
        12        13        18        48     9        0.000000       -0.028493         1    ;  uncertainty k = 0.275425
        12        13        18        48     9      180.000000        7.704185         2    ;  uncertainty k = 0.344090
        12        13        18        48     9        0.000000        0.555185         3    ;  uncertainty k = 0.312929
        12        13        18        48     9      180.000000        1.094337         4    ;  uncertainty k = 0.153019
        13        12        11        32     9        0.000000        1.507109         1    ;  uncertainty k = 0.389926
        13        12        11        32     9      180.000000       -0.022659         2    ;  uncertainty k = 0.137067
        13        12        11        32     9        0.000000        0.224963         3    ;  uncertainty k = 0.239204
        13        12        11        32     9      180.000000        0.248492         4    ;  uncertainty k = 0.123687
        13        14        15        16     9        0.000000       -0.198149         1    ;  uncertainty k = 0.198432
        13        14        15        16     9      180.000000       13.546948         2    ;  uncertainty k = 0.336771
        13        14        15        16     9        0.000000       -0.836209         3    ;  uncertainty k = 0.420102
        13        14        15        16     9      180.000000        0.757474         4    ;  uncertainty k = 0.245679
        13        14        15        46     9        0.000000        0.034905         1    ;  uncertainty k = 0.206612
        13        14        15        46     9      180.000000        7.538891         2    ;  uncertainty k = 0.336445
        13        14        15        46     9        0.000000        1.380115         3    ;  uncertainty k = 0.190287
        13        14        15        46     9      180.000000        1.793403         4    ;  uncertainty k = 0.112527
        13        18        17        16     9        0.000000        0.048057         1    ;  uncertainty k = 0.220108
        13        18        17        16     9      180.000000       10.093092         2    ;  uncertainty k = 0.340527
        13        18        17        16     9        0.000000       -0.353064         3    ;  uncertainty k = 0.243859
        13        18        17        16     9      180.000000        1.031206         4    ;  uncertainty k = 0.212000
        13        18        17        19     9        0.000000        0.279165         1    ;  uncertainty k = 0.321562
        13        18        17        19     9      180.000000        8.837917         2    ;  uncertainty k = 0.475965
        13        18        17        19     9        0.000000        1.187740         3    ;  uncertainty k = 0.267359
        13        18        17        19     9      180.000000        1.682796         4    ;  uncertainty k = 0.105273
        14        13        12        43     9        0.000000       -0.527350         1    ;  uncertainty k = 0.230407
        14        13        12        43     9      180.000000        2.024929         2    ;  uncertainty k = 0.120209
        14        13        12        43     9        0.000000        0.504962         3    ;  uncertainty k = 0.061192
        14        13        12        43     9      180.000000        0.145045         4    ;  uncertainty k = 0.047061
        14        13        12        44     9        0.000000       -0.527350         1    ;  uncertainty k = 0.230407
        14        13        12        44     9      180.000000        2.024929         2    ;  uncertainty k = 0.120209
        14        13        12        44     9        0.000000        0.504962         3    ;  uncertainty k = 0.061192
        14        13        12        44     9      180.000000        0.145045         4    ;  uncertainty k = 0.047061
        14        13        18        17     9        0.000000       -0.291846         1    ;  uncertainty k = 0.244096
        14        13        18        17     9      180.000000       10.704491         2    ;  uncertainty k = 0.719214
        14        13        18        17     9        0.000000       -0.107596         3    ;  uncertainty k = 0.114190
        14        13        18        17     9      180.000000        1.012333         4    ;  uncertainty k = 0.477813
        14        13        18        48     9        0.000000        0.202167         1    ;  uncertainty k = 0.173866
        14        13        18        48     9      180.000000        7.402416         2    ;  uncertainty k = 0.589117
        14        13        18        48     9        0.000000        1.310845         3    ;  uncertainty k = 0.225603
        14        13        18        48     9      180.000000        1.667004         4    ;  uncertainty k = 0.181394
        14        15        16        17     9        0.000000       -0.088013         1    ;  uncertainty k = 0.116952
        14        15        16        17     9      180.000000       13.336528         2    ;  uncertainty k = 0.272805
        14        15        16        17     9        0.000000       -0.705599         3    ;  uncertainty k = 0.378680
        14        15        16        17     9      180.000000        0.796969         4    ;  uncertainty k = 0.231917
        14        15        16        47     9        0.000000        0.032233         1    ;  uncertainty k = 0.139810
        14        15        16        47     9      180.000000        7.347841         2    ;  uncertainty k = 0.261637
        14        15        16        47     9        0.000000        1.375632         3    ;  uncertainty k = 0.194678
        14        15        16        47     9      180.000000        1.836254         4    ;  uncertainty k = 0.206650
        15        14        13        18     9        0.000000       -0.215689         1    ;  uncertainty k = 0.137642
        15        14        13        18     9      180.000000       11.477596         2    ;  uncertainty k = 0.433452
        15        14        13        18     9        0.000000       -0.531144         3    ;  uncertainty k = 0.269027
        15        14        13        18     9      180.000000        0.839995         4    ;  uncertainty k = 0.394476
        15        16        17        18     9        0.000000        0.024908         1    ;  uncertainty k = 0.222941
        15        16        17        18     9      180.000000       10.946209         2    ;  uncertainty k = 0.223708
        15        16        17        18     9        0.000000       -0.601144         3    ;  uncertainty k = 0.171401
        15        16        17        18     9      180.000000        0.902860         4    ;  uncertainty k = 0.223032
        15        16        17        19     9        0.000000        0.339849         1    ;  uncertainty k = 0.442811
        15        16        17        19     9      180.000000        9.060789         2    ;  uncertainty k = 0.586016
        15        16        17        19     9        0.000000        1.180518         3    ;  uncertainty k = 0.373562
        15        16        17        19     9      180.000000        1.741149         4    ;  uncertainty k = 0.148939
        16        15        14        45     9        0.000000        0.056862         1    ;  uncertainty k = 0.128735
        16        15        14        45     9      180.000000        7.661115         2    ;  uncertainty k = 0.430435
        16        15        14        45     9        0.000000        1.432913         3    ;  uncertainty k = 0.237268
        16        15        14        45     9      180.000000        1.776467         4    ;  uncertainty k = 0.116766
        16        17        18        48     9        0.000000        0.354885         1    ;  uncertainty k = 0.112926
        16        17        18        48     9      180.000000        7.246115         2    ;  uncertainty k = 0.602098
        16        17        18        48     9        0.000000        1.301880         3    ;  uncertainty k = 0.265984
        16        17        18        48     9      180.000000        1.658007         4    ;  uncertainty k = 0.260696
        16        17        19        20     9        0.000000        0.480084         1    ;  uncertainty k = 0.594424
        16        17        19        20     9      180.000000        4.691410         2    ;  uncertainty k = 0.172266
        16        17        19        20     9        0.000000        0.515016         3    ;  uncertainty k = 0.136639
        16        17        19        20     9      180.000000        0.033086         4    ;  uncertainty k = 0.042749
        16        17        19        31     9        0.000000        0.480084         1    ;  uncertainty k = 0.594424
        16        17        19        31     9      180.000000        4.691410         2    ;  uncertainty k = 0.172266
        16        17        19        31     9        0.000000        0.515016         3    ;  uncertainty k = 0.136639
        16        17        19        31     9      180.000000        0.033086         4    ;  uncertainty k = 0.042749
        17        16        15        46     9        0.000000       -0.041388         1    ;  uncertainty k = 0.161787
        17        16        15        46     9      180.000000        7.886652         2    ;  uncertainty k = 0.569641
        17        16        15        46     9        0.000000        1.380916         3    ;  uncertainty k = 0.236625
        17        16        15        46     9      180.000000        1.750717         4    ;  uncertainty k = 0.174638
        17        19        20        21     9        0.000000       -0.039227         1    ;  uncertainty k = 1.013981
        17        19        20        21     9      180.000000       11.598510         2    ;  uncertainty k = 0.430459
        17        19        20        21     9        0.000000        2.081244         3    ;  uncertainty k = 0.284751
        17        19        20        21     9      180.000000        1.038847         4    ;  uncertainty k = 0.398591
        17        19        31        30     9        0.000000       -0.039227         1    ;  uncertainty k = 1.013981
        17        19        31        30     9      180.000000       11.598510         2    ;  uncertainty k = 0.430459
        17        19        31        30     9        0.000000        2.081244         3    ;  uncertainty k = 0.284751
        17        19        31        30     9      180.000000        1.038847         4    ;  uncertainty k = 0.398591
        18        13        12        43     9        0.000000       -0.467501         1    ;  uncertainty k = 0.342458
        18        13        12        43     9      180.000000        1.866855         2    ;  uncertainty k = 0.132943
        18        13        12        43     9        0.000000        0.468388         3    ;  uncertainty k = 0.097662
        18        13        12        43     9      180.000000        0.149866         4    ;  uncertainty k = 0.032013
        18        13        12        44     9        0.000000       -0.467501         1    ;  uncertainty k = 0.342458
        18        13        12        44     9      180.000000        1.866855         2    ;  uncertainty k = 0.132943
        18        13        12        44     9        0.000000        0.468388         3    ;  uncertainty k = 0.097662
        18        13        12        44     9      180.000000        0.149866         4    ;  uncertainty k = 0.032013
        18        13        14        45     9        0.000000        0.259375         1    ;  uncertainty k = 0.177208
        18        13        14        45     9      180.000000        7.185687         2    ;  uncertainty k = 0.664902
        18        13        14        45     9        0.000000        1.407609         3    ;  uncertainty k = 0.323470
        18        13        14        45     9      180.000000        1.653409         4    ;  uncertainty k = 0.179616
        18        17        16        47     9        0.000000        0.242999         1    ;  uncertainty k = 0.116873
        18        17        16        47     9      180.000000        7.003600         2    ;  uncertainty k = 0.458506
        18        17        16        47     9        0.000000        1.292743         3    ;  uncertainty k = 0.255453
        18        17        16        47     9      180.000000        1.631586         4    ;  uncertainty k = 0.270965
        18        17        19        20     9        0.000000        0.460215         1    ;  uncertainty k = 0.593509
        18        17        19        20     9      180.000000        4.674515         2    ;  uncertainty k = 0.148568
        18        17        19        20     9        0.000000        0.513355         3    ;  uncertainty k = 0.124843
        18        17        19        20     9      180.000000        0.023825         4    ;  uncertainty k = 0.044346
        18        17        19        31     9        0.000000        0.460215         1    ;  uncertainty k = 0.593509
        18        17        19        31     9      180.000000        4.674515         2    ;  uncertainty k = 0.148568
        18        17        19        31     9        0.000000        0.513355         3    ;  uncertainty k = 0.124843
        18        17        19        31     9      180.000000        0.023825         4    ;  uncertainty k = 0.044346
        19        17        16        47     9        0.000000       -0.226944         1    ;  uncertainty k = 0.381913
        19        17        16        47     9      180.000000        7.648231         2    ;  uncertainty k = 0.403961
        19        17        16        47     9        0.000000        0.669874         3    ;  uncertainty k = 0.181969
        19        17        16        47     9      180.000000        1.201642         4    ;  uncertainty k = 0.104618
        19        17        18        48     9        0.000000       -0.127594         1    ;  uncertainty k = 0.220578
        19        17        18        48     9      180.000000        7.665698         2    ;  uncertainty k = 0.373039
        19        17        18        48     9        0.000000        0.717374         3    ;  uncertainty k = 0.167859
        19        17        18        48     9      180.000000        1.266451         4    ;  uncertainty k = 0.117304
        19        20        21        22     9        0.000000       -0.201571         1    ;  uncertainty k = 0.354381
        19        20        21        22     9      180.000000       16.068276         2    ;  uncertainty k = 0.230903
        19        20        21        22     9        0.000000        0.194740         3    ;  uncertainty k = 0.593376
        19        20        21        22     9      180.000000        1.544701         4    ;  uncertainty k = 0.361395
        19        20        21        49     9        0.000000        0.319906         1    ;  uncertainty k = 0.607510
        19        20        21        49     9      180.000000       15.431788         2    ;  uncertainty k = 0.483098
        19        20        21        49     9        0.000000        1.763309         3    ;  uncertainty k = 0.818117
        19        20        21        49     9      180.000000        1.578522         4    ;  uncertainty k = 0.329454
        19        31        30        22     9        0.000000       -0.201571         1    ;  uncertainty k = 0.354381
        19        31        30        22     9      180.000000       16.068276         2    ;  uncertainty k = 0.230903
        19        31        30        22     9        0.000000        0.194740         3    ;  uncertainty k = 0.593376
        19        31        30        22     9      180.000000        1.544701         4    ;  uncertainty k = 0.361395
        19        31        30        62     9        0.000000        0.319906         1    ;  uncertainty k = 0.607510
        19        31        30        62     9      180.000000       15.431788         2    ;  uncertainty k = 0.483098
        19        31        30        62     9        0.000000        1.763309         3    ;  uncertainty k = 0.818117
        19        31        30        62     9      180.000000        1.578522         4    ;  uncertainty k = 0.329454
        20        19        31        30     9        0.000000       -0.509364         1    ;  uncertainty k = 0.586663
        20        19        31        30     9      180.000000       12.107978         2    ;  uncertainty k = 0.197300
        20        19        31        30     9        0.000000        1.078751         3    ;  uncertainty k = 0.445366
        20        19        31        30     9      180.000000        0.975973         4    ;  uncertainty k = 0.095253
        20        21        22        23     9        0.000000       -0.043850         1    ;  uncertainty k = 0.311241
        20        21        22        23     9      180.000000       11.385626         2    ;  uncertainty k = 0.560019
        20        21        22        23     9        0.000000        0.887978         3    ;  uncertainty k = 0.306491
        20        21        22        23     9      180.000000        1.370557         4    ;  uncertainty k = 0.351743
        20        21        22        30     9        0.000000       -0.295425         1    ;  uncertainty k = 0.430236
        20        21        22        30     9      180.000000        9.210914         2    ;  uncertainty k = 0.610381
        20        21        22        30     9        0.000000       -0.519632         3    ;  uncertainty k = 0.219368
        20        21        22        30     9      180.000000        1.148160         4    ;  uncertainty k = 0.367749
        21        20        19        31     9        0.000000       -0.509364         1    ;  uncertainty k = 0.586663
        21        20        19        31     9      180.000000       12.107978         2    ;  uncertainty k = 0.197300
        21        20        19        31     9        0.000000        1.078751         3    ;  uncertainty k = 0.445366
        21        20        19        31     9      180.000000        0.975973         4    ;  uncertainty k = 0.095253
        21        22        23        24     9        0.000000        0.820936         1    ;  uncertainty k = 1.034517
        21        22        23        24     9      180.000000        5.793384         2    ;  uncertainty k = 0.146348
        21        22        23        24     9        0.000000        0.470689         3    ;  uncertainty k = 0.242081
        21        22        23        24     9      180.000000        0.189550         4    ;  uncertainty k = 0.090855
        21        22        30        31     9        0.000000       -0.295425         1    ;  uncertainty k = 0.430236
        21        22        30        31     9      180.000000        9.210914         2    ;  uncertainty k = 0.610381
        21        22        30        31     9        0.000000       -0.519632         3    ;  uncertainty k = 0.219368
        21        22        30        31     9      180.000000        1.148160         4    ;  uncertainty k = 0.367749
        21        22        30        62     9        0.000000       -0.499515         1    ;  uncertainty k = 0.489777
        21        22        30        62     9      180.000000        3.941067         2    ;  uncertainty k = 1.348308
        21        22        30        62     9        0.000000        0.782234         3    ;  uncertainty k = 0.096981
        21        22        30        62     9      180.000000        1.097834         4    ;  uncertainty k = 0.213078
        22        23        24        25     9        0.000000       -0.930636         1    ;  uncertainty k = 0.588578
        22        23        24        25     9      180.000000       -0.376178         2    ;  uncertainty k = 0.529970
        22        23        24        25     9        0.000000        0.725160         3    ;  uncertainty k = 0.189874
        22        23        24        25     9      180.000000        0.490796         4    ;  uncertainty k = 0.086520
        22        23        24        50     9        0.000000        0.534539         1    ;  uncertainty k = 0.568457
        22        23        24        50     9      180.000000       -1.278925         2    ;  uncertainty k = 0.261563
        22        23        24        50     9        0.000000        0.631695         3    ;  uncertainty k = 0.061607
        22        23        24        50     9      180.000000        0.276100         4    ;  uncertainty k = 0.105921
        22        23        24        51     9        0.000000        0.534539         1    ;  uncertainty k = 0.568457
        22        23        24        51     9      180.000000       -1.278925         2    ;  uncertainty k = 0.261563
        22        23        24        51     9        0.000000        0.631695         3    ;  uncertainty k = 0.061607
        22        23        24        51     9      180.000000        0.276100         4    ;  uncertainty k = 0.105921
        23        22        21        49     9        0.000000        0.068117         1    ;  uncertainty k = 0.304076
        23        22        21        49     9      180.000000        7.201543         2    ;  uncertainty k = 0.304571
        23        22        21        49     9        0.000000        0.660189         3    ;  uncertainty k = 0.161390
        23        22        21        49     9      180.000000        1.001412         4    ;  uncertainty k = 0.193036
        23        22        30        31     9        0.000000       -0.043850         1    ;  uncertainty k = 0.311241
        23        22        30        31     9      180.000000       11.385626         2    ;  uncertainty k = 0.560019
        23        22        30        31     9        0.000000        0.887978         3    ;  uncertainty k = 0.306491
        23        22        30        31     9      180.000000        1.370557         4    ;  uncertainty k = 0.351743
        23        22        30        62     9        0.000000        0.068117         1    ;  uncertainty k = 0.304076
        23        22        30        62     9      180.000000        7.201543         2    ;  uncertainty k = 0.304571
        23        22        30        62     9        0.000000        0.660189         3    ;  uncertainty k = 0.161390
        23        22        30        62     9      180.000000        1.001412         4    ;  uncertainty k = 0.193036
        23        24        25        26     9        0.000000       -2.507368         1    ;  uncertainty k = 0.906809
        23        24        25        26     9      180.000000       -2.778734         2    ;  uncertainty k = 0.364148
        23        24        25        26     9        0.000000        2.066320         3    ;  uncertainty k = 0.244165
        23        24        25        26     9      180.000000       -0.467468         4    ;  uncertainty k = 0.205526
        23        24        25        52     9        0.000000        0.183874         1    ;  uncertainty k = 0.289911
        23        24        25        52     9      180.000000       -1.760727         2    ;  uncertainty k = 0.440781
        23        24        25        52     9        0.000000        1.297158         3    ;  uncertainty k = 0.166268
        23        24        25        52     9      180.000000       -0.000243         4    ;  uncertainty k = 0.043602
        23        24        25        53     9        0.000000        0.183874         1    ;  uncertainty k = 0.289911
        23        24        25        53     9      180.000000       -1.760727         2    ;  uncertainty k = 0.440781
        23        24        25        53     9        0.000000        1.297158         3    ;  uncertainty k = 0.166268
        23        24        25        53     9      180.000000       -0.000243         4    ;  uncertainty k = 0.043602
        24        23        22        30     9        0.000000        0.820936         1    ;  uncertainty k = 1.034517
        24        23        22        30     9      180.000000        5.793384         2    ;  uncertainty k = 0.146348
        24        23        22        30     9        0.000000        0.470689         3    ;  uncertainty k = 0.242081
        24        23        22        30     9      180.000000        0.189550         4    ;  uncertainty k = 0.090855
        24        25        26        27     9        0.000000       -3.540051         1    ;  uncertainty k = 1.374319
        24        25        26        27     9      180.000000       -2.909383         2    ;  uncertainty k = 0.503810
        24        25        26        27     9        0.000000        1.881494         3    ;  uncertainty k = 0.213958
        24        25        26        27     9      180.000000       -0.336049         4    ;  uncertainty k = 0.264436
        24        25        26        54     9        0.000000       -1.518711         1    ;  uncertainty k = 0.680553
        24        25        26        54     9      180.000000       -0.009468         2    ;  uncertainty k = 0.299198
        24        25        26        54     9        0.000000        0.846782         3    ;  uncertainty k = 0.040972
        24        25        26        54     9      180.000000       -0.274900         4    ;  uncertainty k = 0.106808
        24        25        26        55     9        0.000000       -1.518711         1    ;  uncertainty k = 0.680553
        24        25        26        55     9      180.000000       -0.009468         2    ;  uncertainty k = 0.299198
        24        25        26        55     9        0.000000        0.846782         3    ;  uncertainty k = 0.040972
        24        25        26        55     9      180.000000       -0.274900         4    ;  uncertainty k = 0.106808
        25        26        27        28     9        0.000000       -1.799053         1    ;  uncertainty k = 0.617898
        25        26        27        28     9      180.000000        0.620208         2    ;  uncertainty k = 0.618509
        25        26        27        28     9        0.000000        1.171947         3    ;  uncertainty k = 0.210507
        25        26        27        28     9      180.000000       -0.141034         4    ;  uncertainty k = 0.093930
        25        26        27        29     9        0.000000       -1.799053         1    ;  uncertainty k = 0.617898
        25        26        27        29     9      180.000000        0.620208         2    ;  uncertainty k = 0.618509
        25        26        27        29     9        0.000000        1.171947         3    ;  uncertainty k = 0.210507
        25        26        27        29     9      180.000000       -0.141034         4    ;  uncertainty k = 0.093930
        25        26        27        65     9        0.000000       -1.088867         1    ;  uncertainty k = 0.623506
        25        26        27        65     9      180.000000       -0.294223         2    ;  uncertainty k = 0.426560
        25        26        27        65     9        0.000000        0.443286         3    ;  uncertainty k = 0.167221
        25        26        27        65     9      180.000000       -0.139785         4    ;  uncertainty k = 0.119420
        26        25        24        50     9        0.000000       -2.076333         1    ;  uncertainty k = 0.417241
        26        25        24        50     9      180.000000       -0.244316         2    ;  uncertainty k = 0.207782
        26        25        24        50     9        0.000000        0.938736         3    ;  uncertainty k = 0.133120
        26        25        24        50     9      180.000000       -0.386174         4    ;  uncertainty k = 0.161549
        26        25        24        51     9        0.000000       -2.076333         1    ;  uncertainty k = 0.417241
        26        25        24        51     9      180.000000       -0.244316         2    ;  uncertainty k = 0.207782
        26        25        24        51     9        0.000000        0.938736         3    ;  uncertainty k = 0.133120
        26        25        24        51     9      180.000000       -0.386174         4    ;  uncertainty k = 0.161549
        26        27        28        56     9        0.000000       -0.355653         1    ;  uncertainty k = 0.629650
        26        27        28        56     9      180.000000       -1.015355         2    ;  uncertainty k = 0.338816
        26        27        28        56     9        0.000000        1.210064         3    ;  uncertainty k = 0.071384
        26        27        28        56     9      180.000000       -0.032477         4    ;  uncertainty k = 0.094872
        26        27        28        57     9        0.000000       -0.355653         1    ;  uncertainty k = 0.629650
        26        27        28        57     9      180.000000       -1.015355         2    ;  uncertainty k = 0.338816
        26        27        28        57     9        0.000000        1.210064         3    ;  uncertainty k = 0.071384
        26        27        28        57     9      180.000000       -0.032477         4    ;  uncertainty k = 0.094872
        26        27        28        58     9        0.000000       -0.355653         1    ;  uncertainty k = 0.629650
        26        27        28        58     9      180.000000       -1.015355         2    ;  uncertainty k = 0.338816
        26        27        28        58     9        0.000000        1.210064         3    ;  uncertainty k = 0.071384
        26        27        28        58     9      180.000000       -0.032477         4    ;  uncertainty k = 0.094872
        26        27        29        59     9        0.000000       -0.355653         1    ;  uncertainty k = 0.629650
        26        27        29        59     9      180.000000       -1.015355         2    ;  uncertainty k = 0.338816
        26        27        29        59     9        0.000000        1.210064         3    ;  uncertainty k = 0.071384
        26        27        29        59     9      180.000000       -0.032477         4    ;  uncertainty k = 0.094872
        26        27        29        60     9        0.000000       -0.355653         1    ;  uncertainty k = 0.629650
        26        27        29        60     9      180.000000       -1.015355         2    ;  uncertainty k = 0.338816
        26        27        29        60     9        0.000000        1.210064         3    ;  uncertainty k = 0.071384
        26        27        29        60     9      180.000000       -0.032477         4    ;  uncertainty k = 0.094872
        26        27        29        61     9        0.000000       -0.355653         1    ;  uncertainty k = 0.629650
        26        27        29        61     9      180.000000       -1.015355         2    ;  uncertainty k = 0.338816
        26        27        29        61     9        0.000000        1.210064         3    ;  uncertainty k = 0.071384
        26        27        29        61     9      180.000000       -0.032477         4    ;  uncertainty k = 0.094872
        27        26        25        52     9        0.000000        0.513644         1    ;  uncertainty k = 0.526481
        27        26        25        52     9      180.000000       -2.443851         2    ;  uncertainty k = 0.416854
        27        26        25        52     9        0.000000        1.118914         3    ;  uncertainty k = 0.258923
        27        26        25        52     9      180.000000       -0.159078         4    ;  uncertainty k = 0.093891
        27        26        25        53     9        0.000000        0.513644         1    ;  uncertainty k = 0.526481
        27        26        25        53     9      180.000000       -2.443851         2    ;  uncertainty k = 0.416854
        27        26        25        53     9        0.000000        1.118914         3    ;  uncertainty k = 0.258923
        27        26        25        53     9      180.000000       -0.159078         4    ;  uncertainty k = 0.093891
        28        27        26        54     9        0.000000       -0.460543         1    ;  uncertainty k = 0.348594
        28        27        26        54     9      180.000000       -0.392090         2    ;  uncertainty k = 0.304557
        28        27        26        54     9        0.000000        0.927329         3    ;  uncertainty k = 0.072963
        28        27        26        54     9      180.000000       -0.007234         4    ;  uncertainty k = 0.150355
        28        27        26        55     9        0.000000       -0.460543         1    ;  uncertainty k = 0.348594
        28        27        26        55     9      180.000000       -0.392090         2    ;  uncertainty k = 0.304557
        28        27        26        55     9        0.000000        0.927329         3    ;  uncertainty k = 0.072963
        28        27        26        55     9      180.000000       -0.007234         4    ;  uncertainty k = 0.150355
        28        27        29        59     9        0.000000       -0.651782         1    ;  uncertainty k = 0.566291
        28        27        29        59     9      180.000000       -0.654867         2    ;  uncertainty k = 0.378371
        28        27        29        59     9        0.000000        1.225484         3    ;  uncertainty k = 0.063991
        28        27        29        59     9      180.000000       -0.019961         4    ;  uncertainty k = 0.106496
        28        27        29        60     9        0.000000       -0.651782         1    ;  uncertainty k = 0.566291
        28        27        29        60     9      180.000000       -0.654867         2    ;  uncertainty k = 0.378371
        28        27        29        60     9        0.000000        1.225484         3    ;  uncertainty k = 0.063991
        28        27        29        60     9      180.000000       -0.019961         4    ;  uncertainty k = 0.106496
        28        27        29        61     9        0.000000       -0.651782         1    ;  uncertainty k = 0.566291
        28        27        29        61     9      180.000000       -0.654867         2    ;  uncertainty k = 0.378371
        28        27        29        61     9        0.000000        1.225484         3    ;  uncertainty k = 0.063991
        28        27        29        61     9      180.000000       -0.019961         4    ;  uncertainty k = 0.106496
        29        27        26        54     9        0.000000       -0.460543         1    ;  uncertainty k = 0.348594
        29        27        26        54     9      180.000000       -0.392090         2    ;  uncertainty k = 0.304557
        29        27        26        54     9        0.000000        0.927329         3    ;  uncertainty k = 0.072963
        29        27        26        54     9      180.000000       -0.007234         4    ;  uncertainty k = 0.150355
        29        27        26        55     9        0.000000       -0.460543         1    ;  uncertainty k = 0.348594
        29        27        26        55     9      180.000000       -0.392090         2    ;  uncertainty k = 0.304557
        29        27        26        55     9        0.000000        0.927329         3    ;  uncertainty k = 0.072963
        29        27        26        55     9      180.000000       -0.007234         4    ;  uncertainty k = 0.150355
        29        27        28        56     9        0.000000       -0.651782         1    ;  uncertainty k = 0.566291
        29        27        28        56     9      180.000000       -0.654867         2    ;  uncertainty k = 0.378371
        29        27        28        56     9        0.000000        1.225484         3    ;  uncertainty k = 0.063991
        29        27        28        56     9      180.000000       -0.019961         4    ;  uncertainty k = 0.106496
        29        27        28        57     9        0.000000       -0.651782         1    ;  uncertainty k = 0.566291
        29        27        28        57     9      180.000000       -0.654867         2    ;  uncertainty k = 0.378371
        29        27        28        57     9        0.000000        1.225484         3    ;  uncertainty k = 0.063991
        29        27        28        57     9      180.000000       -0.019961         4    ;  uncertainty k = 0.106496
        29        27        28        58     9        0.000000       -0.651782         1    ;  uncertainty k = 0.566291
        29        27        28        58     9      180.000000       -0.654867         2    ;  uncertainty k = 0.378371
        29        27        28        58     9        0.000000        1.225484         3    ;  uncertainty k = 0.063991
        29        27        28        58     9      180.000000       -0.019961         4    ;  uncertainty k = 0.106496
        30        22        21        49     9        0.000000       -0.499515         1    ;  uncertainty k = 0.489777
        30        22        21        49     9      180.000000        3.941067         2    ;  uncertainty k = 1.348308
        30        22        21        49     9        0.000000        0.782234         3    ;  uncertainty k = 0.096981
        30        22        21        49     9      180.000000        1.097834         4    ;  uncertainty k = 0.213078
        32        11        12        43     9        0.000000       -0.473769         1    ;  uncertainty k = 0.528510
        32        11        12        43     9      180.000000        1.255512         2    ;  uncertainty k = 0.273075
        32        11        12        43     9        0.000000        0.779239         3    ;  uncertainty k = 0.054623
        32        11        12        43     9      180.000000        0.411931         4    ;  uncertainty k = 0.034525
        32        11        12        44     9        0.000000       -0.473769         1    ;  uncertainty k = 0.528510
        32        11        12        44     9      180.000000        1.255512         2    ;  uncertainty k = 0.273075
        32        11        12        44     9        0.000000        0.779239         3    ;  uncertainty k = 0.054623
        32        11        12        44     9      180.000000        0.411931         4    ;  uncertainty k = 0.034525
        32        34        35        64     9        0.000000       -0.328810         1    ;  uncertainty k = 0.661921
        32        34        35        64     9      180.000000       15.838401         2    ;  uncertainty k = 0.436273
        32        34        35        64     9        0.000000        1.792267         3    ;  uncertainty k = 0.273245
        32        34        35        64     9      180.000000        1.039596         4    ;  uncertainty k = 0.351736
        33        32        34        35     9        0.000000       -2.001816         1    ;  uncertainty k = 1.317035
        33        32        34        35     9      180.000000        3.389786         2    ;  uncertainty k = 0.746169
        33        32        34        35     9        0.000000       -0.174174         3    ;  uncertainty k = 0.227864
        33        32        34        35     9      180.000000        0.016096         4    ;  uncertainty k = 0.112369
        33        32        34        63     9        0.000000       -3.368926         1    ;  uncertainty k = 1.838219
        33        32        34        63     9      180.000000        6.946405         2    ;  uncertainty k = 0.848337
        33        32        34        63     9        0.000000        0.461532         3    ;  uncertainty k = 0.415057
        33        32        34        63     9      180.000000       -0.155190         4    ;  uncertainty k = 0.180480
        39         4         5        40     9        0.000000       -0.122093         1    ;  uncertainty k = 0.043494
        39         4         5        40     9      180.000000        7.619024         2    ;  uncertainty k = 0.419778
        39         4         5        40     9        0.000000       -0.412667         3    ;  uncertainty k = 0.240819
        39         4         5        40     9      180.000000        0.082732         4    ;  uncertainty k = 0.130017
        40         5         6        41     9        0.000000       -0.128171         1    ;  uncertainty k = 0.303386
        40         5         6        41     9      180.000000        7.715453         2    ;  uncertainty k = 0.391798
        40         5         6        41     9        0.000000       -0.393892         3    ;  uncertainty k = 0.251951
        40         5         6        41     9      180.000000        0.142372         4    ;  uncertainty k = 0.127466
        45        14        15        46     9        0.000000       -0.204015         1    ;  uncertainty k = 0.108870
        45        14        15        46     9      180.000000        7.603270         2    ;  uncertainty k = 0.277408
        45        14        15        46     9        0.000000       -0.440239         3    ;  uncertainty k = 0.271538
        45        14        15        46     9      180.000000        0.118647         4    ;  uncertainty k = 0.133309
        46        15        16        47     9        0.000000       -0.114477         1    ;  uncertainty k = 0.217566
        46        15        16        47     9      180.000000        7.749075         2    ;  uncertainty k = 0.386440
        46        15        16        47     9        0.000000       -0.417170         3    ;  uncertainty k = 0.284412
        46        15        16        47     9      180.000000        0.165522         4    ;  uncertainty k = 0.153515
        50        24        25        52     9        0.000000        0.473335         1    ;  uncertainty k = 0.235191
        50        24        25        52     9      180.000000       -0.199414         2    ;  uncertainty k = 0.275068
        50        24        25        52     9        0.000000        0.227242         3    ;  uncertainty k = 0.089021
        50        24        25        52     9      180.000000        0.031542         4    ;  uncertainty k = 0.022017
        50        24        25        53     9        0.000000        0.473335         1    ;  uncertainty k = 0.235191
        50        24        25        53     9      180.000000       -0.199414         2    ;  uncertainty k = 0.275068
        50        24        25        53     9        0.000000        0.227242         3    ;  uncertainty k = 0.089021
        50        24        25        53     9      180.000000        0.031542         4    ;  uncertainty k = 0.022017
        51        24        25        52     9        0.000000        0.473335         1    ;  uncertainty k = 0.235191
        51        24        25        52     9      180.000000       -0.199414         2    ;  uncertainty k = 0.275068
        51        24        25        52     9        0.000000        0.227242         3    ;  uncertainty k = 0.089021
        51        24        25        52     9      180.000000        0.031542         4    ;  uncertainty k = 0.022017
        51        24        25        53     9        0.000000        0.473335         1    ;  uncertainty k = 0.235191
        51        24        25        53     9      180.000000       -0.199414         2    ;  uncertainty k = 0.275068
        51        24        25        53     9        0.000000        0.227242         3    ;  uncertainty k = 0.089021
        51        24        25        53     9      180.000000        0.031542         4    ;  uncertainty k = 0.022017
        52        25        26        54     9        0.000000        0.482526         1    ;  uncertainty k = 0.350611
        52        25        26        54     9      180.000000       -0.037011         2    ;  uncertainty k = 0.360522
        52        25        26        54     9        0.000000        0.148871         3    ;  uncertainty k = 0.108991
        52        25        26        54     9      180.000000        0.025944         4    ;  uncertainty k = 0.068041
        52        25        26        55     9        0.000000        0.482526         1    ;  uncertainty k = 0.350611
        52        25        26        55     9      180.000000       -0.037011         2    ;  uncertainty k = 0.360522
        52        25        26        55     9        0.000000        0.148871         3    ;  uncertainty k = 0.108991
        52        25        26        55     9      180.000000        0.025944         4    ;  uncertainty k = 0.068041
        53        25        26        54     9        0.000000        0.482526         1    ;  uncertainty k = 0.350611
        53        25        26        54     9      180.000000       -0.037011         2    ;  uncertainty k = 0.360522
        53        25        26        54     9        0.000000        0.148871         3    ;  uncertainty k = 0.108991
        53        25        26        54     9      180.000000        0.025944         4    ;  uncertainty k = 0.068041
        53        25        26        55     9        0.000000        0.482526         1    ;  uncertainty k = 0.350611
        53        25        26        55     9      180.000000       -0.037011         2    ;  uncertainty k = 0.360522
        53        25        26        55     9        0.000000        0.148871         3    ;  uncertainty k = 0.108991
        53        25        26        55     9      180.000000        0.025944         4    ;  uncertainty k = 0.068041
        54        26        27        65     9        0.000000        0.900143         1    ;  uncertainty k = 0.580619
        54        26        27        65     9      180.000000       -0.586377         2    ;  uncertainty k = 0.270793
        54        26        27        65     9        0.000000       -0.005709         3    ;  uncertainty k = 0.197916
        54        26        27        65     9      180.000000       -0.037529         4    ;  uncertainty k = 0.093442
        55        26        27        65     9        0.000000        0.900143         1    ;  uncertainty k = 0.580619
        55        26        27        65     9      180.000000       -0.586377         2    ;  uncertainty k = 0.270793
        55        26        27        65     9        0.000000       -0.005709         3    ;  uncertainty k = 0.197916
        55        26        27        65     9      180.000000       -0.037529         4    ;  uncertainty k = 0.093442
        56        28        27        65     9        0.000000        0.051180         1    ;  uncertainty k = 0.508163
        56        28        27        65     9      180.000000       -0.572991         2    ;  uncertainty k = 0.412866
        56        28        27        65     9        0.000000        0.376090         3    ;  uncertainty k = 0.057152
        56        28        27        65     9      180.000000        0.081725         4    ;  uncertainty k = 0.106529
        57        28        27        65     9        0.000000        0.051180         1    ;  uncertainty k = 0.508163
        57        28        27        65     9      180.000000       -0.572991         2    ;  uncertainty k = 0.412866
        57        28        27        65     9        0.000000        0.376090         3    ;  uncertainty k = 0.057152
        57        28        27        65     9      180.000000        0.081725         4    ;  uncertainty k = 0.106529
        58        28        27        65     9        0.000000        0.051180         1    ;  uncertainty k = 0.508163
        58        28        27        65     9      180.000000       -0.572991         2    ;  uncertainty k = 0.412866
        58        28        27        65     9        0.000000        0.376090         3    ;  uncertainty k = 0.057152
        58        28        27        65     9      180.000000        0.081725         4    ;  uncertainty k = 0.106529
        59        29        27        65     9        0.000000        0.051180         1    ;  uncertainty k = 0.508163
        59        29        27        65     9      180.000000       -0.572991         2    ;  uncertainty k = 0.412866
        59        29        27        65     9        0.000000        0.376090         3    ;  uncertainty k = 0.057152
        59        29        27        65     9      180.000000        0.081725         4    ;  uncertainty k = 0.106529
        60        29        27        65     9        0.000000        0.051180         1    ;  uncertainty k = 0.508163
        60        29        27        65     9      180.000000       -0.572991         2    ;  uncertainty k = 0.412866
        60        29        27        65     9        0.000000        0.376090         3    ;  uncertainty k = 0.057152
        60        29        27        65     9      180.000000        0.081725         4    ;  uncertainty k = 0.106529
        61        29        27        65     9        0.000000        0.051180         1    ;  uncertainty k = 0.508163
        61        29        27        65     9      180.000000       -0.572991         2    ;  uncertainty k = 0.412866
        61        29        27        65     9        0.000000        0.376090         3    ;  uncertainty k = 0.057152
        61        29        27        65     9      180.000000        0.081725         4    ;  uncertainty k = 0.106529
        63        34        35        64     9        0.000000       -0.308549         1    ;  uncertainty k = 0.397503
        63        34        35        64     9      180.000000       12.289337         2    ;  uncertainty k = 0.583478
        63        34        35        64     9        0.000000        1.036027         3    ;  uncertainty k = 0.400453
        63        34        35        64     9      180.000000        0.764719         4    ;  uncertainty k = 0.591319

[ dihedrals ] ; impropers
;       ai        aj        ak        al funct           phase               k        pn
         3         2         4         8     4      180.000000       19.696393         2    ;  uncertainty k = 0.078080
         3         4         8         2     4      180.000000       19.696393         2    ;  uncertainty k = 0.078080
         3         8         2         4     4      180.000000       19.696393         2    ;  uncertainty k = 0.078080
         4         3         5        39     4      180.000000        2.403638         2    ;  uncertainty k = 0.301363
         4         5        39         3     4      180.000000        2.403638         2    ;  uncertainty k = 0.301363
         4        39         3         5     4      180.000000        2.403638         2    ;  uncertainty k = 0.301363
         5         4         6        40     4      180.000000        4.321553         2    ;  uncertainty k = 0.130580
         5         6        40         4     4      180.000000        4.321553         2    ;  uncertainty k = 0.130580
         5        40         4         6     4      180.000000        4.321553         2    ;  uncertainty k = 0.130580
         6         5         7        41     4      180.000000        3.382588         2    ;  uncertainty k = 0.170449
         6         7        41         5     4      180.000000        3.382588         2    ;  uncertainty k = 0.170449
         6        41         5         7     4      180.000000        3.382588         2    ;  uncertainty k = 0.170449
         7         6         8         9     4      180.000000       11.967304         2    ;  uncertainty k = 0.077386
         7         8         9         6     4      180.000000       11.967304         2    ;  uncertainty k = 0.077386
         7         9         6         8     4      180.000000       11.967304         2    ;  uncertainty k = 0.077386
         8         3         7        42     4      180.000000        2.406276         2    ;  uncertainty k = 0.275348
         8         7        42         3     4      180.000000        2.406276         2    ;  uncertainty k = 0.275348
         8        42         3         7     4      180.000000        2.406276         2    ;  uncertainty k = 0.275348
         9         7        10        35     4      180.000000       17.828059         2    ;  uncertainty k = 0.091984
         9        10        35         7     4      180.000000       17.828059         2    ;  uncertainty k = 0.091984
         9        35         7        10     4      180.000000       17.828059         2    ;  uncertainty k = 0.091984
        11        10        12        32     4      180.000000        4.907152         2    ;  uncertainty k = 0.611202
        11        12        32        10     4      180.000000        4.907152         2    ;  uncertainty k = 0.611202
        11        32        10        12     4      180.000000        4.907152         2    ;  uncertainty k = 0.611202
        13        12        14        18     4      180.000000       11.595324         2    ;  uncertainty k = 0.103518
        13        14        18        12     4      180.000000       11.595324         2    ;  uncertainty k = 0.103518
        13        18        12        14     4      180.000000       11.595324         2    ;  uncertainty k = 0.103518
        14        13        15        45     4      180.000000        4.730527         2    ;  uncertainty k = 0.200294
        14        15        45        13     4      180.000000        4.730527         2    ;  uncertainty k = 0.200294
        14        45        13        15     4      180.000000        4.730527         2    ;  uncertainty k = 0.200294
        15        14        16        46     4      180.000000        3.987252         2    ;  uncertainty k = 0.165460
        15        16        46        14     4      180.000000        3.987252         2    ;  uncertainty k = 0.165460
        15        46        14        16     4      180.000000        3.987252         2    ;  uncertainty k = 0.165460
        16        15        17        47     4      180.000000        4.639721         2    ;  uncertainty k = 0.104777
        16        17        47        15     4      180.000000        4.639721         2    ;  uncertainty k = 0.104777
        16        47        15        17     4      180.000000        4.639721         2    ;  uncertainty k = 0.104777
        17        16        18        19     4      180.000000        9.567882         2    ;  uncertainty k = 0.137648
        17        18        19        16     4      180.000000        9.567882         2    ;  uncertainty k = 0.137648
        17        19        16        18     4      180.000000        9.567882         2    ;  uncertainty k = 0.137648
        18        13        17        48     4      180.000000        5.120074         2    ;  uncertainty k = 0.187804
        18        17        48        13     4      180.000000        5.120074         2    ;  uncertainty k = 0.187804
        18        48        13        17     4      180.000000        5.120074         2    ;  uncertainty k = 0.187804
        19        17        20        31     4      180.000000       34.296170         2    ;  uncertainty k = 0.051725
        19        20        31        17     4      180.000000       34.296170         2    ;  uncertainty k = 0.051725
        19        31        17        20     4      180.000000       34.296170         2    ;  uncertainty k = 0.051725
        21        20        22        49     4      180.000000       13.812368         2    ;  uncertainty k = 0.109183
        21        22        49        20     4      180.000000       13.812368         2    ;  uncertainty k = 0.109183
        21        49        20        22     4      180.000000       13.812368         2    ;  uncertainty k = 0.109183
        22        21        23        30     4      180.000000       16.180898         2    ;  uncertainty k = 0.260884
        22        23        30        21     4      180.000000       16.180898         2    ;  uncertainty k = 0.260884
        22        30        21        23     4      180.000000       16.180898         2    ;  uncertainty k = 0.260884
        30        22        31        62     4      180.000000       13.812371         2    ;  uncertainty k = 0.109184
        30        31        62        22     4      180.000000       13.812371         2    ;  uncertainty k = 0.109184
        30        62        22        31     4      180.000000       13.812371         2    ;  uncertainty k = 0.109184
        32        11        33        34     4      180.000000       49.481400         2    ;  uncertainty k = 0.023227
        32        33        34        11     4      180.000000       49.481400         2    ;  uncertainty k = 0.023227
        32        34        11        33     4      180.000000       49.481400         2    ;  uncertainty k = 0.023227
        34        32        35        63     4      180.000000        3.715529         2    ;  uncertainty k = 0.270486
        34        35        63        32     4      180.000000        3.715529         2    ;  uncertainty k = 0.270486
        34        63        32        35     4      180.000000        3.715529         2    ;  uncertainty k = 0.270486
        35         9        34        64     4      180.000000        6.588887         2    ;  uncertainty k = 0.349066
        35        34        64         9     4      180.000000        6.588887         2    ;  uncertainty k = 0.349066
        35        64         9        34     4      180.000000        6.588887         2    ;  uncertainty k = 0.349066

[ pairs ]
;       ai        aj funct
         1         4     1
         1         8     1
         2         5     1
         2         7     1
         2        39     1
         2        42     1
         3         6     1
         3         9     1
         3        36     1
         3        37     1
         3        38     1
         3        40     1
         4         7     1
         4        41     1
         4        42     1
         5         8     1
         5         9     1
         6        10     1
         6        35     1
         6        39     1
         6        42     1
         7        11     1
         7        34     1
         7        40     1
         7        64     1
         8        10     1
         8        35     1
         8        39     1
         8        41     1
         9        12     1
         9        32     1
         9        41     1
         9        42     1
         9        63     1
        10        13     1
        10        33     1
        10        34     1
        10        43     1
        10        44     1
        10        64     1
        11        14     1
        11        18     1
        11        35     1
        11        63     1
        12        15     1
        12        17     1
        12        33     1
        12        34     1
        12        45     1
        12        48     1
        13        16     1
        13        19     1
        13        32     1
        13        46     1
        14        17     1
        14        43     1
        14        44     1
        14        47     1
        14        48     1
        15        18     1
        15        19     1
        16        20     1
        16        31     1
        16        45     1
        16        48     1
        17        21     1
        17        30     1
        17        46     1
        18        20     1
        18        31     1
        18        43     1
        18        44     1
        18        45     1
        18        47     1
        19        22     1
        19        47     1
        19        48     1
        19        49     1
        19        62     1
        20        23     1
        20        30     1
        21        24     1
        21        31     1
        21        62     1
        22        25     1
        22        50     1
        22        51     1
        23        26     1
        23        31     1
        23        49     1
        23        52     1
        23        53     1
        23        62     1
        24        27     1
        24        30     1
        24        54     1
        24        55     1
        25        28     1
        25        29     1
        25        65     1
        26        50     1
        26        51     1
        26        56     1
        26        57     1
        26        58     1
        26        59     1
        26        60     1
        26        61     1
        27        52     1
        27        53     1
        28        54     1
        28        55     1
        28        59     1
        28        60     1
        28        61     1
        29        54     1
        29        55     1
        29        56     1
        29        57     1
        29        58     1
        30        49     1
        32        43     1
        32        44     1
        32        64     1
        33        35     1
        33        63     1
        39        40     1
        40        41     1
        45        46     1
        46        47     1
        50        52     1
        50        53     1
        51        52     1
        51        53     1
        52        54     1
        52        55     1
        53        54     1
        53        55     1
        54        65     1
        55        65     1
        56        65     1
        57        65     1
        58        65     1
        59        65     1
        60        65     1
        61        65     1
        63        64     1
