; ITP file created by ByteFF-joint-25, 2026-02-17 09:09:56.938747

[ atomtypes ]
;name           bonded.type        at.num        mass        charge   ptype           sigma         epsilon
 c0bf                                   6      0.0000       0.00000       A     3.39769e-01     4.50971e-01    ;  uncertainty sigma = 0.000003, epsilon = 0.000579
 c1bf                                   6      0.0000       0.00000       A     3.31511e-01     4.13669e-01    ;  uncertainty sigma = 0.000016, epsilon = 0.000770
 c2bf                                   6      0.0000       0.00000       A     3.31519e-01     4.13358e-01    ;  uncertainty sigma = 0.000007, epsilon = 0.000599
 c3bf                                   6      0.0000       0.00000       A     3.31514e-01     4.13340e-01    ;  uncertainty sigma = 0.000012, epsilon = 0.000807
 c4bf                                   6      0.0000       0.00000       A     3.31540e-01     4.13073e-01    ;  uncertainty sigma = 0.000014, epsilon = 0.000550
 n5bf                                   7      0.0000       0.00000       A     3.38423e-01     3.94378e-01    ;  uncertainty sigma = 0.000013, epsilon = 0.000751
 n6bf                                   7      0.0000       0.00000       A     3.38403e-01     3.93416e-01    ;  uncertainty sigma = 0.000010, epsilon = 0.001007
 c7bf                                   6      0.0000       0.00000       A     3.31539e-01     4.13554e-01    ;  uncertainty sigma = 0.000009, epsilon = 0.000711
 c8bf                                   6      0.0000       0.00000       A     3.31516e-01     4.13348e-01    ;  uncertainty sigma = 0.000006, epsilon = 0.000675
 c9bf                                   6      0.0000       0.00000       A     3.31518e-01     4.13451e-01    ;  uncertainty sigma = 0.000002, epsilon = 0.000612
 c10bf                                  6      0.0000       0.00000       A     3.31517e-01     4.13355e-01    ;  uncertainty sigma = 0.000004, epsilon = 0.000528
 c11bf                                  6      0.0000       0.00000       A     3.31507e-01     4.13432e-01    ;  uncertainty sigma = 0.000004, epsilon = 0.000347
 c12bf                                  6      0.0000       0.00000       A     3.39766e-01     4.50446e-01    ;  uncertainty sigma = 0.000009, epsilon = 0.000438
 n13bf                                  7      0.0000       0.00000       A     3.18130e-01     6.84059e-01    ;  uncertainty sigma = 0.000031, epsilon = 0.002260
 n14bf                                  7      0.0000       0.00000       A     3.38449e-01     3.94403e-01    ;  uncertainty sigma = 0.000019, epsilon = 0.001004
 c15bf                                  6      0.0000       0.00000       A     3.31498e-01     4.13397e-01    ;  uncertainty sigma = 0.000033, epsilon = 0.001041
 c16bf                                  6      0.0000       0.00000       A     3.31517e-01     4.13271e-01    ;  uncertainty sigma = 0.000015, epsilon = 0.000991
 c17bf                                  6      0.0000       0.00000       A     3.31479e-01     4.13326e-01    ;  uncertainty sigma = 0.000018, epsilon = 0.001521
 c18bf                                  6      0.0000       0.00000       A     3.31546e-01     4.13945e-01    ;  uncertainty sigma = 0.000006, epsilon = 0.001637
 o19bf                                  8      0.0000       0.00000       A     3.04802e-01     6.12255e-01    ;  uncertainty sigma = 0.000021, epsilon = 0.001274
 c20bf                                  6      0.0000       0.00000       A     3.31515e-01     4.13249e-01    ;  uncertainty sigma = 0.000015, epsilon = 0.000665
 c21bf                                  6      0.0000       0.00000       A     3.31520e-01     4.13570e-01    ;  uncertainty sigma = 0.000012, epsilon = 0.000687
 c22bf                                  6      0.0000       0.00000       A     3.31510e-01     4.13332e-01    ;  uncertainty sigma = 0.000009, epsilon = 0.000445
 f23bf                                  9      0.0000       0.00000       A     3.03433e-01     3.47910e-01    ;  uncertainty sigma = 0.000006, epsilon = 0.000761
 c24bf                                  6      0.0000       0.00000       A     3.31522e-01     4.13593e-01    ;  uncertainty sigma = 0.000007, epsilon = 0.000737
 c25bf                                  6      0.0000       0.00000       A     3.31510e-01     4.13332e-01    ;  uncertainty sigma = 0.000009, epsilon = 0.000445
 f26bf                                  9      0.0000       0.00000       A     3.03433e-01     3.47910e-01    ;  uncertainty sigma = 0.000006, epsilon = 0.000762
 c27bf                                  6      0.0000       0.00000       A     3.31520e-01     4.13570e-01    ;  uncertainty sigma = 0.000012, epsilon = 0.000687
 c28bf                                  6      0.0000       0.00000       A     3.31514e-01     4.13200e-01    ;  uncertainty sigma = 0.000012, epsilon = 0.000698
 h29bf                                  1      0.0000       0.00000       A     2.60043e-01     8.66136e-02    ;  uncertainty sigma = 0.000006, epsilon = 0.000553
 h30bf                                  1      0.0000       0.00000       A     2.60043e-01     8.66136e-02    ;  uncertainty sigma = 0.000006, epsilon = 0.000553
 h31bf                                  1      0.0000       0.00000       A     2.60043e-01     8.66136e-02    ;  uncertainty sigma = 0.000006, epsilon = 0.000553
 h32bf                                  1      0.0000       0.00000       A     2.62561e-01     6.71073e-02    ;  uncertainty sigma = 0.000013, epsilon = 0.000560
 h33bf                                  1      0.0000       0.00000       A     2.62572e-01     6.69256e-02    ;  uncertainty sigma = 0.000013, epsilon = 0.000671
 h34bf                                  1      0.0000       0.00000       A     2.62560e-01     6.70283e-02    ;  uncertainty sigma = 0.000012, epsilon = 0.000523
 h35bf                                  1      0.0000       0.00000       A     2.62563e-01     6.70149e-02    ;  uncertainty sigma = 0.000010, epsilon = 0.000410
 h36bf                                  1      0.0000       0.00000       A     2.62563e-01     6.70957e-02    ;  uncertainty sigma = 0.000006, epsilon = 0.000591
 h37bf                                  1      0.0000       0.00000       A     2.42236e-01     8.69097e-02    ;  uncertainty sigma = 0.000033, epsilon = 0.000580
 h38bf                                  1      0.0000       0.00000       A     2.42236e-01     8.69097e-02    ;  uncertainty sigma = 0.000033, epsilon = 0.000580
 h39bf                                  1      0.0000       0.00000       A     2.62549e-01     6.67404e-02    ;  uncertainty sigma = 0.000015, epsilon = 0.000444
 h40bf                                  1      0.0000       0.00000       A     2.62519e-01     6.70320e-02    ;  uncertainty sigma = 0.000024, epsilon = 0.000745
 h41bf                                  1      0.0000       0.00000       A     2.62551e-01     6.70389e-02    ;  uncertainty sigma = 0.000014, epsilon = 0.000667
 h42bf                                  1      0.0000       0.00000       A     2.62567e-01     6.73686e-02    ;  uncertainty sigma = 0.000010, epsilon = 0.000382
 h43bf                                  1      0.0000       0.00000       A     2.62551e-01     6.70389e-02    ;  uncertainty sigma = 0.000014, epsilon = 0.000667
 h44bf                                  1      0.0000       0.00000       A     2.62553e-01     6.70564e-02    ;  uncertainty sigma = 0.000015, epsilon = 0.000740

[ moleculetype ]
;name             nrexcl
 MOL                   3

[ atoms ]
;       nr            type      resi   res      atom      cgnr      charge          mass ; qtot
         1            c0bf         1   UNL        c0         1    -0.14500       12.0110 ; qtot   -0.145
         2            c1bf         1   UNL        c1         2     0.35395       12.0110 ; qtot    0.209
         3            c2bf         1   UNL        c2         3    -0.20074       12.0110 ; qtot    0.008
         4            c3bf         1   UNL        c3         4    -0.19474       12.0110 ; qtot   -0.187
         5            c4bf         1   UNL        c4         5     0.40387       12.0110 ; qtot    0.217
         6            n5bf         1   UNL        n5         6    -0.31861       14.0070 ; qtot   -0.101
         7            n6bf         1   UNL        n6         7    -0.31779       14.0070 ; qtot   -0.419
         8            c7bf         1   UNL        c7         8    -0.15096       12.0110 ; qtot   -0.570
         9            c8bf         1   UNL        c8         9    -0.09724       12.0110 ; qtot   -0.667
        10            c9bf         1   UNL        c9        10    -0.13549       12.0110 ; qtot   -0.803
        11           c10bf         1   UNL       c10        11    -0.09673       12.0110 ; qtot   -0.899
        12           c11bf         1   UNL       c11        12    -0.12236       12.0110 ; qtot   -1.022
        13           c12bf         1   UNL       c12        13     0.15928       12.0110 ; qtot   -0.863
        14           n13bf         1   UNL       n13        14    -0.20396       14.0070 ; qtot   -1.067
        15           n14bf         1   UNL       n14        15    -0.40752       14.0070 ; qtot   -1.474
        16           c15bf         1   UNL       c15        16     0.39145       12.0110 ; qtot   -1.083
        17           c16bf         1   UNL       c16        17    -0.16644       12.0110 ; qtot   -1.249
        18           c17bf         1   UNL       c17        18    -0.21412       12.0110 ; qtot   -1.463
        19           c18bf         1   UNL       c18        19     0.67439       12.0110 ; qtot   -0.789
        20           o19bf         1   UNL       o19        20    -0.61615       15.9990 ; qtot   -1.405
        21           c20bf         1   UNL       c20        21    -0.06971       12.0110 ; qtot   -1.475
        22           c21bf         1   UNL       c21        22    -0.15743       12.0110 ; qtot   -1.632
        23           c22bf         1   UNL       c22        23     0.15364       12.0110 ; qtot   -1.478
        24           f23bf         1   UNL       f23        24    -0.13656       18.9980 ; qtot   -1.615
        25           c24bf         1   UNL       c24        25    -0.19537       12.0110 ; qtot   -1.810
        26           c25bf         1   UNL       c25        26     0.15364       12.0110 ; qtot   -1.657
        27           f26bf         1   UNL       f26        27    -0.13656       18.9980 ; qtot   -1.793
        28           c27bf         1   UNL       c27        28    -0.15743       12.0110 ; qtot   -1.951
        29           c28bf         1   UNL       c28        29    -0.07791       12.0110 ; qtot   -2.029
        30           h29bf         1   UNL       h29        30     0.05736        1.0080 ; qtot   -1.971
        31           h30bf         1   UNL       h30        31     0.05736        1.0080 ; qtot   -1.914
        32           h31bf         1   UNL       h31        32     0.05736        1.0080 ; qtot   -1.857
        33           h32bf         1   UNL       h32        33     0.15028        1.0080 ; qtot   -1.706
        34           h33bf         1   UNL       h33        34     0.15277        1.0080 ; qtot   -1.553
        35           h34bf         1   UNL       h34        35     0.14378        1.0080 ; qtot   -1.410
        36           h35bf         1   UNL       h35        36     0.13500        1.0080 ; qtot   -1.275
        37           h36bf         1   UNL       h36        37     0.13982        1.0080 ; qtot   -1.135
        38           h37bf         1   UNL       h37        38     0.08064        1.0080 ; qtot   -1.054
        39           h38bf         1   UNL       h38        39     0.08064        1.0080 ; qtot   -0.974
        40           h39bf         1   UNL       h39        40     0.15224        1.0080 ; qtot   -0.821
        41           h40bf         1   UNL       h40        41     0.16763        1.0080 ; qtot   -0.654
        42           h41bf         1   UNL       h41        42     0.16641        1.0080 ; qtot   -0.487
        43           h42bf         1   UNL       h42        43     0.17223        1.0080 ; qtot   -0.315
        44           h43bf         1   UNL       h43        44     0.16641        1.0080 ; qtot   -0.149
        45           h44bf         1   UNL       h44        45     0.14867        1.0080 ; qtot    0.000

[ bonds ]
;       ai        aj funct               r               k
         1         2     1        0.150638   256583.136035    ;  uncertainty r = 0.000035, k = 8.225264
         1        30     1        0.109464   311643.391113    ;  uncertainty r = 0.000014, k = 2.017476
         1        31     1        0.109464   311643.391113    ;  uncertainty r = 0.000014, k = 2.017476
         1        32     1        0.109464   311643.391113    ;  uncertainty r = 0.000014, k = 2.017476
         2         3     1        0.140490   346740.879199    ;  uncertainty r = 0.000077, k = 4.150673
         2         7     1        0.134002   360208.410107    ;  uncertainty r = 0.000068, k = 14.778017
         3         4     1        0.137541   405045.036670    ;  uncertainty r = 0.000086, k = 4.513096
         3        33     1        0.108901   338621.917090    ;  uncertainty r = 0.000022, k = 1.155565
         4         5     1        0.140342   336648.102832    ;  uncertainty r = 0.000086, k = 6.835842
         4        34     1        0.108866   339607.394141    ;  uncertainty r = 0.000045, k = 0.893758
         5         6     1        0.133827   342002.647314    ;  uncertainty r = 0.000098, k = 6.969707
         5         8     1        0.147408   255557.412500    ;  uncertainty r = 0.000056, k = 9.179208
         6         7     1        0.132983   381988.704248    ;  uncertainty r = 0.000039, k = 12.307565
         8         9     1        0.139952   344891.941406    ;  uncertainty r = 0.000042, k = 1.870225
         8        29     1        0.139690   338706.674756    ;  uncertainty r = 0.000028, k = 3.033539
         9        10     1        0.139340   367703.449561    ;  uncertainty r = 0.000021, k = 3.208724
         9        35     1        0.108734   334090.612402    ;  uncertainty r = 0.000017, k = 0.499604
        10        11     1        0.139546   370924.189795    ;  uncertainty r = 0.000015, k = 1.043926
        10        36     1        0.108834   333240.022363    ;  uncertainty r = 0.000015, k = 1.265484
        11        12     1        0.139710   355026.419873    ;  uncertainty r = 0.000067, k = 2.531225
        11        37     1        0.108845   333137.720703    ;  uncertainty r = 0.000012, k = 0.688221
        12        13     1        0.151482   229265.758154    ;  uncertainty r = 0.000026, k = 5.423860
        12        29     1        0.139384   349150.101172    ;  uncertainty r = 0.000034, k = 5.080083
        13        14     1        0.146958   226285.092285    ;  uncertainty r = 0.000082, k = 7.991895
        13        38     1        0.109288   307627.655127    ;  uncertainty r = 0.000019, k = 0.761517
        13        39     1        0.109288   307627.655127    ;  uncertainty r = 0.000019, k = 0.761517
        14        15     1        0.133719   291839.975684    ;  uncertainty r = 0.000103, k = 13.619026
        14        19     1        0.139210   287082.463281    ;  uncertainty r = 0.000112, k = 8.370610
        15        16     1        0.130260   486820.964258    ;  uncertainty r = 0.000104, k = 8.324314
        16        17     1        0.143148   246844.814746    ;  uncertainty r = 0.000136, k = 10.011203
        16        21     1        0.147088   262485.477051    ;  uncertainty r = 0.000091, k = 9.142570
        17        18     1        0.134977   481508.785840    ;  uncertainty r = 0.000047, k = 10.409223
        17        40     1        0.108783   336902.861035    ;  uncertainty r = 0.000050, k = 1.619691
        18        19     1        0.145432   272577.129785    ;  uncertainty r = 0.000089, k = 4.402721
        18        41     1        0.108708   341990.721484    ;  uncertainty r = 0.000030, k = 2.410372
        19        20     1        0.124008   735950.379883    ;  uncertainty r = 0.000059, k = 6.569265
        21        22     1        0.139863   351792.144971    ;  uncertainty r = 0.000071, k = 3.727356
        21        28     1        0.139863   351792.144971    ;  uncertainty r = 0.000071, k = 3.727335
        22        23     1        0.138801   355605.524902    ;  uncertainty r = 0.000040, k = 2.002096
        22        42     1        0.108712   335835.333252    ;  uncertainty r = 0.000032, k = 0.851157
        23        24     1        0.135275   339582.852979    ;  uncertainty r = 0.000035, k = 2.432568
        23        25     1        0.139032   365693.244922    ;  uncertainty r = 0.000026, k = 3.713255
        25        26     1        0.139032   365693.193848    ;  uncertainty r = 0.000026, k = 3.713232
        25        43     1        0.108762   339358.024268    ;  uncertainty r = 0.000015, k = 0.997650
        26        27     1        0.135275   339582.852979    ;  uncertainty r = 0.000035, k = 2.432590
        26        28     1        0.138801   355605.524902    ;  uncertainty r = 0.000040, k = 2.002129
        28        44     1        0.108712   335835.307715    ;  uncertainty r = 0.000032, k = 0.851166
        29        45     1        0.108788   332502.919238    ;  uncertainty r = 0.000022, k = 1.621439

[ angles ]
;       ai        aj        ak funct           theta             cth
         1         2         3     1      122.428589      417.797388    ;  uncertainty theta = 0.003654, k = 0.219566
         1         2         7     1      116.580223      469.185554    ;  uncertainty theta = 0.003967, k = 0.145748
         2         1        30     1      109.279984      391.493559    ;  uncertainty theta = 0.001048, k = 0.063080
         2         1        31     1      109.279984      391.493559    ;  uncertainty theta = 0.001048, k = 0.063080
         2         1        32     1      109.279984      391.493559    ;  uncertainty theta = 0.001048, k = 0.063080
         2         3         4     1      116.726463      480.374638    ;  uncertainty theta = 0.002075, k = 0.201741
         2         3        33     1      121.934616      277.219846    ;  uncertainty theta = 0.003521, k = 0.127006
         2         7         6     1      119.073021      608.895855    ;  uncertainty theta = 0.002977, k = 0.226090
         3         2         7     1      121.211243      559.682015    ;  uncertainty theta = 0.002120, k = 0.126928
         3         4         5     1      116.318848      463.804119    ;  uncertainty theta = 0.004336, k = 0.089041
         3         4        34     1      121.759216      285.203641    ;  uncertainty theta = 0.003067, k = 0.100293
         4         3        33     1      121.623756      279.715524    ;  uncertainty theta = 0.004761, k = 0.087868
         4         5         6     1      122.331772      530.388811    ;  uncertainty theta = 0.002065, k = 0.193569
         4         5         8     1      122.302574      397.069459    ;  uncertainty theta = 0.001733, k = 0.110704
         5         4        34     1      121.662148      274.156511    ;  uncertainty theta = 0.003742, k = 0.082018
         5         6         7     1      118.778908      591.049118    ;  uncertainty theta = 0.004116, k = 0.127840
         5         8         9     1      119.171249      402.861595    ;  uncertainty theta = 0.001976, k = 0.056547
         5         8        29     1      118.664833      402.026116    ;  uncertainty theta = 0.001738, k = 0.088294
         6         5         8     1      115.218605      450.410320    ;  uncertainty theta = 0.003803, k = 0.238659
         8         9        10     1      120.358536      526.632845    ;  uncertainty theta = 0.001063, k = 0.060292
         8         9        35     1      118.289673      269.623578    ;  uncertainty theta = 0.001730, k = 0.077988
         8        29        12     1      122.102615      530.731041    ;  uncertainty theta = 0.001217, k = 0.053394
         8        29        45     1      118.078331      269.773417    ;  uncertainty theta = 0.001878, k = 0.054031
         9         8        29     1      121.435608      422.714942    ;  uncertainty theta = 0.002622, k = 0.094430
         9        10        11     1      120.212563      504.158146    ;  uncertainty theta = 0.001503, k = 0.060674
         9        10        36     1      120.174789      284.320919    ;  uncertainty theta = 0.001503, k = 0.024830
        10         9        35     1      120.611801      291.331940    ;  uncertainty theta = 0.002025, k = 0.030118
        10        11        12     1      119.784035      522.950777    ;  uncertainty theta = 0.001873, k = 0.037065
        10        11        37     1      120.425697      293.525993    ;  uncertainty theta = 0.002570, k = 0.018210
        11        10        36     1      120.346268      283.774935    ;  uncertainty theta = 0.001655, k = 0.043965
        11        12        13     1      120.414978      424.033965    ;  uncertainty theta = 0.001151, k = 0.067392
        11        12        29     1      120.743774      452.624259    ;  uncertainty theta = 0.001600, k = 0.142168
        12        11        37     1      119.062401      270.013178    ;  uncertainty theta = 0.002245, k = 0.026566
        12        13        14     1      111.878258      642.754104    ;  uncertainty theta = 0.001428, k = 0.099142
        12        13        38     1      108.776329      417.558042    ;  uncertainty theta = 0.001819, k = 0.056215
        12        13        39     1      108.776329      417.558042    ;  uncertainty theta = 0.001819, k = 0.056215
        12        29        45     1      118.990257      275.851536    ;  uncertainty theta = 0.001674, k = 0.078148
        13        12        29     1      119.697693      406.659346    ;  uncertainty theta = 0.001624, k = 0.134677
        13        14        15     1      110.577988      500.240115    ;  uncertainty theta = 0.005833, k = 0.098935
        13        14        19     1      115.546555      389.353517    ;  uncertainty theta = 0.005911, k = 0.248842
        14        13        38     1      105.434036      444.191906    ;  uncertainty theta = 0.001612, k = 0.053315
        14        13        39     1      105.434036      444.191906    ;  uncertainty theta = 0.001612, k = 0.053315
        14        15        16     1      119.599083      506.750546    ;  uncertainty theta = 0.009383, k = 0.233462
        14        19        18     1      111.385658      354.543852    ;  uncertainty theta = 0.004876, k = 0.498398
        14        19        20     1      122.027390      653.228724    ;  uncertainty theta = 0.001797, k = 0.051888
        15        14        19     1      124.130821      552.011816    ;  uncertainty theta = 0.006513, k = 0.232378
        15        16        17     1      126.192650      534.970839    ;  uncertainty theta = 0.003715, k = 0.203915
        15        16        21     1      116.228676      442.181529    ;  uncertainty theta = 0.006577, k = 0.257504
        16        17        18     1      119.137741      483.732417    ;  uncertainty theta = 0.004425, k = 0.316234
        16        17        40     1      118.496231      262.252068    ;  uncertainty theta = 0.005672, k = 0.058663
        16        21        22     1      118.724350      391.877126    ;  uncertainty theta = 0.002727, k = 0.206133
        16        21        28     1      118.724350      391.877094    ;  uncertainty theta = 0.002727, k = 0.206133
        17        16        21     1      120.406021      386.651563    ;  uncertainty theta = 0.002392, k = 0.102654
        17        18        19     1      119.665359      523.118907    ;  uncertainty theta = 0.005349, k = 0.100266
        17        18        41     1      123.138992      265.275997    ;  uncertainty theta = 0.005028, k = 0.152927
        18        17        40     1      122.361343      282.774455    ;  uncertainty theta = 0.005531, k = 0.167097
        18        19        20     1      127.351967      536.919129    ;  uncertainty theta = 0.003562, k = 0.161864
        19        18        41     1      117.583885      254.681432    ;  uncertainty theta = 0.006644, k = 0.184684
        21        22        23     1      118.720169      498.330993    ;  uncertainty theta = 0.002325, k = 0.126937
        21        22        42     1      120.100601      263.055497    ;  uncertainty theta = 0.002410, k = 0.043472
        21        28        26     1      118.720169      498.330993    ;  uncertainty theta = 0.002325, k = 0.126937
        21        28        44     1      120.100601      263.055497    ;  uncertainty theta = 0.002410, k = 0.043473
        22        21        28     1      122.382584      431.454570    ;  uncertainty theta = 0.000960, k = 0.097327
        22        23        24     1      118.785866      507.579768    ;  uncertainty theta = 0.002109, k = 0.057206
        22        23        25     1      123.859070      366.023038    ;  uncertainty theta = 0.005134, k = 0.176822
        23        22        42     1      120.887062      288.478041    ;  uncertainty theta = 0.000717, k = 0.013022
        23        25        26     1      115.525314      473.107958    ;  uncertainty theta = 0.002651, k = 0.198626
        23        25        43     1      122.239304      279.302525    ;  uncertainty theta = 0.002821, k = 0.053520
        24        23        25     1      118.429832      503.503534    ;  uncertainty theta = 0.002161, k = 0.048154
        25        26        27     1      118.429825      503.503502    ;  uncertainty theta = 0.002161, k = 0.048153
        25        26        28     1      123.859070      366.023069    ;  uncertainty theta = 0.005134, k = 0.176822
        26        25        43     1      122.239304      279.302525    ;  uncertainty theta = 0.002821, k = 0.053520
        26        28        44     1      120.887062      288.478041    ;  uncertainty theta = 0.000717, k = 0.013022
        27        26        28     1      118.785866      507.579768    ;  uncertainty theta = 0.002109, k = 0.057206
        30         1        31     1      106.990189      313.142292    ;  uncertainty theta = 0.001275, k = 0.025722
        30         1        32     1      106.990189      313.142292    ;  uncertainty theta = 0.001275, k = 0.025722
        31         1        32     1      106.990189      313.142292    ;  uncertainty theta = 0.001275, k = 0.025722
        38        13        39     1      106.067017      312.923918    ;  uncertainty theta = 0.003423, k = 0.065436

[ dihedrals ] ; propers for gromacs 4.5 or higher, use funct 9
;       ai        aj        ak        al funct           phase               k        pn
         1         2         3         4     9        0.000000        0.456171         1    ;  uncertainty k = 0.383238
         1         2         3         4     9      180.000000        6.751048         2    ;  uncertainty k = 0.494613
         1         2         3         4     9        0.000000        1.103405         3    ;  uncertainty k = 0.224541
         1         2         3         4     9      180.000000        1.452035         4    ;  uncertainty k = 0.190628
         1         2         3        33     9        0.000000       -0.306648         1    ;  uncertainty k = 0.670398
         1         2         3        33     9      180.000000        6.601366         2    ;  uncertainty k = 0.322614
         1         2         3        33     9        0.000000        0.399796         3    ;  uncertainty k = 0.212245
         1         2         3        33     9      180.000000        0.635924         4    ;  uncertainty k = 0.249276
         1         2         7         6     9        0.000000        1.245099         1    ;  uncertainty k = 1.032220
         1         2         7         6     9      180.000000       14.241666         2    ;  uncertainty k = 0.674492
         1         2         7         6     9        0.000000        2.572730         3    ;  uncertainty k = 0.184922
         1         2         7         6     9      180.000000        1.795228         4    ;  uncertainty k = 0.378990
         2         3         4         5     9        0.000000        0.155052         1    ;  uncertainty k = 0.563145
         2         3         4         5     9      180.000000       16.050092         2    ;  uncertainty k = 0.374311
         2         3         4         5     9        0.000000       -1.434609         3    ;  uncertainty k = 0.740320
         2         3         4         5     9      180.000000        0.574279         4    ;  uncertainty k = 0.211323
         2         3         4        34     9        0.000000        0.033395         1    ;  uncertainty k = 0.284327
         2         3         4        34     9      180.000000        9.859760         2    ;  uncertainty k = 0.544139
         2         3         4        34     9        0.000000        1.450016         3    ;  uncertainty k = 0.252964
         2         3         4        34     9      180.000000        1.798068         4    ;  uncertainty k = 0.284462
         2         7         6         5     9        0.000000       -3.713688         1    ;  uncertainty k = 3.983141
         2         7         6         5     9      180.000000       25.283935         2    ;  uncertainty k = 0.822944
         2         7         6         5     9        0.000000        0.982962         3    ;  uncertainty k = 1.543104
         2         7         6         5     9      180.000000       -0.057100         4    ;  uncertainty k = 1.426061
         3         2         1        30     9        0.000000       -0.260603         1    ;  uncertainty k = 0.251662
         3         2         1        30     9      180.000000        1.654108         2    ;  uncertainty k = 0.111577
         3         2         1        30     9        0.000000        0.418075         3    ;  uncertainty k = 0.131767
         3         2         1        30     9      180.000000        0.154084         4    ;  uncertainty k = 0.034317
         3         2         1        31     9        0.000000       -0.260603         1    ;  uncertainty k = 0.251662
         3         2         1        31     9      180.000000        1.654108         2    ;  uncertainty k = 0.111577
         3         2         1        31     9        0.000000        0.418075         3    ;  uncertainty k = 0.131767
         3         2         1        31     9      180.000000        0.154084         4    ;  uncertainty k = 0.034317
         3         2         1        32     9        0.000000       -0.260603         1    ;  uncertainty k = 0.251662
         3         2         1        32     9      180.000000        1.654108         2    ;  uncertainty k = 0.111577
         3         2         1        32     9        0.000000        0.418075         3    ;  uncertainty k = 0.131767
         3         2         1        32     9      180.000000        0.154084         4    ;  uncertainty k = 0.034317
         3         2         7         6     9        0.000000        0.748800         1    ;  uncertainty k = 1.221512
         3         2         7         6     9      180.000000       13.525501         2    ;  uncertainty k = 0.515527
         3         2         7         6     9        0.000000        2.185629         3    ;  uncertainty k = 0.476689
         3         2         7         6     9      180.000000        1.425064         4    ;  uncertainty k = 0.267247
         3         4         5         6     9        0.000000       -0.004731         1    ;  uncertainty k = 1.078295
         3         4         5         6     9      180.000000        8.499897         2    ;  uncertainty k = 0.471946
         3         4         5         6     9        0.000000       -0.573343         3    ;  uncertainty k = 0.316857
         3         4         5         6     9      180.000000        0.965761         4    ;  uncertainty k = 0.175514
         3         4         5         8     9        0.000000        0.133100         1    ;  uncertainty k = 0.124874
         3         4         5         8     9      180.000000        6.201325         2    ;  uncertainty k = 0.403241
         3         4         5         8     9        0.000000        0.883824         3    ;  uncertainty k = 0.298192
         3         4         5         8     9      180.000000        1.399608         4    ;  uncertainty k = 0.298999
         4         3         2         7     9        0.000000        0.013520         1    ;  uncertainty k = 0.765130
         4         3         2         7     9      180.000000        9.349025         2    ;  uncertainty k = 0.574697
         4         3         2         7     9        0.000000       -0.847427         3    ;  uncertainty k = 0.606903
         4         3         2         7     9      180.000000        0.882530         4    ;  uncertainty k = 0.170655
         4         5         6         7     9        0.000000        1.251922         1    ;  uncertainty k = 1.152370
         4         5         6         7     9      180.000000       13.355347         2    ;  uncertainty k = 0.215881
         4         5         6         7     9        0.000000        2.185908         3    ;  uncertainty k = 0.272148
         4         5         6         7     9      180.000000        1.317430         4    ;  uncertainty k = 0.342556
         4         5         8         9     9        0.000000       -0.539033         1    ;  uncertainty k = 0.633974
         4         5         8         9     9      180.000000        3.767091         2    ;  uncertainty k = 0.124453
         4         5         8         9     9        0.000000        0.388367         3    ;  uncertainty k = 0.179385
         4         5         8         9     9      180.000000       -0.163883         4    ;  uncertainty k = 0.066345
         4         5         8        29     9        0.000000       -0.370345         1    ;  uncertainty k = 0.706786
         4         5         8        29     9      180.000000        3.839133         2    ;  uncertainty k = 0.204244
         4         5         8        29     9        0.000000        0.382850         3    ;  uncertainty k = 0.207901
         4         5         8        29     9      180.000000       -0.143671         4    ;  uncertainty k = 0.090533
         5         4         3        33     9        0.000000        0.040170         1    ;  uncertainty k = 0.155234
         5         4         3        33     9      180.000000        9.877002         2    ;  uncertainty k = 0.516811
         5         4         3        33     9        0.000000        1.321012         3    ;  uncertainty k = 0.352021
         5         4         3        33     9      180.000000        1.789850         4    ;  uncertainty k = 0.319649
         5         8         9        10     9        0.000000        0.120807         1    ;  uncertainty k = 0.280828
         5         8         9        10     9      180.000000        8.959794         2    ;  uncertainty k = 0.516824
         5         8         9        10     9        0.000000        1.172784         3    ;  uncertainty k = 0.361134
         5         8         9        10     9      180.000000        1.731034         4    ;  uncertainty k = 0.129758
         5         8         9        35     9        0.000000       -0.254408         1    ;  uncertainty k = 0.299521
         5         8         9        35     9      180.000000        7.455149         2    ;  uncertainty k = 0.334074
         5         8         9        35     9        0.000000        0.738912         3    ;  uncertainty k = 0.094270
         5         8         9        35     9      180.000000        1.145934         4    ;  uncertainty k = 0.111090
         5         8        29        12     9        0.000000        0.209007         1    ;  uncertainty k = 0.118831
         5         8        29        12     9      180.000000        8.774697         2    ;  uncertainty k = 0.283542
         5         8        29        12     9        0.000000        1.272275         3    ;  uncertainty k = 0.326420
         5         8        29        12     9      180.000000        1.697053         4    ;  uncertainty k = 0.034518
         5         8        29        45     9        0.000000       -0.174623         1    ;  uncertainty k = 0.242997
         5         8        29        45     9      180.000000        7.511440         2    ;  uncertainty k = 0.328651
         5         8        29        45     9        0.000000        0.764051         3    ;  uncertainty k = 0.070135
         5         8        29        45     9      180.000000        1.212035         4    ;  uncertainty k = 0.105361
         6         5         4        34     9        0.000000        0.072585         1    ;  uncertainty k = 0.378887
         6         5         4        34     9      180.000000        6.219942         2    ;  uncertainty k = 0.591415
         6         5         4        34     9        0.000000        0.906283         3    ;  uncertainty k = 0.325192
         6         5         4        34     9      180.000000        1.326009         4    ;  uncertainty k = 0.239790
         6         5         8         9     9        0.000000        0.498121         1    ;  uncertainty k = 0.481570
         6         5         8         9     9      180.000000        4.591876         2    ;  uncertainty k = 0.133108
         6         5         8         9     9        0.000000        0.575854         3    ;  uncertainty k = 0.219434
         6         5         8         9     9      180.000000        0.051091         4    ;  uncertainty k = 0.072907
         6         5         8        29     9        0.000000        0.429358         1    ;  uncertainty k = 0.887111
         6         5         8        29     9      180.000000        4.519401         2    ;  uncertainty k = 0.164889
         6         5         8        29     9        0.000000        0.600950         3    ;  uncertainty k = 0.209358
         6         5         8        29     9      180.000000        0.030461         4    ;  uncertainty k = 0.055824
         7         2         1        30     9        0.000000        0.703970         1    ;  uncertainty k = 0.278688
         7         2         1        30     9      180.000000        2.805332         2    ;  uncertainty k = 0.321355
         7         2         1        30     9        0.000000        0.338943         3    ;  uncertainty k = 0.131869
         7         2         1        30     9      180.000000        0.256737         4    ;  uncertainty k = 0.082343
         7         2         1        31     9        0.000000        0.703970         1    ;  uncertainty k = 0.278688
         7         2         1        31     9      180.000000        2.805332         2    ;  uncertainty k = 0.321355
         7         2         1        31     9        0.000000        0.338943         3    ;  uncertainty k = 0.131869
         7         2         1        31     9      180.000000        0.256737         4    ;  uncertainty k = 0.082343
         7         2         1        32     9        0.000000        0.703970         1    ;  uncertainty k = 0.278688
         7         2         1        32     9      180.000000        2.805332         2    ;  uncertainty k = 0.321355
         7         2         1        32     9        0.000000        0.338943         3    ;  uncertainty k = 0.131869
         7         2         1        32     9      180.000000        0.256737         4    ;  uncertainty k = 0.082343
         7         2         3        33     9        0.000000        0.126449         1    ;  uncertainty k = 0.601839
         7         2         3        33     9      180.000000        6.118238         2    ;  uncertainty k = 0.721281
         7         2         3        33     9        0.000000        0.892603         3    ;  uncertainty k = 0.213190
         7         2         3        33     9      180.000000        1.286854         4    ;  uncertainty k = 0.295464
         7         6         5         8     9        0.000000        1.499499         1    ;  uncertainty k = 1.328838
         7         6         5         8     9      180.000000       15.927875         2    ;  uncertainty k = 0.273228
         7         6         5         8     9        0.000000        2.583417         3    ;  uncertainty k = 0.277955
         7         6         5         8     9      180.000000        1.615608         4    ;  uncertainty k = 0.171719
         8         5         4        34     9        0.000000       -0.439091         1    ;  uncertainty k = 0.665242
         8         5         4        34     9      180.000000        5.832610         2    ;  uncertainty k = 0.673097
         8         5         4        34     9        0.000000        0.651079         3    ;  uncertainty k = 0.143288
         8         5         4        34     9      180.000000        0.799570         4    ;  uncertainty k = 0.324526
         8         9        10        11     9        0.000000       -0.085339         1    ;  uncertainty k = 0.092381
         8         9        10        11     9      180.000000       13.549298         2    ;  uncertainty k = 0.287084
         8         9        10        11     9        0.000000       -0.805668         3    ;  uncertainty k = 0.418077
         8         9        10        11     9      180.000000        0.766889         4    ;  uncertainty k = 0.200355
         8         9        10        36     9        0.000000       -0.057071         1    ;  uncertainty k = 0.240902
         8         9        10        36     9      180.000000        7.601011         2    ;  uncertainty k = 0.375593
         8         9        10        36     9        0.000000        1.440589         3    ;  uncertainty k = 0.230591
         8         9        10        36     9      180.000000        1.818380         4    ;  uncertainty k = 0.165851
         8        29        12        11     9        0.000000       -0.175602         1    ;  uncertainty k = 0.138484
         8        29        12        11     9      180.000000       10.907627         2    ;  uncertainty k = 0.663580
         8        29        12        11     9        0.000000       -0.191658         3    ;  uncertainty k = 0.178703
         8        29        12        11     9      180.000000        0.990907         4    ;  uncertainty k = 0.472307
         8        29        12        13     9        0.000000        0.124067         1    ;  uncertainty k = 0.200116
         8        29        12        13     9      180.000000        9.596067         2    ;  uncertainty k = 0.333690
         8        29        12        13     9        0.000000        1.289970         3    ;  uncertainty k = 0.213634
         8        29        12        13     9      180.000000        1.708841         4    ;  uncertainty k = 0.274222
         9         8        29        12     9        0.000000        0.050534         1    ;  uncertainty k = 0.174907
         9         8        29        12     9      180.000000       10.517490         2    ;  uncertainty k = 0.237492
         9         8        29        12     9        0.000000       -0.330431         3    ;  uncertainty k = 0.200565
         9         8        29        12     9      180.000000        1.032481         4    ;  uncertainty k = 0.228453
         9         8        29        45     9        0.000000        0.231952         1    ;  uncertainty k = 0.089552
         9         8        29        45     9      180.000000        7.286549         2    ;  uncertainty k = 0.606554
         9         8        29        45     9        0.000000        1.380810         3    ;  uncertainty k = 0.193461
         9         8        29        45     9      180.000000        1.655177         4    ;  uncertainty k = 0.249750
         9        10        11        12     9        0.000000       -0.177100         1    ;  uncertainty k = 0.175157
         9        10        11        12     9      180.000000       13.591542         2    ;  uncertainty k = 0.305233
         9        10        11        12     9        0.000000       -0.885076         3    ;  uncertainty k = 0.427003
         9        10        11        12     9      180.000000        0.751257         4    ;  uncertainty k = 0.253890
         9        10        11        37     9        0.000000        0.073989         1    ;  uncertainty k = 0.117236
         9        10        11        37     9      180.000000        7.637516         2    ;  uncertainty k = 0.395871
         9        10        11        37     9        0.000000        1.433154         3    ;  uncertainty k = 0.232898
         9        10        11        37     9      180.000000        1.786846         4    ;  uncertainty k = 0.118176
        10         9         8        29     9        0.000000        0.069938         1    ;  uncertainty k = 0.159545
        10         9         8        29     9      180.000000       11.258100         2    ;  uncertainty k = 0.212121
        10         9         8        29     9        0.000000       -0.599536         3    ;  uncertainty k = 0.223555
        10         9         8        29     9      180.000000        0.902187         4    ;  uncertainty k = 0.240112
        10        11        12        13     9        0.000000        0.214275         1    ;  uncertainty k = 0.207200
        10        11        12        13     9      180.000000        9.777856         2    ;  uncertainty k = 0.593665
        10        11        12        13     9        0.000000        1.299896         3    ;  uncertainty k = 0.322744
        10        11        12        13     9      180.000000        1.792271         4    ;  uncertainty k = 0.238192
        10        11        12        29     9        0.000000       -0.213221         1    ;  uncertainty k = 0.126236
        10        11        12        29     9      180.000000       11.710933         2    ;  uncertainty k = 0.394022
        10        11        12        29     9        0.000000       -0.562360         3    ;  uncertainty k = 0.287203
        10        11        12        29     9      180.000000        0.816525         4    ;  uncertainty k = 0.395677
        11        10         9        35     9        0.000000        0.024834         1    ;  uncertainty k = 0.104911
        11        10         9        35     9      180.000000        7.500326         2    ;  uncertainty k = 0.261902
        11        10         9        35     9        0.000000        1.386382         3    ;  uncertainty k = 0.214360
        11        10         9        35     9      180.000000        1.847737         4    ;  uncertainty k = 0.211125
        11        12        13        14     9        0.000000        1.868146         1    ;  uncertainty k = 0.804517
        11        12        13        14     9      180.000000        2.330760         2    ;  uncertainty k = 0.304572
        11        12        13        14     9        0.000000        0.615968         3    ;  uncertainty k = 0.148083
        11        12        13        14     9      180.000000        0.097256         4    ;  uncertainty k = 0.049073
        11        12        13        38     9        0.000000       -0.533521         1    ;  uncertainty k = 0.239741
        11        12        13        38     9      180.000000        2.010310         2    ;  uncertainty k = 0.117685
        11        12        13        38     9        0.000000        0.497643         3    ;  uncertainty k = 0.056271
        11        12        13        38     9      180.000000        0.143107         4    ;  uncertainty k = 0.043594
        11        12        13        39     9        0.000000       -0.533521         1    ;  uncertainty k = 0.239741
        11        12        13        39     9      180.000000        2.010310         2    ;  uncertainty k = 0.117685
        11        12        13        39     9        0.000000        0.497643         3    ;  uncertainty k = 0.056271
        11        12        13        39     9      180.000000        0.143107         4    ;  uncertainty k = 0.043594
        11        12        29        45     9        0.000000        0.202211         1    ;  uncertainty k = 0.173256
        11        12        29        45     9      180.000000        7.492614         2    ;  uncertainty k = 0.628648
        11        12        29        45     9        0.000000        1.333219         3    ;  uncertainty k = 0.230367
        11        12        29        45     9      180.000000        1.695464         4    ;  uncertainty k = 0.173375
        12        11        10        36     9        0.000000        0.024923         1    ;  uncertainty k = 0.207451
        12        11        10        36     9      180.000000        7.522110         2    ;  uncertainty k = 0.345699
        12        11        10        36     9        0.000000        1.380794         3    ;  uncertainty k = 0.196637
        12        11        10        36     9      180.000000        1.778584         4    ;  uncertainty k = 0.125896
        12        13        14        15     9        0.000000        0.383516         1    ;  uncertainty k = 0.689606
        12        13        14        15     9      180.000000        0.049019         2    ;  uncertainty k = 0.328179
        12        13        14        15     9        0.000000        0.773996         3    ;  uncertainty k = 0.365591
        12        13        14        15     9      180.000000        0.186425         4    ;  uncertainty k = 0.075476
        12        13        14        19     9        0.000000        1.475209         1    ;  uncertainty k = 0.431456
        12        13        14        19     9      180.000000       -0.001742         2    ;  uncertainty k = 0.133289
        12        13        14        19     9        0.000000        0.212539         3    ;  uncertainty k = 0.230476
        12        13        14        19     9      180.000000        0.246694         4    ;  uncertainty k = 0.129411
        13        12        11        37     9        0.000000        0.019365         1    ;  uncertainty k = 0.237181
        13        12        11        37     9      180.000000        7.583407         2    ;  uncertainty k = 0.202299
        13        12        11        37     9        0.000000        0.607921         3    ;  uncertainty k = 0.274159
        13        12        11        37     9      180.000000        1.048259         4    ;  uncertainty k = 0.188565
        13        12        29        45     9        0.000000       -0.040994         1    ;  uncertainty k = 0.230319
        13        12        29        45     9      180.000000        7.720641         2    ;  uncertainty k = 0.299147
        13        12        29        45     9        0.000000        0.557841         3    ;  uncertainty k = 0.326379
        13        12        29        45     9      180.000000        1.105697         4    ;  uncertainty k = 0.170920
        13        14        15        16     9        0.000000       -0.893902         1    ;  uncertainty k = 4.128323
        13        14        15        16     9      180.000000       12.847703         2    ;  uncertainty k = 0.829875
        13        14        15        16     9        0.000000        1.813134         3    ;  uncertainty k = 0.972057
        13        14        15        16     9      180.000000        0.130634         4    ;  uncertainty k = 0.444120
        13        14        19        18     9        0.000000        0.634210         1    ;  uncertainty k = 1.109144
        13        14        19        18     9      180.000000        7.729793         2    ;  uncertainty k = 0.355043
        13        14        19        18     9        0.000000        1.756335         3    ;  uncertainty k = 0.398207
        13        14        19        18     9      180.000000       -0.228898         4    ;  uncertainty k = 0.310569
        13        14        19        20     9        0.000000        0.936357         1    ;  uncertainty k = 1.270753
        13        14        19        20     9      180.000000       11.759401         2    ;  uncertainty k = 0.389288
        13        14        19        20     9        0.000000        0.652543         3    ;  uncertainty k = 0.132949
        13        14        19        20     9      180.000000       -0.183661         4    ;  uncertainty k = 0.344177
        14        13        12        29     9        0.000000        1.866653         1    ;  uncertainty k = 0.873600
        14        13        12        29     9      180.000000        2.304834         2    ;  uncertainty k = 0.349164
        14        13        12        29     9        0.000000        0.589202         3    ;  uncertainty k = 0.224191
        14        13        12        29     9      180.000000        0.096266         4    ;  uncertainty k = 0.055997
        14        15        16        17     9        0.000000        0.188393         1    ;  uncertainty k = 0.780216
        14        15        16        17     9      180.000000       24.687753         2    ;  uncertainty k = 0.176803
        14        15        16        17     9        0.000000        1.985802         3    ;  uncertainty k = 0.563904
        14        15        16        17     9      180.000000        0.690133         4    ;  uncertainty k = 0.279420
        14        15        16        21     9        0.000000       -0.043172         1    ;  uncertainty k = 0.548350
        14        15        16        21     9      180.000000       25.753064         2    ;  uncertainty k = 0.233339
        14        15        16        21     9        0.000000        2.942378         3    ;  uncertainty k = 0.125640
        14        15        16        21     9      180.000000        0.686554         4    ;  uncertainty k = 0.574272
        14        19        18        17     9        0.000000        0.419278         1    ;  uncertainty k = 2.274473
        14        19        18        17     9      180.000000        1.605236         2    ;  uncertainty k = 0.697545
        14        19        18        17     9        0.000000       -0.163994         3    ;  uncertainty k = 0.200172
        14        19        18        17     9      180.000000        0.325528         4    ;  uncertainty k = 0.077908
        14        19        18        41     9        0.000000       -1.120179         1    ;  uncertainty k = 2.456073
        14        19        18        41     9      180.000000        2.364370         2    ;  uncertainty k = 0.329357
        14        19        18        41     9        0.000000        0.459246         3    ;  uncertainty k = 0.206811
        14        19        18        41     9      180.000000        0.273913         4    ;  uncertainty k = 0.151693
        15        14        13        38     9        0.000000        0.383410         1    ;  uncertainty k = 0.534068
        15        14        13        38     9      180.000000        1.169990         2    ;  uncertainty k = 0.403949
        15        14        13        38     9        0.000000        0.582239         3    ;  uncertainty k = 0.072428
        15        14        13        38     9      180.000000        0.242244         4    ;  uncertainty k = 0.129086
        15        14        13        39     9        0.000000        0.383410         1    ;  uncertainty k = 0.534068
        15        14        13        39     9      180.000000        1.169990         2    ;  uncertainty k = 0.403949
        15        14        13        39     9        0.000000        0.582239         3    ;  uncertainty k = 0.072428
        15        14        13        39     9      180.000000        0.242244         4    ;  uncertainty k = 0.129086
        15        14        19        18     9        0.000000        2.898929         1    ;  uncertainty k = 2.397583
        15        14        19        18     9      180.000000        2.029916         2    ;  uncertainty k = 0.771883
        15        14        19        18     9        0.000000        1.223010         3    ;  uncertainty k = 0.519452
        15        14        19        18     9      180.000000        0.577304         4    ;  uncertainty k = 0.261783
        15        14        19        20     9        0.000000        2.605133         1    ;  uncertainty k = 1.172602
        15        14        19        20     9      180.000000       10.822449         2    ;  uncertainty k = 0.452983
        15        14        19        20     9        0.000000        1.231348         3    ;  uncertainty k = 0.502016
        15        14        19        20     9      180.000000       -0.281985         4    ;  uncertainty k = 0.368205
        15        16        17        18     9        0.000000        0.352014         1    ;  uncertainty k = 1.410780
        15        16        17        18     9      180.000000        4.437856         2    ;  uncertainty k = 0.753046
        15        16        17        18     9        0.000000        0.213422         3    ;  uncertainty k = 0.453700
        15        16        17        18     9      180.000000        0.599744         4    ;  uncertainty k = 0.185202
        15        16        17        40     9        0.000000       -0.968928         1    ;  uncertainty k = 0.799755
        15        16        17        40     9      180.000000        4.602265         2    ;  uncertainty k = 0.838958
        15        16        17        40     9        0.000000        0.753727         3    ;  uncertainty k = 0.438991
        15        16        17        40     9      180.000000        0.503348         4    ;  uncertainty k = 0.169976
        15        16        21        22     9        0.000000        0.577113         1    ;  uncertainty k = 0.839214
        15        16        21        22     9      180.000000        4.374001         2    ;  uncertainty k = 0.259899
        15        16        21        22     9        0.000000        0.310715         3    ;  uncertainty k = 0.200156
        15        16        21        22     9      180.000000       -0.034774         4    ;  uncertainty k = 0.102004
        15        16        21        28     9        0.000000        0.577112         1    ;  uncertainty k = 0.839214
        15        16        21        28     9      180.000000        4.374001         2    ;  uncertainty k = 0.259898
        15        16        21        28     9        0.000000        0.310715         3    ;  uncertainty k = 0.200157
        15        16        21        28     9      180.000000       -0.034774         4    ;  uncertainty k = 0.102004
        16        15        14        19     9        0.000000        3.891956         1    ;  uncertainty k = 2.526573
        16        15        14        19     9      180.000000        4.735669         2    ;  uncertainty k = 1.364246
        16        15        14        19     9        0.000000        1.841464         3    ;  uncertainty k = 0.687599
        16        15        14        19     9      180.000000        0.376448         4    ;  uncertainty k = 0.594894
        16        17        18        19     9        0.000000       -0.247895         1    ;  uncertainty k = 0.726732
        16        17        18        19     9      180.000000       17.791948         2    ;  uncertainty k = 0.335371
        16        17        18        19     9        0.000000        0.675076         3    ;  uncertainty k = 0.419223
        16        17        18        19     9      180.000000        0.996301         4    ;  uncertainty k = 0.368800
        16        17        18        41     9        0.000000       -0.353358         1    ;  uncertainty k = 0.789416
        16        17        18        41     9      180.000000       16.620934         2    ;  uncertainty k = 0.655545
        16        17        18        41     9        0.000000        1.944682         3    ;  uncertainty k = 0.309791
        16        17        18        41     9      180.000000        1.162896         4    ;  uncertainty k = 0.587297
        16        21        22        23     9        0.000000        0.184078         1    ;  uncertainty k = 0.251452
        16        21        22        23     9      180.000000        9.064982         2    ;  uncertainty k = 0.510143
        16        21        22        23     9        0.000000        1.393257         3    ;  uncertainty k = 0.168521
        16        21        22        23     9      180.000000        1.772060         4    ;  uncertainty k = 0.162457
        16        21        22        42     9        0.000000       -0.174783         1    ;  uncertainty k = 0.349607
        16        21        22        42     9      180.000000        7.187869         2    ;  uncertainty k = 0.358632
        16        21        22        42     9        0.000000        0.677750         3    ;  uncertainty k = 0.291506
        16        21        22        42     9      180.000000        1.081331         4    ;  uncertainty k = 0.227152
        16        21        28        26     9        0.000000        0.184079         1    ;  uncertainty k = 0.251450
        16        21        28        26     9      180.000000        9.064984         2    ;  uncertainty k = 0.510143
        16        21        28        26     9        0.000000        1.393256         3    ;  uncertainty k = 0.168522
        16        21        28        26     9      180.000000        1.772060         4    ;  uncertainty k = 0.162456
        16        21        28        44     9        0.000000       -0.174783         1    ;  uncertainty k = 0.349608
        16        21        28        44     9      180.000000        7.187870         2    ;  uncertainty k = 0.358633
        16        21        28        44     9        0.000000        0.677750         3    ;  uncertainty k = 0.291506
        16        21        28        44     9      180.000000        1.081331         4    ;  uncertainty k = 0.227152
        17        16        21        22     9        0.000000        0.063923         1    ;  uncertainty k = 0.802333
        17        16        21        22     9      180.000000        3.869396         2    ;  uncertainty k = 0.175768
        17        16        21        22     9        0.000000        0.641555         3    ;  uncertainty k = 0.157661
        17        16        21        22     9      180.000000       -0.162970         4    ;  uncertainty k = 0.081803
        17        16        21        28     9        0.000000        0.063923         1    ;  uncertainty k = 0.802332
        17        16        21        28     9      180.000000        3.869397         2    ;  uncertainty k = 0.175767
        17        16        21        28     9        0.000000        0.641555         3    ;  uncertainty k = 0.157661
        17        16        21        28     9      180.000000       -0.162970         4    ;  uncertainty k = 0.081803
        17        18        19        20     9        0.000000       -2.001816         1    ;  uncertainty k = 1.317032
        17        18        19        20     9      180.000000        3.389786         2    ;  uncertainty k = 0.746169
        17        18        19        20     9        0.000000       -0.174173         3    ;  uncertainty k = 0.227865
        17        18        19        20     9      180.000000        0.016096         4    ;  uncertainty k = 0.112368
        18        17        16        21     9        0.000000        0.540598         1    ;  uncertainty k = 0.803544
        18        17        16        21     9      180.000000        4.601494         2    ;  uncertainty k = 0.981891
        18        17        16        21     9        0.000000        0.716168         3    ;  uncertainty k = 0.328634
        18        17        16        21     9      180.000000        0.575741         4    ;  uncertainty k = 0.279114
        19        14        13        38     9        0.000000       -0.473768         1    ;  uncertainty k = 0.528512
        19        14        13        38     9      180.000000        1.255511         2    ;  uncertainty k = 0.273074
        19        14        13        38     9        0.000000        0.779238         3    ;  uncertainty k = 0.054623
        19        14        13        38     9      180.000000        0.411931         4    ;  uncertainty k = 0.034525
        19        14        13        39     9        0.000000       -0.473768         1    ;  uncertainty k = 0.528512
        19        14        13        39     9      180.000000        1.255511         2    ;  uncertainty k = 0.273074
        19        14        13        39     9        0.000000        0.779238         3    ;  uncertainty k = 0.054623
        19        14        13        39     9      180.000000        0.411931         4    ;  uncertainty k = 0.034525
        19        18        17        40     9        0.000000       -0.328809         1    ;  uncertainty k = 0.661921
        19        18        17        40     9      180.000000       15.838400         2    ;  uncertainty k = 0.436273
        19        18        17        40     9        0.000000        1.792267         3    ;  uncertainty k = 0.273244
        19        18        17        40     9      180.000000        1.039596         4    ;  uncertainty k = 0.351736
        20        19        18        41     9        0.000000       -3.368927         1    ;  uncertainty k = 1.838218
        20        19        18        41     9      180.000000        6.946407         2    ;  uncertainty k = 0.848337
        20        19        18        41     9        0.000000        0.461531         3    ;  uncertainty k = 0.415057
        20        19        18        41     9      180.000000       -0.155191         4    ;  uncertainty k = 0.180479
        21        16        17        40     9        0.000000       -0.583861         1    ;  uncertainty k = 1.092916
        21        16        17        40     9      180.000000        5.200620         2    ;  uncertainty k = 0.384920
        21        16        17        40     9        0.000000        1.054483         3    ;  uncertainty k = 0.197088
        21        16        17        40     9      180.000000        0.361604         4    ;  uncertainty k = 0.155457
        21        22        23        24     9        0.000000       -0.049881         1    ;  uncertainty k = 0.257803
        21        22        23        24     9      180.000000       12.651864         2    ;  uncertainty k = 0.408915
        21        22        23        24     9        0.000000        1.531328         3    ;  uncertainty k = 0.260602
        21        22        23        24     9      180.000000        1.472262         4    ;  uncertainty k = 0.165252
        21        22        23        25     9        0.000000        0.057717         1    ;  uncertainty k = 0.164909
        21        22        23        25     9      180.000000        8.885300         2    ;  uncertainty k = 0.653772
        21        22        23        25     9        0.000000       -0.076192         3    ;  uncertainty k = 0.320382
        21        22        23        25     9      180.000000        1.240042         4    ;  uncertainty k = 0.346858
        21        28        26        25     9        0.000000        0.057718         1    ;  uncertainty k = 0.164909
        21        28        26        25     9      180.000000        8.885300         2    ;  uncertainty k = 0.653771
        21        28        26        25     9        0.000000       -0.076192         3    ;  uncertainty k = 0.320383
        21        28        26        25     9      180.000000        1.240042         4    ;  uncertainty k = 0.346858
        21        28        26        27     9        0.000000       -0.049879         1    ;  uncertainty k = 0.257803
        21        28        26        27     9      180.000000       12.651865         2    ;  uncertainty k = 0.408916
        21        28        26        27     9        0.000000        1.531328         3    ;  uncertainty k = 0.260602
        21        28        26        27     9      180.000000        1.472261         4    ;  uncertainty k = 0.165252
        22        21        28        26     9        0.000000        0.022121         1    ;  uncertainty k = 0.243825
        22        21        28        26     9      180.000000       11.046753         2    ;  uncertainty k = 0.290032
        22        21        28        26     9        0.000000       -0.498760         3    ;  uncertainty k = 0.387970
        22        21        28        26     9      180.000000        1.024180         4    ;  uncertainty k = 0.289071
        22        21        28        44     9        0.000000        0.218088         1    ;  uncertainty k = 0.243952
        22        21        28        44     9      180.000000        6.917737         2    ;  uncertainty k = 0.583903
        22        21        28        44     9        0.000000        1.463818         3    ;  uncertainty k = 0.217536
        22        21        28        44     9      180.000000        1.686540         4    ;  uncertainty k = 0.256320
        22        23        25        26     9        0.000000        0.079700         1    ;  uncertainty k = 0.154156
        22        23        25        26     9      180.000000        8.889417         2    ;  uncertainty k = 0.512494
        22        23        25        26     9        0.000000       -0.106306         3    ;  uncertainty k = 0.476972
        22        23        25        26     9      180.000000        1.234736         4    ;  uncertainty k = 0.285242
        22        23        25        43     9        0.000000        0.130307         1    ;  uncertainty k = 0.144653
        22        23        25        43     9      180.000000        5.532844         2    ;  uncertainty k = 0.680369
        22        23        25        43     9        0.000000        1.265320         3    ;  uncertainty k = 0.294957
        22        23        25        43     9      180.000000        1.481410         4    ;  uncertainty k = 0.077611
        23        22        21        28     9        0.000000        0.022121         1    ;  uncertainty k = 0.243825
        23        22        21        28     9      180.000000       11.046753         2    ;  uncertainty k = 0.290033
        23        22        21        28     9        0.000000       -0.498760         3    ;  uncertainty k = 0.387970
        23        22        21        28     9      180.000000        1.024180         4    ;  uncertainty k = 0.289072
        23        25        26        27     9        0.000000       -0.032347         1    ;  uncertainty k = 0.289699
        23        25        26        27     9      180.000000       12.548672         2    ;  uncertainty k = 0.646212
        23        25        26        27     9        0.000000        1.557435         3    ;  uncertainty k = 0.311241
        23        25        26        27     9      180.000000        1.512893         4    ;  uncertainty k = 0.296058
        23        25        26        28     9        0.000000        0.079700         1    ;  uncertainty k = 0.154156
        23        25        26        28     9      180.000000        8.889415         2    ;  uncertainty k = 0.512494
        23        25        26        28     9        0.000000       -0.106306         3    ;  uncertainty k = 0.476971
        23        25        26        28     9      180.000000        1.234736         4    ;  uncertainty k = 0.285241
        24        23        22        42     9        0.000000       -0.415350         1    ;  uncertainty k = 0.228614
        24        23        22        42     9      180.000000        9.086426         2    ;  uncertainty k = 0.377298
        24        23        22        42     9        0.000000        0.802704         3    ;  uncertainty k = 0.232488
        24        23        22        42     9      180.000000        1.043251         4    ;  uncertainty k = 0.211577
        24        23        25        26     9        0.000000       -0.032345         1    ;  uncertainty k = 0.289699
        24        23        25        26     9      180.000000       12.548672         2    ;  uncertainty k = 0.646212
        24        23        25        26     9        0.000000        1.557435         3    ;  uncertainty k = 0.311241
        24        23        25        26     9      180.000000        1.512892         4    ;  uncertainty k = 0.296059
        24        23        25        43     9        0.000000       -0.234235         1    ;  uncertainty k = 0.255322
        24        23        25        43     9      180.000000        8.539482         2    ;  uncertainty k = 0.302304
        24        23        25        43     9        0.000000        0.791090         3    ;  uncertainty k = 0.302726
        24        23        25        43     9      180.000000        0.996026         4    ;  uncertainty k = 0.177952
        25        23        22        42     9        0.000000       -0.021691         1    ;  uncertainty k = 0.235351
        25        23        22        42     9      180.000000        5.842807         2    ;  uncertainty k = 0.659900
        25        23        22        42     9        0.000000        1.305046         3    ;  uncertainty k = 0.309757
        25        23        22        42     9      180.000000        1.641078         4    ;  uncertainty k = 0.167200
        25        26        28        44     9        0.000000       -0.021690         1    ;  uncertainty k = 0.235350
        25        26        28        44     9      180.000000        5.842806         2    ;  uncertainty k = 0.659901
        25        26        28        44     9        0.000000        1.305046         3    ;  uncertainty k = 0.309758
        25        26        28        44     9      180.000000        1.641078         4    ;  uncertainty k = 0.167201
        27        26        25        43     9        0.000000       -0.234235         1    ;  uncertainty k = 0.255324
        27        26        25        43     9      180.000000        8.539485         2    ;  uncertainty k = 0.302303
        27        26        25        43     9        0.000000        0.791090         3    ;  uncertainty k = 0.302726
        27        26        25        43     9      180.000000        0.996026         4    ;  uncertainty k = 0.177952
        27        26        28        44     9        0.000000       -0.415350         1    ;  uncertainty k = 0.228614
        27        26        28        44     9      180.000000        9.086428         2    ;  uncertainty k = 0.377299
        27        26        28        44     9        0.000000        0.802705         3    ;  uncertainty k = 0.232487
        27        26        28        44     9      180.000000        1.043252         4    ;  uncertainty k = 0.211577
        28        21        22        42     9        0.000000        0.218088         1    ;  uncertainty k = 0.243952
        28        21        22        42     9      180.000000        6.917737         2    ;  uncertainty k = 0.583902
        28        21        22        42     9        0.000000        1.463818         3    ;  uncertainty k = 0.217536
        28        21        22        42     9      180.000000        1.686540         4    ;  uncertainty k = 0.256320
        28        26        25        43     9        0.000000        0.130307         1    ;  uncertainty k = 0.144654
        28        26        25        43     9      180.000000        5.532843         2    ;  uncertainty k = 0.680369
        28        26        25        43     9        0.000000        1.265320         3    ;  uncertainty k = 0.294958
        28        26        25        43     9      180.000000        1.481410         4    ;  uncertainty k = 0.077611
        29         8         9        35     9        0.000000        0.138755         1    ;  uncertainty k = 0.054241
        29         8         9        35     9      180.000000        7.000311         2    ;  uncertainty k = 0.508378
        29         8         9        35     9        0.000000        1.356564         3    ;  uncertainty k = 0.208735
        29         8         9        35     9      180.000000        1.627610         4    ;  uncertainty k = 0.267921
        29        12        11        37     9        0.000000        0.248447         1    ;  uncertainty k = 0.148767
        29        12        11        37     9      180.000000        7.198177         2    ;  uncertainty k = 0.662423
        29        12        11        37     9        0.000000        1.402264         3    ;  uncertainty k = 0.334037
        29        12        11        37     9      180.000000        1.646031         4    ;  uncertainty k = 0.174376
        29        12        13        38     9        0.000000       -0.398647         1    ;  uncertainty k = 0.333878
        29        12        13        38     9      180.000000        1.853737         2    ;  uncertainty k = 0.130289
        29        12        13        38     9        0.000000        0.462866         3    ;  uncertainty k = 0.086311
        29        12        13        38     9      180.000000        0.144774         4    ;  uncertainty k = 0.034221
        29        12        13        39     9        0.000000       -0.398647         1    ;  uncertainty k = 0.333878
        29        12        13        39     9      180.000000        1.853737         2    ;  uncertainty k = 0.130289
        29        12        13        39     9        0.000000        0.462866         3    ;  uncertainty k = 0.086311
        29        12        13        39     9      180.000000        0.144774         4    ;  uncertainty k = 0.034221
        33         3         4        34     9        0.000000       -0.170799         1    ;  uncertainty k = 0.653796
        33         3         4        34     9      180.000000        9.306483         2    ;  uncertainty k = 0.399968
        33         3         4        34     9        0.000000       -0.404936         3    ;  uncertainty k = 0.447537
        33         3         4        34     9      180.000000        0.206761         4    ;  uncertainty k = 0.370025
        35         9        10        36     9        0.000000       -0.134579         1    ;  uncertainty k = 0.166875
        35         9        10        36     9      180.000000        7.713863         2    ;  uncertainty k = 0.323331
        35         9        10        36     9        0.000000       -0.442760         3    ;  uncertainty k = 0.260759
        35         9        10        36     9      180.000000        0.150841         4    ;  uncertainty k = 0.128587
        36        10        11        37     9        0.000000       -0.198654         1    ;  uncertainty k = 0.114003
        36        10        11        37     9      180.000000        7.524263         2    ;  uncertainty k = 0.278370
        36        10        11        37     9        0.000000       -0.447569         3    ;  uncertainty k = 0.273871
        36        10        11        37     9      180.000000        0.116475         4    ;  uncertainty k = 0.127163
        40        17        18        41     9        0.000000       -0.308549         1    ;  uncertainty k = 0.397502
        40        17        18        41     9      180.000000       12.289337         2    ;  uncertainty k = 0.583478
        40        17        18        41     9        0.000000        1.036027         3    ;  uncertainty k = 0.400452
        40        17        18        41     9      180.000000        0.764718         4    ;  uncertainty k = 0.591319

[ dihedrals ] ; impropers
;       ai        aj        ak        al funct           phase               k        pn
         2         1         3         7     4      180.000000       25.497697         2    ;  uncertainty k = 0.099156
         2         3         7         1     4      180.000000       25.497697         2    ;  uncertainty k = 0.099156
         2         7         1         3     4      180.000000       25.497697         2    ;  uncertainty k = 0.099156
         3         2         4        33     4      180.000000        4.885373         2    ;  uncertainty k = 0.177690
         3         4        33         2     4      180.000000        4.885373         2    ;  uncertainty k = 0.177690
         3        33         2         4     4      180.000000        4.885373         2    ;  uncertainty k = 0.177690
         4         3         5        34     4      180.000000        5.070238         2    ;  uncertainty k = 0.292920
         4         5        34         3     4      180.000000        5.070238         2    ;  uncertainty k = 0.292920
         4        34         3         5     4      180.000000        5.070238         2    ;  uncertainty k = 0.292920
         5         4         6         8     4      180.000000       23.969423         2    ;  uncertainty k = 0.082299
         5         6         8         4     4      180.000000       23.969423         2    ;  uncertainty k = 0.082299
         5         8         4         6     4      180.000000       23.969423         2    ;  uncertainty k = 0.082299
         8         5         9        29     4      180.000000       11.062480         2    ;  uncertainty k = 0.091411
         8         9        29         5     4      180.000000       11.062480         2    ;  uncertainty k = 0.091411
         8        29         5         9     4      180.000000       11.062480         2    ;  uncertainty k = 0.091411
         9         8        10        35     4      180.000000        4.145948         2    ;  uncertainty k = 0.109519
         9        10        35         8     4      180.000000        4.145948         2    ;  uncertainty k = 0.109519
         9        35         8        10     4      180.000000        4.145948         2    ;  uncertainty k = 0.109519
        10         9        11        36     4      180.000000        4.083456         2    ;  uncertainty k = 0.131765
        10        11        36         9     4      180.000000        4.083456         2    ;  uncertainty k = 0.131765
        10        36         9        11     4      180.000000        4.083456         2    ;  uncertainty k = 0.131765
        11        10        12        37     4      180.000000        4.536009         2    ;  uncertainty k = 0.189279
        11        12        37        10     4      180.000000        4.536009         2    ;  uncertainty k = 0.189279
        11        37        10        12     4      180.000000        4.536009         2    ;  uncertainty k = 0.189279
        12        11        13        29     4      180.000000       11.775492         2    ;  uncertainty k = 0.100808
        12        13        29        11     4      180.000000       11.775492         2    ;  uncertainty k = 0.100808
        12        29        11        13     4      180.000000       11.775492         2    ;  uncertainty k = 0.100808
        14        13        15        19     4      180.000000        4.907151         2    ;  uncertainty k = 0.611201
        14        15        19        13     4      180.000000        4.907151         2    ;  uncertainty k = 0.611201
        14        19        13        15     4      180.000000        4.907151         2    ;  uncertainty k = 0.611201
        16        15        17        21     4      180.000000       17.338875         2    ;  uncertainty k = 0.107858
        16        17        21        15     4      180.000000       17.338875         2    ;  uncertainty k = 0.107858
        16        21        15        17     4      180.000000       17.338875         2    ;  uncertainty k = 0.107858
        17        16        18        40     4      180.000000        6.632123         2    ;  uncertainty k = 0.364368
        17        18        40        16     4      180.000000        6.632123         2    ;  uncertainty k = 0.364368
        17        40        16        18     4      180.000000        6.632123         2    ;  uncertainty k = 0.364368
        18        17        19        41     4      180.000000        3.715532         2    ;  uncertainty k = 0.270488
        18        19        41        17     4      180.000000        3.715532         2    ;  uncertainty k = 0.270488
        18        41        17        19     4      180.000000        3.715532         2    ;  uncertainty k = 0.270488
        19        14        18        20     4      180.000000       49.481395         2    ;  uncertainty k = 0.023227
        19        18        20        14     4      180.000000       49.481395         2    ;  uncertainty k = 0.023227
        19        20        14        18     4      180.000000       49.481395         2    ;  uncertainty k = 0.023227
        21        16        22        28     4      180.000000       12.665951         2    ;  uncertainty k = 0.077152
        21        22        28        16     4      180.000000       12.665951         2    ;  uncertainty k = 0.077152
        21        28        16        22     4      180.000000       12.665951         2    ;  uncertainty k = 0.077152
        22        21        23        42     4      180.000000        2.108081         2    ;  uncertainty k = 0.256057
        22        23        42        21     4      180.000000        2.108081         2    ;  uncertainty k = 0.256057
        22        42        21        23     4      180.000000        2.108081         2    ;  uncertainty k = 0.256057
        23        22        24        25     4      180.000000       17.764894         2    ;  uncertainty k = 0.031615
        23        24        25        22     4      180.000000       17.764894         2    ;  uncertainty k = 0.031615
        23        25        22        24     4      180.000000       17.764894         2    ;  uncertainty k = 0.031615
        25        23        26        43     4      180.000000        1.216899         2    ;  uncertainty k = 0.080605
        25        26        43        23     4      180.000000        1.216899         2    ;  uncertainty k = 0.080605
        25        43        23        26     4      180.000000        1.216899         2    ;  uncertainty k = 0.080605
        26        25        27        28     4      180.000000       17.764895         2    ;  uncertainty k = 0.031616
        26        27        28        25     4      180.000000       17.764895         2    ;  uncertainty k = 0.031616
        26        28        25        27     4      180.000000       17.764895         2    ;  uncertainty k = 0.031616
        28        21        26        44     4      180.000000        2.108084         2    ;  uncertainty k = 0.256058
        28        26        44        21     4      180.000000        2.108084         2    ;  uncertainty k = 0.256058
        28        44        21        26     4      180.000000        2.108084         2    ;  uncertainty k = 0.256058
        29         8        12        45     4      180.000000        4.730450         2    ;  uncertainty k = 0.241908
        29        12        45         8     4      180.000000        4.730450         2    ;  uncertainty k = 0.241908
        29        45         8        12     4      180.000000        4.730450         2    ;  uncertainty k = 0.241908

[ pairs ]
;       ai        aj funct
         1         4     1
         1         6     1
         1        33     1
         2         5     1
         2        34     1
         3         6     1
         3         8     1
         3        30     1
         3        31     1
         3        32     1
         4         7     1
         4         9     1
         4        29     1
         5        10     1
         5        12     1
         5        33     1
         5        35     1
         5        45     1
         6         9     1
         6        29     1
         6        34     1
         7         8     1
         7        30     1
         7        31     1
         7        32     1
         7        33     1
         8        11     1
         8        13     1
         8        34     1
         8        36     1
         9        12     1
         9        37     1
         9        45     1
        10        13     1
        10        29     1
        11        14     1
        11        35     1
        11        38     1
        11        39     1
        11        45     1
        12        15     1
        12        19     1
        12        36     1
        13        16     1
        13        18     1
        13        20     1
        13        37     1
        13        45     1
        14        17     1
        14        21     1
        14        29     1
        14        41     1
        15        18     1
        15        20     1
        15        22     1
        15        28     1
        15        38     1
        15        39     1
        15        40     1
        16        19     1
        16        23     1
        16        26     1
        16        41     1
        16        42     1
        16        44     1
        17        20     1
        17        22     1
        17        28     1
        18        21     1
        19        38     1
        19        39     1
        19        40     1
        20        41     1
        21        24     1
        21        25     1
        21        27     1
        21        40     1
        22        26     1
        22        43     1
        22        44     1
        23        27     1
        23        28     1
        24        26     1
        24        42     1
        24        43     1
        25        42     1
        25        44     1
        27        43     1
        27        44     1
        28        42     1
        28        43     1
        29        35     1
        29        37     1
        29        38     1
        29        39     1
        33        34     1
        35        36     1
        36        37     1
        40        41     1
