; ITP file created by ByteFF-ML, 2025-12-06 06:49:52.845980

[ atomtypes ]
;name           bonded.type        at.num        mass        charge   ptype           sigma         epsilon
 c0bf                                   6      0.0000       0.00000       A     3.39818e-01     4.51218e-01
 c1bf                                   6      0.0000       0.00000       A     3.31513e-01     4.11532e-01
 c2bf                                   6      0.0000       0.00000       A     3.31432e-01     4.12873e-01
 c3bf                                   6      0.0000       0.00000       A     3.31491e-01     4.13206e-01
 c4bf                                   6      0.0000       0.00000       A     3.39792e-01     4.51380e-01
 c5bf                                   6      0.0000       0.00000       A     3.31450e-01     4.09135e-01
 c6bf                                   6      0.0000       0.00000       A     3.31602e-01     4.15347e-01
 c7bf                                   6      0.0000       0.00000       A     3.31529e-01     4.12736e-01
 c8bf                                   6      0.0000       0.00000       A     3.31507e-01     4.11068e-01
 o9bf                                   8      0.0000       0.00000       A     3.04860e-01     6.09054e-01
 n10bf                                  7      0.0000       0.00000       A     3.26952e-01     4.88212e-01
 c11bf                                  6      0.0000       0.00000       A     3.39794e-01     4.49499e-01
 c12bf                                  6      0.0000       0.00000       A     3.39888e-01     4.50813e-01
 c13bf                                  6      0.0000       0.00000       A     3.39773e-01     4.50947e-01
 o14bf                                  8      0.0000       0.00000       A     3.15857e-01     3.05620e-01
 c15bf                                  6      0.0000       0.00000       A     3.31403e-01     4.13527e-01
 c16bf                                  6      0.0000       0.00000       A     3.31403e-01     4.13824e-01
 c17bf                                  6      0.0000       0.00000       A     3.31606e-01     4.11902e-01
 c18bf                                  6      0.0000       0.00000       A     3.31532e-01     4.13858e-01
 c19bf                                  6      0.0000       0.00000       A     3.31307e-01     4.13197e-01
 c20bf                                  6      0.0000       0.00000       A     3.31488e-01     4.13475e-01
 s21bf                                 16      0.0000       0.00000       A     3.53445e-01     1.17795e+00
 c22bf                                  6      0.0000       0.00000       A     3.31539e-01     4.15647e-01
 n23bf                                  7      0.0000       0.00000       A     3.38419e-01     3.93030e-01
 c24bf                                  6      0.0000       0.00000       A     3.31393e-01     4.17203e-01
 c25bf                                  6      0.0000       0.00000       A     3.31432e-01     4.12520e-01
 n26bf                                  7      0.0000       0.00000       A     3.38513e-01     3.89190e-01
 c27bf                                  6      0.0000       0.00000       A     3.31328e-01     4.14640e-01
 n28bf                                  7      0.0000       0.00000       A     3.36757e-01     4.72523e-01
 h29bf                                  1      0.0000       0.00000       A     2.60031e-01     8.73273e-02
 h30bf                                  1      0.0000       0.00000       A     2.60031e-01     8.73273e-02
 h31bf                                  1      0.0000       0.00000       A     2.60031e-01     8.73273e-02
 h32bf                                  1      0.0000       0.00000       A     2.62577e-01     6.77962e-02
 h33bf                                  1      0.0000       0.00000       A     2.60028e-01     8.72826e-02
 h34bf                                  1      0.0000       0.00000       A     2.60028e-01     8.72826e-02
 h35bf                                  1      0.0000       0.00000       A     2.60028e-01     8.72826e-02
 h36bf                                  1      0.0000       0.00000       A     2.62622e-01     6.74595e-02
 h37bf                                  1      0.0000       0.00000       A     1.10322e-01     4.08721e-02
 h38bf                                  1      0.0000       0.00000       A     2.42473e-01     8.77375e-02
 h39bf                                  1      0.0000       0.00000       A     2.42473e-01     8.77375e-02
 h40bf                                  1      0.0000       0.00000       A     2.60008e-01     8.61255e-02
 h41bf                                  1      0.0000       0.00000       A     2.60008e-01     8.61255e-02
 h42bf                                  1      0.0000       0.00000       A     2.42068e-01     8.77391e-02
 h43bf                                  1      0.0000       0.00000       A     2.42068e-01     8.77391e-02
 h44bf                                  1      0.0000       0.00000       A     2.62469e-01     6.73733e-02
 h45bf                                  1      0.0000       0.00000       A     2.62446e-01     6.69008e-02
 h46bf                                  1      0.0000       0.00000       A     2.62562e-01     6.73334e-02
 h47bf                                  1      0.0000       0.00000       A     2.62558e-01     6.78026e-02
 h48bf                                  1      0.0000       0.00000       A     2.62441e-01     6.73876e-02
 h49bf                                  1      0.0000       0.00000       A     1.10073e-01     4.24538e-02
 h50bf                                  1      0.0000       0.00000       A     1.10073e-01     4.24538e-02

[ moleculetype ]
;name             nrexcl
 11_3VHC               3

[ atoms ]
;       nr            type      resi   res      atom      cgnr      charge          mass ; qtot
         1            c0bf         1   UNL        c0         1    -0.05384       12.0110 ; qtot   -0.054
         2            c1bf         1   UNL        c1         2    -0.01746       12.0110 ; qtot   -0.071
         3            c2bf         1   UNL        c2         3    -0.13610       12.0110 ; qtot   -0.207
         4            c3bf         1   UNL        c3         4    -0.01962       12.0110 ; qtot   -0.227
         5            c4bf         1   UNL        c4         5    -0.05268       12.0110 ; qtot   -0.280
         6            c5bf         1   UNL        c5         6    -0.17151       12.0110 ; qtot   -0.451
         7            c6bf         1   UNL        c6         7    -0.03171       12.0110 ; qtot   -0.483
         8            c7bf         1   UNL        c7         8    -0.16002       12.0110 ; qtot   -0.643
         9            c8bf         1   UNL        c8         9     0.60647       12.0110 ; qtot   -0.036
        10            o9bf         1   UNL        o9        10    -0.59524       15.9990 ; qtot   -0.632
        11           n10bf         1   UNL       n10        11    -0.50922       14.0070 ; qtot   -1.141
        12           c11bf         1   UNL       c11        12     0.10154       12.0110 ; qtot   -1.039
        13           c12bf         1   UNL       c12        13    -0.11502       12.0110 ; qtot   -1.154
        14           c13bf         1   UNL       c13        14     0.16525       12.0110 ; qtot   -0.989
        15           o14bf         1   UNL       o14        15    -0.35346       15.9990 ; qtot   -1.343
        16           c15bf         1   UNL       c15        16     0.13243       12.0110 ; qtot   -1.210
        17           c16bf         1   UNL       c16        17    -0.11895       12.0110 ; qtot   -1.329
        18           c17bf         1   UNL       c17        18    -0.15881       12.0110 ; qtot   -1.488
        19           c18bf         1   UNL       c18        19    -0.08330       12.0110 ; qtot   -1.571
        20           c19bf         1   UNL       c19        20    -0.09022       12.0110 ; qtot   -1.661
        21           c20bf         1   UNL       c20        21    -0.10440       12.0110 ; qtot   -1.766
        22           s21bf         1   UNL       s21        22    -0.15145       32.0670 ; qtot   -1.917
        23           c22bf         1   UNL       c22        23     0.25971       12.0110 ; qtot   -1.658
        24           n23bf         1   UNL       n23        24    -0.23919       14.0070 ; qtot   -1.897
        25           c24bf         1   UNL       c24        25    -0.21264       12.0110 ; qtot   -2.109
        26           c25bf         1   UNL       c25        26     0.21727       12.0110 ; qtot   -1.892
        27           n26bf         1   UNL       n26        27    -0.24909       14.0070 ; qtot   -2.141
        28           c27bf         1   UNL       c27        28     0.36459       12.0110 ; qtot   -1.777
        29           n28bf         1   UNL       n28        29    -1.02776       14.0070 ; qtot   -2.804
        30           h29bf         1   UNL       h29        30     0.05000        1.0080 ; qtot   -2.754
        31           h30bf         1   UNL       h30        31     0.05000        1.0080 ; qtot   -2.704
        32           h31bf         1   UNL       h31        32     0.05000        1.0080 ; qtot   -2.654
        33           h32bf         1   UNL       h32        33     0.11507        1.0080 ; qtot   -2.539
        34           h33bf         1   UNL       h33        34     0.04871        1.0080 ; qtot   -2.491
        35           h34bf         1   UNL       h34        35     0.04871        1.0080 ; qtot   -2.442
        36           h35bf         1   UNL       h35        36     0.04871        1.0080 ; qtot   -2.393
        37           h36bf         1   UNL       h36        37     0.13386        1.0080 ; qtot   -2.259
        38           h37bf         1   UNL       h37        38     0.31683        1.0080 ; qtot   -1.943
        39           h38bf         1   UNL       h38        39     0.05955        1.0080 ; qtot   -1.883
        40           h39bf         1   UNL       h39        40     0.05955        1.0080 ; qtot   -1.823
        41           h40bf         1   UNL       h40        41     0.06099        1.0080 ; qtot   -1.762
        42           h41bf         1   UNL       h41        42     0.06099        1.0080 ; qtot   -1.701
        43           h42bf         1   UNL       h42        43     0.04424        1.0080 ; qtot   -1.657
        44           h43bf         1   UNL       h43        44     0.04424        1.0080 ; qtot   -1.613
        45           h44bf         1   UNL       h44        45     0.13641        1.0080 ; qtot   -1.477
        46           h45bf         1   UNL       h45        46     0.12565        1.0080 ; qtot   -1.351
        47           h46bf         1   UNL       h46        47     0.12066        1.0080 ; qtot   -1.230
        48           h47bf         1   UNL       h47        48     0.12923        1.0080 ; qtot   -1.101
        49           h48bf         1   UNL       h48        49     0.14755        1.0080 ; qtot   -0.953
        50           h49bf         1   UNL       h49        50     0.47675        1.0080 ; qtot   -0.477
        51           h50bf         1   UNL       h50        51     0.47673        1.0080 ; qtot   -0.000

[ bonds ]
;       ai        aj funct               r               k
         1         2     1        0.151236   200519.093799
         1        30     1        0.109345   301833.259473
         1        31     1        0.109345   301833.259473
         1        32     1        0.109345   301833.259473
         2         3     1        0.140123   296308.561230
         2         8     1        0.141016   267198.605957
         3         4     1        0.140120   298323.005029
         3        33     1        0.108752   312124.714551
         4         5     1        0.151222   200898.524170
         4         6     1        0.141240   260143.775195
         5        34     1        0.109337   301779.835840
         5        35     1        0.109337   301779.835840
         5        36     1        0.109337   301779.835840
         6         7     1        0.140258   290907.232764
         6        26     1        0.148658   205318.742432
         7         8     1        0.139992   297181.802686
         7        37     1        0.108466   322074.993848
         8         9     1        0.150376   178006.076147
         9        10     1        0.123362   593386.249121
         9        11     1        0.136968   295393.285693
        11        12     1        0.146059   206575.270361
        11        38     1        0.101099   424170.365234
        12        13     1        0.153336   184954.481006
        12        39     1        0.109288   301636.112988
        12        40     1        0.109288   301636.112988
        13        14     1        0.152524   192328.934229
        13        41     1        0.109489   298302.983936
        13        42     1        0.109489   298302.983936
        14        15     1        0.143306   187560.543018
        14        43     1        0.109679   289930.157422
        14        44     1        0.109679   289930.157422
        15        16     1        0.136745   268380.080322
        16        17     1        0.140203   287679.674121
        16        18     1        0.140325   287499.637500
        17        21     1        0.139909   299985.930518
        17        45     1        0.108363   324883.054395
        18        19     1        0.139719   314785.706885
        18        46     1        0.108392   324261.966357
        19        20     1        0.139646   310323.199170
        19        47     1        0.108610   320095.612500
        20        21     1        0.139967   297505.128027
        20        48     1        0.108495   322485.221973
        21        22     1        0.179342   136782.439819
        22        23     1        0.178971   129762.045850
        23        24     1        0.133190   321995.037158
        23        25     1        0.139841   287963.748926
        24        28     1        0.134663   267665.220020
        25        26     1        0.139784   290000.690918
        25        49     1        0.108175   330231.367822
        26        27     1        0.134143   311398.771143
        27        28     1        0.134264   274234.590332
        28        29     1        0.137194   320073.548438
        29        50     1        0.101085   429215.067969
        29        51     1        0.101085   429215.067969

[ angles ]
;       ai        aj        ak funct           theta             cth
         1         2         3     1      119.287392      494.458290
         1         2         8     1      123.162796      456.139762
         2         1        30     1      111.186356      483.733534
         2         1        31     1      111.186356      483.733534
         2         1        32     1      111.186356      483.733534
         2         3         4     1      123.654274      687.014256
         2         3        33     1      118.286537      407.832968
         2         8         7     1      119.513931      700.065825
         2         8         9     1      122.268654      571.086632
         3         2         8     1      117.580368      693.258207
         3         4         5     1      118.990601      498.471926
         3         4         6     1      117.949120      697.514157
         4         3        33     1      118.246605      405.104391
         4         5        34     1      111.180176      485.104015
         4         5        35     1      111.180176      485.104015
         4         5        36     1      111.180176      485.104015
         4         6         7     1      119.115334      677.017499
         4         6        26     1      123.140404      493.051355
         5         4         6     1      123.262352      453.307696
         6         7         8     1      122.136192      641.107152
         6         7        37     1      118.595581      407.398039
         6        26        25     1      121.605591      458.095585
         6        26        27     1      116.994347      480.221415
         7         6        26     1      117.954956      517.127422
         7         8         9     1      117.709633      546.010532
         8         7        37     1      118.804970      398.500144
         8         9        10     1      122.589172      603.827186
         8         9        11     1      115.445168      491.888140
         9        11        12     1      121.855736      534.574088
         9        11        38     1      118.143997      420.005327
        10         9        11     1      121.997681      597.089539
        11        12        13     1      112.619041      576.583495
        11        12        39     1      107.784256      536.532817
        11        12        40     1      107.784256      536.532880
        12        11        38     1      118.434402      416.266566
        12        13        14     1      112.563171      604.111605
        12        13        41     1      109.287338      501.688261
        12        13        42     1      109.287338      501.688261
        13        12        39     1      110.154869      482.712465
        13        12        40     1      110.154869      482.712465
        13        14        15     1      109.505692      620.632072
        13        14        43     1      110.709618      491.869306
        13        14        44     1      110.709618      491.869306
        14        13        41     1      108.994812      508.878330
        14        13        42     1      108.994812      508.878330
        14        15        16     1      118.655380      527.381146
        15        14        43     1      108.876343      459.296595
        15        14        44     1      108.876343      459.296595
        15        16        17     1      118.702942      533.626598
        15        16        18     1      120.920822      551.587389
        16        17        21     1      119.874611      696.955150
        16        17        45     1      120.030136      408.591069
        16        18        19     1      119.417557      749.775277
        16        18        46     1      120.162071      433.219887
        17        16        18     1      119.845322      622.312988
        17        21        20     1      120.551956      674.771255
        17        21        22     1      119.219376      367.831129
        18        19        20     1      120.952904      688.614028
        18        19        47     1      119.405502      419.754424
        19        18        46     1      120.406517      426.367131
        19        20        21     1      118.955215      615.777212
        19        20        48     1      120.835861      421.072682
        20        19        47     1      119.636429      427.991355
        20        21        22     1      119.938011      384.872393
        21        17        45     1      120.120056      371.375616
        21        20        48     1      120.102478      378.278999
        21        22        23     1      102.187088      778.209891
        22        23        24     1      116.492393      415.073345
        22        23        25     1      119.850266      383.024496
        23        24        28     1      115.883568      932.098236
        23        25        26     1      116.304123      867.656298
        23        25        49     1      121.690720      421.371498
        24        23        25     1      122.878990      710.508588
        24        28        27     1      126.730873      655.106404
        24        28        29     1      116.218155      600.142245
        25        26        27     1      121.407372      702.274785
        26        25        49     1      121.987381      409.097597
        26        27        28     1      116.632629      949.049513
        27        28        29     1      116.465744      588.109733
        28        29        50     1      116.052841      472.399558
        28        29        51     1      116.052841      472.399558
        30         1        31     1      107.761963      356.703908
        30         1        32     1      107.761963      356.703908
        31         1        32     1      107.761963      356.703908
        34         5        35     1      107.744545      358.082976
        34         5        36     1      107.744545      358.082976
        35         5        36     1      107.744545      358.082976
        39        12        40     1      107.619263      350.187221
        41        13        42     1      107.272629      359.237732
        43        14        44     1      107.948570      344.496180
        50        29        51     1      117.657532      319.610012

[ dihedrals ] ; propers for gromacs 4.5 or higher, use funct 9
;       ai        aj        ak        al funct           phase               k        pn
         1         2         3         4     9        0.000000        0.082343         1
         1         2         3         4     9      180.000000       16.715478         2
         1         2         3         4     9        0.000000       -0.154370         3
         1         2         3         4     9      180.000000       -0.351380         4
         1         2         3        33     9        0.000000       -0.146589         1
         1         2         3        33     9      180.000000       13.139541         2
         1         2         3        33     9        0.000000       -0.420017         3
         1         2         3        33     9      180.000000        0.338826         4
         1         2         8         7     9        0.000000        0.007151         1
         1         2         8         7     9      180.000000       15.249886         2
         1         2         8         7     9        0.000000       -0.046733         3
         1         2         8         7     9      180.000000       -0.387062         4
         1         2         8         9     9        0.000000        0.069305         1
         1         2         8         9     9      180.000000       14.375203         2
         1         2         8         9     9        0.000000        0.138013         3
         1         2         8         9     9      180.000000       -0.535452         4
         2         3         4         5     9        0.000000        0.130386         1
         2         3         4         5     9      180.000000       16.668716         2
         2         3         4         5     9        0.000000       -0.122269         3
         2         3         4         5     9      180.000000       -0.348088         4
         2         3         4         6     9        0.000000        0.166664         1
         2         3         4         6     9      180.000000       18.698120         2
         2         3         4         6     9        0.000000       -1.272407         3
         2         3         4         6     9      180.000000       -0.484126         4
         2         8         7         6     9        0.000000       -0.139645         1
         2         8         7         6     9      180.000000       18.265166         2
         2         8         7         6     9        0.000000       -1.530050         3
         2         8         7         6     9      180.000000       -0.416067         4
         2         8         7        37     9        0.000000       -0.002253         1
         2         8         7        37     9      180.000000       14.377853         2
         2         8         7        37     9        0.000000       -0.792211         3
         2         8         7        37     9      180.000000        0.111005         4
         2         8         9        10     9        0.000000       -1.963221         1
         2         8         9        10     9      180.000000        3.225631         2
         2         8         9        10     9        0.000000       -0.455863         3
         2         8         9        10     9      180.000000        0.193557         4
         2         8         9        11     9        0.000000       -0.108970         1
         2         8         9        11     9      180.000000        2.240968         2
         2         8         9        11     9        0.000000       -0.404070         3
         2         8         9        11     9      180.000000       -0.147756         4
         3         2         1        30     9        0.000000       -0.031839         1
         3         2         1        30     9      180.000000        0.038041         2
         3         2         1        30     9        0.000000        0.030980         3
         3         2         1        30     9      180.000000        0.010991         4
         3         2         1        31     9        0.000000       -0.031839         1
         3         2         1        31     9      180.000000        0.038041         2
         3         2         1        31     9        0.000000        0.030980         3
         3         2         1        31     9      180.000000        0.010991         4
         3         2         1        32     9        0.000000       -0.031839         1
         3         2         1        32     9      180.000000        0.038041         2
         3         2         1        32     9        0.000000        0.030980         3
         3         2         1        32     9      180.000000        0.010991         4
         3         2         8         7     9        0.000000       -0.144594         1
         3         2         8         7     9      180.000000       18.199999         2
         3         2         8         7     9        0.000000       -1.113320         3
         3         2         8         7     9      180.000000       -0.470874         4
         3         2         8         9     9        0.000000        0.191097         1
         3         2         8         9     9      180.000000       14.837597         2
         3         2         8         9     9        0.000000       -0.076444         3
         3         2         8         9     9      180.000000       -0.433767         4
         3         4         5        34     9        0.000000       -0.027913         1
         3         4         5        34     9      180.000000        0.031513         2
         3         4         5        34     9        0.000000        0.126405         3
         3         4         5        34     9      180.000000        0.012154         4
         3         4         5        35     9        0.000000       -0.027913         1
         3         4         5        35     9      180.000000        0.031513         2
         3         4         5        35     9        0.000000        0.126405         3
         3         4         5        35     9      180.000000        0.012154         4
         3         4         5        36     9        0.000000       -0.027913         1
         3         4         5        36     9      180.000000        0.031513         2
         3         4         5        36     9        0.000000        0.126405         3
         3         4         5        36     9      180.000000        0.012154         4
         3         4         6         7     9        0.000000       -0.133647         1
         3         4         6         7     9      180.000000       17.206948         2
         3         4         6         7     9        0.000000       -1.018502         3
         3         4         6         7     9      180.000000       -0.339548         4
         3         4         6        26     9        0.000000       -0.063664         1
         3         4         6        26     9      180.000000       14.822137         2
         3         4         6        26     9        0.000000       -0.130175         3
         3         4         6        26     9      180.000000       -0.365733         4
         4         3         2         8     9        0.000000       -0.004199         1
         4         3         2         8     9      180.000000       18.809071         2
         4         3         2         8     9        0.000000       -1.420266         3
         4         3         2         8     9      180.000000       -0.479140         4
         4         6         7         8     9        0.000000       -0.020513         1
         4         6         7         8     9      180.000000       17.686439         2
         4         6         7         8     9        0.000000       -1.582523         3
         4         6         7         8     9      180.000000       -0.278597         4
         4         6         7        37     9        0.000000       -0.058502         1
         4         6         7        37     9      180.000000       14.416752         2
         4         6         7        37     9        0.000000       -0.628567         3
         4         6         7        37     9      180.000000        0.142071         4
         4         6        26        25     9        0.000000       -0.074585         1
         4         6        26        25     9      180.000000        4.214650         2
         4         6        26        25     9        0.000000       -0.717635         3
         4         6        26        25     9      180.000000        0.507054         4
         4         6        26        27     9        0.000000       -0.095819         1
         4         6        26        27     9      180.000000        4.567032         2
         4         6        26        27     9        0.000000        0.164672         3
         4         6        26        27     9      180.000000        0.161355         4
         5         4         3        33     9        0.000000       -0.155266         1
         5         4         3        33     9      180.000000       13.331357         2
         5         4         3        33     9        0.000000       -0.389398         3
         5         4         3        33     9      180.000000        0.284163         4
         5         4         6         7     9        0.000000        0.119522         1
         5         4         6         7     9      180.000000       14.038134         2
         5         4         6         7     9        0.000000       -0.062763         3
         5         4         6         7     9      180.000000       -0.279476         4
         5         4         6        26     9        0.000000       -0.032729         1
         5         4         6        26     9      180.000000       14.474780         2
         5         4         6        26     9        0.000000        0.069207         3
         5         4         6        26     9      180.000000       -0.455273         4
         6         4         3        33     9        0.000000       -0.037624         1
         6         4         3        33     9      180.000000       14.991259         2
         6         4         3        33     9        0.000000       -0.391156         3
         6         4         3        33     9      180.000000        0.075339         4
         6         4         5        34     9        0.000000       -0.013265         1
         6         4         5        34     9      180.000000       -0.001659         2
         6         4         5        34     9        0.000000        0.454292         3
         6         4         5        34     9      180.000000        0.029306         4
         6         4         5        35     9        0.000000       -0.013265         1
         6         4         5        35     9      180.000000       -0.001659         2
         6         4         5        35     9        0.000000        0.454292         3
         6         4         5        35     9      180.000000        0.029306         4
         6         4         5        36     9        0.000000       -0.013265         1
         6         4         5        36     9      180.000000       -0.001659         2
         6         4         5        36     9        0.000000        0.454292         3
         6         4         5        36     9      180.000000        0.029306         4
         6         7         8         9     9        0.000000       -0.037864         1
         6         7         8         9     9      180.000000       15.574572         2
         6         7         8         9     9        0.000000       -0.344735         3
         6         7         8         9     9      180.000000       -0.466493         4
         6        26        25        23     9        0.000000        0.477490         1
         6        26        25        23     9      180.000000       15.592908         2
         6        26        25        23     9        0.000000        0.000405         3
         6        26        25        23     9      180.000000       -0.556482         4
         6        26        25        49     9        0.000000        0.169107         1
         6        26        25        49     9      180.000000       12.435985         2
         6        26        25        49     9        0.000000       -0.073370         3
         6        26        25        49     9      180.000000        0.081213         4
         6        26        27        28     9        0.000000        0.286019         1
         6        26        27        28     9      180.000000       18.520677         2
         6        26        27        28     9        0.000000        0.387977         3
         6        26        27        28     9      180.000000       -0.716770         4
         7         6        26        25     9        0.000000       -0.329146         1
         7         6        26        25     9      180.000000        4.384775         2
         7         6        26        25     9        0.000000        0.333473         3
         7         6        26        25     9      180.000000        0.147197         4
         7         6        26        27     9        0.000000       -0.012384         1
         7         6        26        27     9      180.000000        4.806097         2
         7         6        26        27     9        0.000000       -0.257218         3
         7         6        26        27     9      180.000000        0.290162         4
         7         8         9        10     9        0.000000        1.565590         1
         7         8         9        10     9      180.000000        3.271158         2
         7         8         9        10     9        0.000000        0.213571         3
         7         8         9        10     9      180.000000        0.114634         4
         7         8         9        11     9        0.000000        0.174551         1
         7         8         9        11     9      180.000000        2.464935         2
         7         8         9        11     9        0.000000        0.584955         3
         7         8         9        11     9      180.000000       -0.415220         4
         8         2         1        30     9        0.000000       -0.032312         1
         8         2         1        30     9      180.000000        0.013911         2
         8         2         1        30     9        0.000000        0.014242         3
         8         2         1        30     9      180.000000        0.022775         4
         8         2         1        31     9        0.000000       -0.032312         1
         8         2         1        31     9      180.000000        0.013911         2
         8         2         1        31     9        0.000000        0.014242         3
         8         2         1        31     9      180.000000        0.022775         4
         8         2         1        32     9        0.000000       -0.032312         1
         8         2         1        32     9      180.000000        0.013911         2
         8         2         1        32     9        0.000000        0.014242         3
         8         2         1        32     9      180.000000        0.022775         4
         8         2         3        33     9        0.000000       -0.060877         1
         8         2         3        33     9      180.000000       14.515359         2
         8         2         3        33     9        0.000000       -0.332236         3
         8         2         3        33     9      180.000000        0.110438         4
         8         7         6        26     9        0.000000        0.053878         1
         8         7         6        26     9      180.000000       16.133351         2
         8         7         6        26     9        0.000000       -0.363523         3
         8         7         6        26     9      180.000000       -0.371765         4
         8         9        11        12     9        0.000000        2.884575         1
         8         9        11        12     9      180.000000       10.027485         2
         8         9        11        12     9        0.000000        1.573801         3
         8         9        11        12     9      180.000000        0.123740         4
         8         9        11        38     9        0.000000        0.164509         1
         8         9        11        38     9      180.000000        9.616491         2
         8         9        11        38     9        0.000000        0.341493         3
         8         9        11        38     9      180.000000        0.557373         4
         9         8         7        37     9        0.000000        0.008530         1
         9         8         7        37     9      180.000000       12.845281         2
         9         8         7        37     9        0.000000       -0.285614         3
         9         8         7        37     9      180.000000        0.136601         4
         9        11        12        13     9        0.000000       -1.001961         1
         9        11        12        13     9      180.000000       -0.320249         2
         9        11        12        13     9        0.000000        0.265903         3
         9        11        12        13     9      180.000000       -0.042986         4
         9        11        12        39     9        0.000000        0.222284         1
         9        11        12        39     9      180.000000        0.054101         2
         9        11        12        39     9        0.000000        0.048476         3
         9        11        12        39     9      180.000000        0.042048         4
         9        11        12        40     9        0.000000        0.222285         1
         9        11        12        40     9      180.000000        0.054101         2
         9        11        12        40     9        0.000000        0.048477         3
         9        11        12        40     9      180.000000        0.042048         4
        10         9        11        12     9        0.000000       -2.053968         1
        10         9        11        12     9      180.000000        9.078697         2
        10         9        11        12     9        0.000000        0.096718         3
        10         9        11        12     9      180.000000       -0.800030         4
        10         9        11        38     9        0.000000       -0.209904         1
        10         9        11        38     9      180.000000       10.801787         2
        10         9        11        38     9        0.000000        0.153708         3
        10         9        11        38     9      180.000000        0.361145         4
        11        12        13        14     9        0.000000       -0.959078         1
        11        12        13        14     9      180.000000       -0.122851         2
        11        12        13        14     9        0.000000        0.382391         3
        11        12        13        14     9      180.000000        0.024586         4
        11        12        13        41     9        0.000000        0.108876         1
        11        12        13        41     9      180.000000        0.014724         2
        11        12        13        41     9        0.000000        0.574009         3
        11        12        13        41     9      180.000000        0.005329         4
        11        12        13        42     9        0.000000        0.108876         1
        11        12        13        42     9      180.000000        0.014724         2
        11        12        13        42     9        0.000000        0.574009         3
        11        12        13        42     9      180.000000        0.005329         4
        12        13        14        15     9        0.000000       -0.283463         1
        12        13        14        15     9      180.000000       -0.475367         2
        12        13        14        15     9        0.000000        0.474299         3
        12        13        14        15     9      180.000000        0.013395         4
        12        13        14        43     9        0.000000       -0.009758         1
        12        13        14        43     9      180.000000        0.050105         2
        12        13        14        43     9        0.000000        0.622762         3
        12        13        14        43     9      180.000000        0.061206         4
        12        13        14        44     9        0.000000       -0.009758         1
        12        13        14        44     9      180.000000        0.050105         2
        12        13        14        44     9        0.000000        0.622762         3
        12        13        14        44     9      180.000000        0.061206         4
        13        12        11        38     9        0.000000        0.437696         1
        13        12        11        38     9      180.000000       -1.087937         2
        13        12        11        38     9        0.000000        0.285848         3
        13        12        11        38     9      180.000000       -0.126833         4
        13        14        15        16     9        0.000000        0.255976         1
        13        14        15        16     9      180.000000        0.129287         2
        13        14        15        16     9        0.000000        0.690662         3
        13        14        15        16     9      180.000000        0.012545         4
        14        13        12        39     9        0.000000        0.158239         1
        14        13        12        39     9      180.000000        0.026261         2
        14        13        12        39     9        0.000000        0.507528         3
        14        13        12        39     9      180.000000        0.057920         4
        14        13        12        40     9        0.000000        0.158240         1
        14        13        12        40     9      180.000000        0.026261         2
        14        13        12        40     9        0.000000        0.507528         3
        14        13        12        40     9      180.000000        0.057919         4
        14        15        16        17     9        0.000000       -0.641948         1
        14        15        16        17     9      180.000000        5.247825         2
        14        15        16        17     9        0.000000        0.083902         3
        14        15        16        17     9      180.000000        0.328667         4
        14        15        16        18     9        0.000000        0.138427         1
        14        15        16        18     9      180.000000        5.279395         2
        14        15        16        18     9        0.000000        0.237105         3
        14        15        16        18     9      180.000000        0.288382         4
        15        14        13        41     9        0.000000        0.070324         1
        15        14        13        41     9      180.000000        0.156772         2
        15        14        13        41     9        0.000000        0.481571         3
        15        14        13        41     9      180.000000        0.064915         4
        15        14        13        42     9        0.000000        0.070324         1
        15        14        13        42     9      180.000000        0.156772         2
        15        14        13        42     9        0.000000        0.481571         3
        15        14        13        42     9      180.000000        0.064915         4
        15        16        17        21     9        0.000000        0.133277         1
        15        16        17        21     9      180.000000       17.476203         2
        15        16        17        21     9        0.000000        0.278541         3
        15        16        17        21     9      180.000000       -0.449548         4
        15        16        17        45     9        0.000000        0.087195         1
        15        16        17        45     9      180.000000       12.810154         2
        15        16        17        45     9        0.000000       -0.068037         3
        15        16        17        45     9      180.000000        0.210696         4
        15        16        18        19     9        0.000000        0.482205         1
        15        16        18        19     9      180.000000       17.758703         2
        15        16        18        19     9        0.000000        0.388660         3
        15        16        18        19     9      180.000000       -0.376787         4
        15        16        18        46     9        0.000000        0.053094         1
        15        16        18        46     9      180.000000       12.890724         2
        15        16        18        46     9        0.000000       -0.090639         3
        15        16        18        46     9      180.000000        0.220599         4
        16        15        14        43     9        0.000000       -0.157051         1
        16        15        14        43     9      180.000000        0.039014         2
        16        15        14        43     9        0.000000        0.818286         3
        16        15        14        43     9      180.000000       -0.047257         4
        16        15        14        44     9        0.000000       -0.157051         1
        16        15        14        44     9      180.000000        0.039014         2
        16        15        14        44     9        0.000000        0.818286         3
        16        15        14        44     9      180.000000       -0.047257         4
        16        17        21        20     9        0.000000       -0.088728         1
        16        17        21        20     9      180.000000       17.390644         2
        16        17        21        20     9        0.000000       -1.447682         3
        16        17        21        20     9      180.000000       -0.346382         4
        16        17        21        22     9        0.000000       -0.135069         1
        16        17        21        22     9      180.000000       14.759888         2
        16        17        21        22     9        0.000000       -0.120110         3
        16        17        21        22     9      180.000000       -0.321902         4
        16        18        19        20     9        0.000000       -0.064726         1
        16        18        19        20     9      180.000000       18.645192         2
        16        18        19        20     9        0.000000       -1.664119         3
        16        18        19        20     9      180.000000       -0.484555         4
        16        18        19        47     9        0.000000        0.094024         1
        16        18        19        47     9      180.000000       14.324637         2
        16        18        19        47     9        0.000000       -0.532142         3
        16        18        19        47     9      180.000000        0.076596         4
        17        16        18        19     9        0.000000       -0.091120         1
        17        16        18        19     9      180.000000       16.222934         2
        17        16        18        19     9        0.000000       -0.935228         3
        17        16        18        19     9      180.000000       -0.285551         4
        17        16        18        46     9        0.000000       -0.016802         1
        17        16        18        46     9      180.000000       12.849793         2
        17        16        18        46     9        0.000000       -0.475370         3
        17        16        18        46     9      180.000000        0.105356         4
        17        21        20        19     9        0.000000       -0.025325         1
        17        21        20        19     9      180.000000       18.274509         2
        17        21        20        19     9        0.000000       -1.286094         3
        17        21        20        19     9      180.000000       -0.373843         4
        17        21        20        48     9        0.000000        0.068665         1
        17        21        20        48     9      180.000000       13.857810         2
        17        21        20        48     9        0.000000       -0.489188         3
        17        21        20        48     9      180.000000        0.009082         4
        17        21        22        23     9        0.000000       -0.353590         1
        17        21        22        23     9      180.000000        3.826244         2
        17        21        22        23     9        0.000000       -0.718059         3
        17        21        22        23     9      180.000000        0.830570         4
        18        16        17        21     9        0.000000        0.021304         1
        18        16        17        21     9      180.000000       15.794093         2
        18        16        17        21     9        0.000000       -0.948359         3
        18        16        17        21     9      180.000000       -0.362075         4
        18        16        17        45     9        0.000000        0.246613         1
        18        16        17        45     9      180.000000       12.236304         2
        18        16        17        45     9        0.000000       -0.371193         3
        18        16        17        45     9      180.000000        0.157210         4
        18        19        20        21     9        0.000000       -0.044652         1
        18        19        20        21     9      180.000000       18.346701         2
        18        19        20        21     9        0.000000       -1.460392         3
        18        19        20        21     9      180.000000       -0.448607         4
        18        19        20        48     9        0.000000        0.092811         1
        18        19        20        48     9      180.000000       14.433860         2
        18        19        20        48     9        0.000000       -0.677728         3
        18        19        20        48     9      180.000000        0.051389         4
        19        20        21        22     9        0.000000        0.147809         1
        19        20        21        22     9      180.000000       14.933086         2
        19        20        21        22     9        0.000000        0.080561         3
        19        20        21        22     9      180.000000       -0.240383         4
        20        19        18        46     9        0.000000        0.135348         1
        20        19        18        46     9      180.000000       14.465055         2
        20        19        18        46     9        0.000000       -0.687761         3
        20        19        18        46     9      180.000000        0.105643         4
        20        21        17        45     9        0.000000       -0.058216         1
        20        21        17        45     9      180.000000       13.500198         2
        20        21        17        45     9        0.000000       -0.479289         3
        20        21        17        45     9      180.000000        0.106147         4
        20        21        22        23     9        0.000000       -0.402211         1
        20        21        22        23     9      180.000000        3.739387         2
        20        21        22        23     9        0.000000       -0.567998         3
        20        21        22        23     9      180.000000        0.812049         4
        21        20        19        47     9        0.000000        0.056280         1
        21        20        19        47     9      180.000000       14.032613         2
        21        20        19        47     9        0.000000       -0.582917         3
        21        20        19        47     9      180.000000        0.114284         4
        21        22        23        24     9        0.000000       -0.416994         1
        21        22        23        24     9      180.000000        6.533347         2
        21        22        23        24     9        0.000000        0.733703         3
        21        22        23        24     9      180.000000        0.123179         4
        21        22        23        25     9        0.000000        1.633582         1
        21        22        23        25     9      180.000000        5.178147         2
        21        22        23        25     9        0.000000       -1.164552         3
        21        22        23        25     9      180.000000        0.609479         4
        22        21        17        45     9        0.000000       -0.133518         1
        22        21        17        45     9      180.000000       12.341658         2
        22        21        17        45     9        0.000000       -0.157943         3
        22        21        17        45     9      180.000000        0.109927         4
        22        21        20        48     9        0.000000       -0.100138         1
        22        21        20        48     9      180.000000       12.374158         2
        22        21        20        48     9        0.000000       -0.107807         3
        22        21        20        48     9      180.000000        0.088835         4
        22        23        24        28     9        0.000000        0.690449         1
        22        23        24        28     9      180.000000       20.363606         2
        22        23        24        28     9        0.000000        0.555847         3
        22        23        24        28     9      180.000000       -0.560053         4
        22        23        25        26     9        0.000000        0.429904         1
        22        23        25        26     9      180.000000       13.839164         2
        22        23        25        26     9        0.000000        0.265160         3
        22        23        25        26     9      180.000000       -0.640511         4
        22        23        25        49     9        0.000000        0.274217         1
        22        23        25        49     9      180.000000       11.261584         2
        22        23        25        49     9        0.000000        0.045420         3
        22        23        25        49     9      180.000000       -0.088592         4
        23        24        28        27     9        0.000000        0.286114         1
        23        24        28        27     9      180.000000       12.112048         2
        23        24        28        27     9        0.000000        0.425534         3
        23        24        28        27     9      180.000000       -0.451443         4
        23        24        28        29     9        0.000000        0.683932         1
        23        24        28        29     9      180.000000       20.126229         2
        23        24        28        29     9        0.000000        0.140990         3
        23        24        28        29     9      180.000000       -1.087343         4
        23        25        26        27     9        0.000000       -0.332410         1
        23        25        26        27     9      180.000000       14.182851         2
        23        25        26        27     9        0.000000       -0.710027         3
        23        25        26        27     9      180.000000       -0.279167         4
        24        23        25        26     9        0.000000       -0.077064         1
        24        23        25        26     9      180.000000       13.146501         2
        24        23        25        26     9        0.000000       -0.134197         3
        24        23        25        26     9      180.000000       -0.313647         4
        24        23        25        49     9        0.000000        0.031918         1
        24        23        25        49     9      180.000000       12.154309         2
        24        23        25        49     9        0.000000       -0.220119         3
        24        23        25        49     9      180.000000       -0.051823         4
        24        28        27        26     9        0.000000        0.489639         1
        24        28        27        26     9      180.000000       13.757442         2
        24        28        27        26     9        0.000000        0.544934         3
        24        28        27        26     9      180.000000       -0.729287         4
        24        28        29        50     9        0.000000        1.999311         1
        24        28        29        50     9      180.000000        8.414907         2
        24        28        29        50     9        0.000000       -0.095400         3
        24        28        29        50     9      180.000000       -0.638754         4
        24        28        29        51     9        0.000000        1.999311         1
        24        28        29        51     9      180.000000        8.414907         2
        24        28        29        51     9        0.000000       -0.095400         3
        24        28        29        51     9      180.000000       -0.638754         4
        25        23        24        28     9        0.000000       -0.333551         1
        25        23        24        28     9      180.000000       17.647146         2
        25        23        24        28     9        0.000000       -1.168420         3
        25        23        24        28     9      180.000000       -0.215012         4
        25        26        27        28     9        0.000000       -0.457278         1
        25        26        27        28     9      180.000000       16.963009         2
        25        26        27        28     9        0.000000       -1.047319         3
        25        26        27        28     9      180.000000       -0.278498         4
        26         6         7        37     9        0.000000       -0.240871         1
        26         6         7        37     9      180.000000       12.901172         2
        26         6         7        37     9        0.000000       -0.246194         3
        26         6         7        37     9      180.000000        0.163053         4
        26        27        28        29     9        0.000000        1.061683         1
        26        27        28        29     9      180.000000       19.842793         2
        26        27        28        29     9        0.000000        0.336717         3
        26        27        28        29     9      180.000000       -1.139636         4
        27        26        25        49     9        0.000000       -0.001838         1
        27        26        25        49     9      180.000000       13.364558         2
        27        26        25        49     9        0.000000       -0.270630         3
        27        26        25        49     9      180.000000       -0.117458         4
        27        28        29        50     9        0.000000        1.860874         1
        27        28        29        50     9      180.000000        8.241660         2
        27        28        29        50     9        0.000000       -0.157614         3
        27        28        29        50     9      180.000000       -0.751801         4
        27        28        29        51     9        0.000000        1.860874         1
        27        28        29        51     9      180.000000        8.241660         2
        27        28        29        51     9        0.000000       -0.157614         3
        27        28        29        51     9      180.000000       -0.751801         4
        38        11        12        39     9        0.000000       -0.027299         1
        38        11        12        39     9      180.000000        0.227257         2
        38        11        12        39     9        0.000000        0.368371         3
        38        11        12        39     9      180.000000        0.114262         4
        38        11        12        40     9        0.000000       -0.027299         1
        38        11        12        40     9      180.000000        0.227256         2
        38        11        12        40     9        0.000000        0.368371         3
        38        11        12        40     9      180.000000        0.114262         4
        39        12        13        41     9        0.000000       -0.047326         1
        39        12        13        41     9      180.000000        0.037690         2
        39        12        13        41     9        0.000000        0.639898         3
        39        12        13        41     9      180.000000       -0.024230         4
        39        12        13        42     9        0.000000       -0.047326         1
        39        12        13        42     9      180.000000        0.037690         2
        39        12        13        42     9        0.000000        0.639898         3
        39        12        13        42     9      180.000000       -0.024230         4
        40        12        13        41     9        0.000000       -0.047326         1
        40        12        13        41     9      180.000000        0.037690         2
        40        12        13        41     9        0.000000        0.639897         3
        40        12        13        41     9      180.000000       -0.024230         4
        40        12        13        42     9        0.000000       -0.047326         1
        40        12        13        42     9      180.000000        0.037690         2
        40        12        13        42     9        0.000000        0.639897         3
        40        12        13        42     9      180.000000       -0.024230         4
        41        13        14        43     9        0.000000       -0.004855         1
        41        13        14        43     9      180.000000       -0.012028         2
        41        13        14        43     9        0.000000        0.661534         3
        41        13        14        43     9      180.000000       -0.037927         4
        41        13        14        44     9        0.000000       -0.004855         1
        41        13        14        44     9      180.000000       -0.012028         2
        41        13        14        44     9        0.000000        0.661534         3
        41        13        14        44     9      180.000000       -0.037927         4
        42        13        14        43     9        0.000000       -0.004855         1
        42        13        14        43     9      180.000000       -0.012028         2
        42        13        14        43     9        0.000000        0.661534         3
        42        13        14        43     9      180.000000       -0.037927         4
        42        13        14        44     9        0.000000       -0.004855         1
        42        13        14        44     9      180.000000       -0.012028         2
        42        13        14        44     9        0.000000        0.661534         3
        42        13        14        44     9      180.000000       -0.037927         4
        46        18        19        47     9        0.000000       -0.173316         1
        46        18        19        47     9      180.000000       11.683785         2
        46        18        19        47     9        0.000000       -0.568860         3
        46        18        19        47     9      180.000000        0.194036         4
        47        19        20        48     9        0.000000       -0.029056         1
        47        19        20        48     9      180.000000       12.054903         2
        47        19        20        48     9        0.000000       -0.683621         3
        47        19        20        48     9      180.000000        0.221453         4

[ dihedrals ] ; impropers
;       ai        aj        ak        al funct           phase               k        pn
         9         8        10        11     4      180.000000       19.198756         2
         9        10        11         8     4      180.000000       19.198756         2
         9        11         8        10     4      180.000000       19.198756         2
        17        16        21        45     4      180.000000        1.626954         2
        17        21        45        16     4      180.000000        1.626954         2
        17        45        16        21     4      180.000000        1.626954         2
        18        16        19        46     4      180.000000        1.216823         2
        18        19        46        16     4      180.000000        1.216823         2
        18        46        16        19     4      180.000000        1.216823         2
        19        18        20        47     4      180.000000        2.803440         2
        19        20        47        18     4      180.000000        2.803440         2
        19        47        18        20     4      180.000000        2.803440         2
        20        19        21        48     4      180.000000        0.889818         2
        20        21        48        19     4      180.000000        0.889818         2
        20        48        19        21     4      180.000000        0.889818         2
        23        22        24        25     4      180.000000        6.653471         2
        23        24        25        22     4      180.000000        6.653471         2
        23        25        22        24     4      180.000000        6.653471         2
        26         6        25        27     4      180.000000        4.311360         2
        26        25        27         6     4      180.000000        4.311360         2
        26        27         6        25     4      180.000000        4.311360         2
        28        24        27        29     4      180.000000        5.578667         2
        28        27        29        24     4      180.000000        5.578667         2
        28        29        24        27     4      180.000000        5.578667         2

[ pairs ]
;       ai        aj funct
         1         4     1
         1         7     1
         1         9     1
         1        33     1
         2         5     1
         2         6     1
         2        10     1
         2        11     1
         2        37     1
         3         7     1
         3         9     1
         3        26     1
         3        30     1
         3        31     1
         3        32     1
         3        34     1
         3        35     1
         3        36     1
         4         8     1
         4        25     1
         4        27     1
         4        37     1
         5         7     1
         5        26     1
         5        33     1
         6         9     1
         6        23     1
         6        28     1
         6        33     1
         6        34     1
         6        35     1
         6        36     1
         6        49     1
         7        10     1
         7        11     1
         7        25     1
         7        27     1
         8        12     1
         8        26     1
         8        30     1
         8        31     1
         8        32     1
         8        33     1
         8        38     1
         9        13     1
         9        37     1
         9        39     1
         9        40     1
        10        12     1
        10        38     1
        11        14     1
        11        41     1
        11        42     1
        12        15     1
        12        43     1
        12        44     1
        13        16     1
        13        38     1
        14        17     1
        14        18     1
        14        39     1
        14        40     1
        15        19     1
        15        21     1
        15        41     1
        15        42     1
        15        45     1
        15        46     1
        16        20     1
        16        22     1
        16        43     1
        16        44     1
        16        47     1
        17        19     1
        17        23     1
        17        46     1
        17        48     1
        18        21     1
        18        45     1
        18        48     1
        19        22     1
        20        23     1
        20        45     1
        20        46     1
        21        24     1
        21        25     1
        21        47     1
        22        26     1
        22        28     1
        22        45     1
        22        48     1
        22        49     1
        23        27     1
        23        29     1
        24        26     1
        24        49     1
        24        50     1
        24        51     1
        25        28     1
        26        29     1
        26        37     1
        27        49     1
        27        50     1
        27        51     1
        38        39     1
        38        40     1
        39        41     1
        39        42     1
        40        41     1
        40        42     1
        41        43     1
        41        44     1
        42        43     1
        42        44     1
        46        47     1
        47        48     1
