; ITP file created by ByteFF-ML, 2025-12-06 06:50:14.445310

[ atomtypes ]
;name           bonded.type        at.num        mass        charge   ptype           sigma         epsilon
 c0bf                                   6      0.0000       0.00000       A     3.31602e-01     4.15347e-01
 c1bf                                   6      0.0000       0.00000       A     3.31450e-01     4.09135e-01
 c2bf                                   6      0.0000       0.00000       A     3.31491e-01     4.13206e-01
 c3bf                                   6      0.0000       0.00000       A     3.39792e-01     4.51380e-01
 c4bf                                   6      0.0000       0.00000       A     3.31432e-01     4.12873e-01
 c5bf                                   6      0.0000       0.00000       A     3.31513e-01     4.11532e-01
 c6bf                                   6      0.0000       0.00000       A     3.31528e-01     4.12736e-01
 c7bf                                   6      0.0000       0.00000       A     3.31507e-01     4.11068e-01
 c8bf                                   6      0.0000       0.00000       A     3.39818e-01     4.49209e-01
 c9bf                                   6      0.0000       0.00000       A     3.39714e-01     4.51573e-01
 o10bf                                  8      0.0000       0.00000       A     3.15857e-01     3.05749e-01
 c11bf                                  6      0.0000       0.00000       A     3.31403e-01     4.13527e-01
 c12bf                                  6      0.0000       0.00000       A     3.31403e-01     4.13824e-01
 c13bf                                  6      0.0000       0.00000       A     3.31606e-01     4.11902e-01
 c14bf                                  6      0.0000       0.00000       A     3.31532e-01     4.13858e-01
 c15bf                                  6      0.0000       0.00000       A     3.31307e-01     4.13197e-01
 c16bf                                  6      0.0000       0.00000       A     3.31488e-01     4.13475e-01
 s17bf                                 16      0.0000       0.00000       A     3.53445e-01     1.17795e+00
 c18bf                                  6      0.0000       0.00000       A     3.31539e-01     4.15647e-01
 n19bf                                  7      0.0000       0.00000       A     3.38419e-01     3.93030e-01
 c20bf                                  6      0.0000       0.00000       A     3.31393e-01     4.17203e-01
 c21bf                                  6      0.0000       0.00000       A     3.31432e-01     4.12522e-01
 n22bf                                  7      0.0000       0.00000       A     3.38513e-01     3.89190e-01
 c23bf                                  6      0.0000       0.00000       A     3.31328e-01     4.14640e-01
 n24bf                                  7      0.0000       0.00000       A     3.36757e-01     4.72523e-01
 h25bf                                  1      0.0000       0.00000       A     2.62622e-01     6.74595e-02
 h26bf                                  1      0.0000       0.00000       A     2.60028e-01     8.72826e-02
 h27bf                                  1      0.0000       0.00000       A     2.60028e-01     8.72826e-02
 h28bf                                  1      0.0000       0.00000       A     2.60028e-01     8.72826e-02
 h29bf                                  1      0.0000       0.00000       A     2.62577e-01     6.77962e-02
 c30bf                                  6      0.0000       0.00000       A     3.39818e-01     4.51220e-01
 h31bf                                  1      0.0000       0.00000       A     2.62469e-01     6.73733e-02
 h32bf                                  1      0.0000       0.00000       A     2.62446e-01     6.69008e-02
 h33bf                                  1      0.0000       0.00000       A     2.62562e-01     6.73334e-02
 h34bf                                  1      0.0000       0.00000       A     2.62558e-01     6.78026e-02
 h35bf                                  1      0.0000       0.00000       A     2.62441e-01     6.73876e-02
 c36bf                                  6      0.0000       0.00000       A     3.39911e-01     4.51624e-01
 h37bf                                  1      0.0000       0.00000       A     2.42138e-01     8.77535e-02
 h38bf                                  1      0.0000       0.00000       A     2.42138e-01     8.77535e-02
 o39bf                                  8      0.0000       0.00000       A     3.04860e-01     6.09054e-01
 n40bf                                  7      0.0000       0.00000       A     3.26945e-01     4.88801e-01
 h41bf                                  1      0.0000       0.00000       A     1.10322e-01     4.08721e-02
 c42bf                                  6      0.0000       0.00000       A     3.39910e-01     4.51404e-01
 h43bf                                  1      0.0000       0.00000       A     2.42510e-01     8.78397e-02
 h44bf                                  1      0.0000       0.00000       A     2.42510e-01     8.78397e-02
 h45bf                                  1      0.0000       0.00000       A     2.60124e-01     8.68469e-02
 h46bf                                  1      0.0000       0.00000       A     2.60124e-01     8.68469e-02
 h47bf                                  1      0.0000       0.00000       A     2.60074e-01     8.71023e-02
 h48bf                                  1      0.0000       0.00000       A     2.60074e-01     8.71023e-02
 h49bf                                  1      0.0000       0.00000       A     2.60031e-01     8.73273e-02
 h50bf                                  1      0.0000       0.00000       A     2.60031e-01     8.73273e-02
 h51bf                                  1      0.0000       0.00000       A     2.60031e-01     8.73273e-02
 h52bf                                  1      0.0000       0.00000       A     1.10073e-01     4.24538e-02
 h53bf                                  1      0.0000       0.00000       A     1.10073e-01     4.24538e-02

[ moleculetype ]
;name             nrexcl
 12                    3

[ atoms ]
;       nr            type      resi   res      atom      cgnr      charge          mass ; qtot
         1            c0bf         1   UNL        c0         1    -0.03171       12.0110 ; qtot   -0.032
         2            c1bf         1   UNL        c1         2    -0.17151       12.0110 ; qtot   -0.203
         3            c2bf         1   UNL        c2         3    -0.01962       12.0110 ; qtot   -0.223
         4            c3bf         1   UNL        c3         4    -0.05268       12.0110 ; qtot   -0.276
         5            c4bf         1   UNL        c4         5    -0.13610       12.0110 ; qtot   -0.412
         6            c5bf         1   UNL        c5         6    -0.01746       12.0110 ; qtot   -0.429
         7            c6bf         1   UNL        c6         7    -0.16002       12.0110 ; qtot   -0.589
         8            c7bf         1   UNL        c7         8     0.60660       12.0110 ; qtot    0.018
         9            c8bf         1   UNL        c8         9     0.09732       12.0110 ; qtot    0.115
        10            c9bf         1   UNL        c9        10     0.16329       12.0110 ; qtot    0.278
        11           o10bf         1   UNL       o10        11    -0.35283       15.9990 ; qtot   -0.075
        12           c11bf         1   UNL       c11        12     0.13239       12.0110 ; qtot    0.058
        13           c12bf         1   UNL       c12        13    -0.11895       12.0110 ; qtot   -0.061
        14           c13bf         1   UNL       c13        14    -0.15881       12.0110 ; qtot   -0.220
        15           c14bf         1   UNL       c14        15    -0.08330       12.0110 ; qtot   -0.303
        16           c15bf         1   UNL       c15        16    -0.09022       12.0110 ; qtot   -0.394
        17           c16bf         1   UNL       c16        17    -0.10440       12.0110 ; qtot   -0.498
        18           s17bf         1   UNL       s17        18    -0.15145       32.0670 ; qtot   -0.649
        19           c18bf         1   UNL       c18        19     0.25971       12.0110 ; qtot   -0.390
        20           n19bf         1   UNL       n19        20    -0.23919       14.0070 ; qtot   -0.629
        21           c20bf         1   UNL       c20        21    -0.21264       12.0110 ; qtot   -0.842
        22           c21bf         1   UNL       c21        22     0.21727       12.0110 ; qtot   -0.624
        23           n22bf         1   UNL       n22        23    -0.24909       14.0070 ; qtot   -0.873
        24           c23bf         1   UNL       c23        24     0.36459       12.0110 ; qtot   -0.509
        25           n24bf         1   UNL       n24        25    -1.02776       14.0070 ; qtot   -1.537
        26           h25bf         1   UNL       h25        26     0.13386        1.0080 ; qtot   -1.403
        27           h26bf         1   UNL       h26        27     0.04871        1.0080 ; qtot   -1.354
        28           h27bf         1   UNL       h27        28     0.04871        1.0080 ; qtot   -1.305
        29           h28bf         1   UNL       h28        29     0.04871        1.0080 ; qtot   -1.257
        30           h29bf         1   UNL       h29        30     0.11507        1.0080 ; qtot   -1.142
        31           c30bf         1   UNL       c30        31    -0.05384       12.0110 ; qtot   -1.195
        32           h31bf         1   UNL       h31        32     0.13641        1.0080 ; qtot   -1.059
        33           h32bf         1   UNL       h32        33     0.12565        1.0080 ; qtot   -0.933
        34           h33bf         1   UNL       h33        34     0.12066        1.0080 ; qtot   -0.813
        35           h34bf         1   UNL       h34        35     0.12923        1.0080 ; qtot   -0.683
        36           h35bf         1   UNL       h35        36     0.14755        1.0080 ; qtot   -0.536
        37           c36bf         1   UNL       c36        37    -0.08969       12.0110 ; qtot   -0.626
        38           h37bf         1   UNL       h37        38     0.04276        1.0080 ; qtot   -0.583
        39           h38bf         1   UNL       h38        39     0.04276        1.0080 ; qtot   -0.540
        40           o39bf         1   UNL       o39        40    -0.59524       15.9990 ; qtot   -1.135
        41           n40bf         1   UNL       n40        41    -0.50927       14.0070 ; qtot   -1.645
        42           h41bf         1   UNL       h41        42     0.31660        1.0080 ; qtot   -1.328
        43           c42bf         1   UNL       c42        43    -0.09739       12.0110 ; qtot   -1.425
        44           h43bf         1   UNL       h43        44     0.05849        1.0080 ; qtot   -1.367
        45           h44bf         1   UNL       h44        45     0.05849        1.0080 ; qtot   -1.308
        46           h45bf         1   UNL       h45        46     0.05191        1.0080 ; qtot   -1.256
        47           h46bf         1   UNL       h46        47     0.05191        1.0080 ; qtot   -1.205
        48           h47bf         1   UNL       h47        48     0.05052        1.0080 ; qtot   -1.154
        49           h48bf         1   UNL       h48        49     0.05052        1.0080 ; qtot   -1.103
        50           h49bf         1   UNL       h49        50     0.05000        1.0080 ; qtot   -1.053
        51           h50bf         1   UNL       h50        51     0.05000        1.0080 ; qtot   -1.003
        52           h51bf         1   UNL       h51        52     0.05000        1.0080 ; qtot   -0.953
        53           h52bf         1   UNL       h52        53     0.47675        1.0080 ; qtot   -0.477
        54           h53bf         1   UNL       h53        54     0.47673        1.0080 ; qtot   -0.000

[ bonds ]
;       ai        aj funct               r               k
         1         2     1        0.140258   290907.232764
         1         7     1        0.139992   297181.802686
         1        26     1        0.108466   322074.993848
         2         3     1        0.141240   260143.800732
         2        22     1        0.148658   205318.767969
         3         4     1        0.151222   200898.498633
         3         5     1        0.140120   298323.005029
         4        27     1        0.109337   301779.835840
         4        28     1        0.109337   301779.835840
         4        29     1        0.109337   301779.835840
         5         6     1        0.140123   296308.510156
         5        30     1        0.108752   312124.714551
         6         7     1        0.141016   267198.605957
         6        31     1        0.151236   200519.081030
         7         8     1        0.150376   178006.050610
         8        40     1        0.123362   593386.146973
         8        41     1        0.136969   295413.204639
         9        41     1        0.146061   206403.303467
         9        43     1        0.153463   183833.197607
         9        44     1        0.109307   300985.938184
         9        45     1        0.109307   300985.938184
        10        11     1        0.143342   187004.536304
        10        37     1        0.152581   192004.906616
        10        38     1        0.109696   289429.859912
        10        39     1        0.109696   289429.859912
        11        12     1        0.136734   268606.313574
        12        13     1        0.140203   287679.674121
        12        14     1        0.140325   287499.637500
        13        17     1        0.139909   299985.904980
        13        32     1        0.108363   324883.054395
        14        15     1        0.139719   314785.706885
        14        33     1        0.108392   324261.915283
        15        16     1        0.139646   310323.199170
        15        34     1        0.108610   320095.612500
        16        17     1        0.139967   297505.128027
        16        35     1        0.108495   322485.221973
        17        18     1        0.179342   136782.452588
        18        19     1        0.178971   129762.045850
        19        20     1        0.133190   321995.037158
        19        21     1        0.139841   287963.748926
        20        24     1        0.134663   267665.220020
        21        22     1        0.139784   290000.690918
        21        36     1        0.108175   330231.393359
        22        23     1        0.134143   311398.771143
        23        24     1        0.134264   274234.590332
        24        25     1        0.137194   320073.548438
        25        53     1        0.101085   429215.067969
        25        54     1        0.101085   429215.067969
        31        50     1        0.109345   301833.259473
        31        51     1        0.109345   301833.259473
        31        52     1        0.109345   301833.259473
        37        43     1        0.153414   185304.965063
        37        46     1        0.109567   295533.203516
        37        47     1        0.109567   295533.203516
        41        42     1        0.101091   424352.266064
        43        48     1        0.109564   295491.654639
        43        49     1        0.109564   295491.654639

[ angles ]
;       ai        aj        ak funct           theta             cth
         1         2         3     1      119.115334      677.017499
         1         2        22     1      117.954956      517.127486
         1         7         6     1      119.513931      700.065825
         1         7         8     1      117.709633      546.010532
         2         1         7     1      122.136192      641.107216
         2         1        26     1      118.595581      407.398039
         2         3         4     1      123.262352      453.307696
         2         3         5     1      117.949120      697.514157
         2        22        21     1      121.605591      458.095585
         2        22        23     1      116.994347      480.221415
         3         2        22     1      123.140404      493.051355
         3         4        27     1      111.180176      485.104015
         3         4        28     1      111.180176      485.104015
         3         4        29     1      111.180176      485.104015
         3         5         6     1      123.654274      687.014192
         3         5        30     1      118.246605      405.104423
         4         3         5     1      118.990601      498.471958
         5         6         7     1      117.580368      693.258207
         5         6        31     1      119.287392      494.458290
         6         5        30     1      118.286537      407.832904
         6         7         8     1      122.268654      571.086632
         6        31        50     1      111.186356      483.733534
         6        31        51     1      111.186356      483.733534
         6        31        52     1      111.186356      483.733534
         7         1        26     1      118.804970      398.500144
         7         6        31     1      123.162796      456.139762
         7         8        40     1      122.589172      603.827186
         7         8        41     1      115.437477      491.684609
         8        41         9     1      121.913391      535.682878
         8        41        42     1      118.129593      420.151080
         9        41        42     1      118.469894      416.249839
         9        43        37     1      113.332542      599.177389
         9        43        48     1      108.659691      502.966712
         9        43        49     1      108.659691      502.966712
        10        11        12     1      118.700333      526.122263
        10        37        43     1      113.275291      606.975209
        10        37        46     1      108.499977      510.353193
        10        37        47     1      108.499977      510.353193
        11        10        37     1      109.621193      623.078527
        11        10        38     1      108.817772      459.999345
        11        10        39     1      108.817772      459.999345
        11        12        13     1      118.707237      533.715563
        11        12        14     1      120.933594      551.772150
        12        13        17     1      119.874611      696.955150
        12        13        32     1      120.030128      408.591037
        12        14        15     1      119.417557      749.775277
        12        14        33     1      120.162071      433.219887
        13        12        14     1      119.845322      622.312988
        13        17        16     1      120.551956      674.771255
        13        17        18     1      119.219376      367.831129
        14        15        16     1      120.952904      688.614028
        14        15        34     1      119.405495      419.754424
        15        14        33     1      120.406517      426.367131
        15        16        17     1      118.955215      615.777212
        15        16        35     1      120.835861      421.072682
        16        15        34     1      119.636429      427.991355
        16        17        18     1      119.938011      384.872393
        17        13        32     1      120.120056      371.375584
        17        16        35     1      120.102478      378.278967
        17        18        19     1      102.187088      778.209891
        18        19        20     1      116.492393      415.073345
        18        19        21     1      119.850266      383.024496
        19        20        24     1      115.883568      932.098363
        19        21        22     1      116.304123      867.656362
        19        21        36     1      121.690735      421.371466
        20        19        21     1      122.878990      710.508460
        20        24        23     1      126.730873      655.106404
        20        24        25     1      116.218163      600.142308
        21        22        23     1      121.407372      702.274785
        22        21        36     1      121.987381      409.097629
        22        23        24     1      116.632629      949.049577
        23        24        25     1      116.465759      588.109797
        24        25        53     1      116.052834      472.399558
        24        25        54     1      116.052834      472.399558
        27         4        28     1      107.744545      358.082976
        27         4        29     1      107.744545      358.082976
        28         4        29     1      107.744545      358.082976
        37        10        38     1      110.760620      492.195958
        37        10        39     1      110.760620      492.195958
        37        43        48     1      109.579262      513.156051
        37        43        49     1      109.579262      513.156051
        38        10        39     1      107.913315      345.006635
        40         8        41     1      122.007645      596.935422
        41         9        43     1      112.701271      582.048883
        41         9        44     1      107.722733      538.606557
        41         9        45     1      107.722733      538.606557
        43         9        44     1      110.289352      482.131336
        43         9        45     1      110.289352      482.131336
        43        37        46     1      109.807846      512.587084
        43        37        47     1      109.807846      512.587084
        44         9        45     1      107.592972      350.771765
        46        37        47     1      106.766983      360.262919
        48        43        49     1      106.732254      360.379081
        50        31        51     1      107.761978      356.703940
        50        31        52     1      107.761978      356.703940
        51        31        52     1      107.761978      356.703940
        53        25        54     1      117.657532      319.610012

[ dihedrals ] ; propers for gromacs 4.5 or higher, use funct 9
;       ai        aj        ak        al funct           phase               k        pn
         1         2         3         4     9        0.000000        0.119522         1
         1         2         3         4     9      180.000000       14.038135         2
         1         2         3         4     9        0.000000       -0.062764         3
         1         2         3         4     9      180.000000       -0.279476         4
         1         2         3         5     9        0.000000       -0.133647         1
         1         2         3         5     9      180.000000       17.206950         2
         1         2         3         5     9        0.000000       -1.018502         3
         1         2         3         5     9      180.000000       -0.339549         4
         1         2        22        21     9        0.000000       -0.329145         1
         1         2        22        21     9      180.000000        4.384775         2
         1         2        22        21     9        0.000000        0.333474         3
         1         2        22        21     9      180.000000        0.147197         4
         1         2        22        23     9        0.000000       -0.012384         1
         1         2        22        23     9      180.000000        4.806097         2
         1         2        22        23     9        0.000000       -0.257218         3
         1         2        22        23     9      180.000000        0.290162         4
         1         7         6         5     9        0.000000       -0.144595         1
         1         7         6         5     9      180.000000       18.199995         2
         1         7         6         5     9        0.000000       -1.113320         3
         1         7         6         5     9      180.000000       -0.470874         4
         1         7         6        31     9        0.000000        0.007152         1
         1         7         6        31     9      180.000000       15.249884         2
         1         7         6        31     9        0.000000       -0.046733         3
         1         7         6        31     9      180.000000       -0.387062         4
         1         7         8        40     9        0.000000        1.565589         1
         1         7         8        40     9      180.000000        3.271157         2
         1         7         8        40     9        0.000000        0.213571         3
         1         7         8        40     9      180.000000        0.114634         4
         1         7         8        41     9        0.000000        0.168516         1
         1         7         8        41     9      180.000000        2.455976         2
         1         7         8        41     9        0.000000        0.587148         3
         1         7         8        41     9      180.000000       -0.416417         4
         2         1         7         6     9        0.000000       -0.139645         1
         2         1         7         6     9      180.000000       18.265168         2
         2         1         7         6     9        0.000000       -1.530050         3
         2         1         7         6     9      180.000000       -0.416068         4
         2         1         7         8     9        0.000000       -0.037865         1
         2         1         7         8     9      180.000000       15.574572         2
         2         1         7         8     9        0.000000       -0.344735         3
         2         1         7         8     9      180.000000       -0.466492         4
         2         3         4        27     9        0.000000       -0.013265         1
         2         3         4        27     9      180.000000       -0.001660         2
         2         3         4        27     9        0.000000        0.454292         3
         2         3         4        27     9      180.000000        0.029306         4
         2         3         4        28     9        0.000000       -0.013265         1
         2         3         4        28     9      180.000000       -0.001660         2
         2         3         4        28     9        0.000000        0.454292         3
         2         3         4        28     9      180.000000        0.029306         4
         2         3         4        29     9        0.000000       -0.013265         1
         2         3         4        29     9      180.000000       -0.001660         2
         2         3         4        29     9        0.000000        0.454291         3
         2         3         4        29     9      180.000000        0.029306         4
         2         3         5         6     9        0.000000        0.166664         1
         2         3         5         6     9      180.000000       18.698116         2
         2         3         5         6     9        0.000000       -1.272407         3
         2         3         5         6     9      180.000000       -0.484125         4
         2         3         5        30     9        0.000000       -0.037624         1
         2         3         5        30     9      180.000000       14.991260         2
         2         3         5        30     9        0.000000       -0.391156         3
         2         3         5        30     9      180.000000        0.075339         4
         2        22        21        19     9        0.000000        0.477490         1
         2        22        21        19     9      180.000000       15.592908         2
         2        22        21        19     9        0.000000        0.000405         3
         2        22        21        19     9      180.000000       -0.556482         4
         2        22        21        36     9        0.000000        0.169108         1
         2        22        21        36     9      180.000000       12.435985         2
         2        22        21        36     9        0.000000       -0.073370         3
         2        22        21        36     9      180.000000        0.081213         4
         2        22        23        24     9        0.000000        0.286019         1
         2        22        23        24     9      180.000000       18.520675         2
         2        22        23        24     9        0.000000        0.387978         3
         2        22        23        24     9      180.000000       -0.716771         4
         3         2         1         7     9        0.000000       -0.020513         1
         3         2         1         7     9      180.000000       17.686439         2
         3         2         1         7     9        0.000000       -1.582523         3
         3         2         1         7     9      180.000000       -0.278598         4
         3         2         1        26     9        0.000000       -0.058502         1
         3         2         1        26     9      180.000000       14.416752         2
         3         2         1        26     9        0.000000       -0.628568         3
         3         2         1        26     9      180.000000        0.142070         4
         3         2        22        21     9        0.000000       -0.074585         1
         3         2        22        21     9      180.000000        4.214650         2
         3         2        22        21     9        0.000000       -0.717635         3
         3         2        22        21     9      180.000000        0.507054         4
         3         2        22        23     9        0.000000       -0.095820         1
         3         2        22        23     9      180.000000        4.567032         2
         3         2        22        23     9        0.000000        0.164672         3
         3         2        22        23     9      180.000000        0.161355         4
         3         5         6         7     9        0.000000       -0.004199         1
         3         5         6         7     9      180.000000       18.809071         2
         3         5         6         7     9        0.000000       -1.420267         3
         3         5         6         7     9      180.000000       -0.479140         4
         3         5         6        31     9        0.000000        0.082343         1
         3         5         6        31     9      180.000000       16.715480         2
         3         5         6        31     9        0.000000       -0.154370         3
         3         5         6        31     9      180.000000       -0.351380         4
         4         3         2        22     9        0.000000       -0.032729         1
         4         3         2        22     9      180.000000       14.474782         2
         4         3         2        22     9        0.000000        0.069207         3
         4         3         2        22     9      180.000000       -0.455273         4
         4         3         5         6     9        0.000000        0.130386         1
         4         3         5         6     9      180.000000       16.668716         2
         4         3         5         6     9        0.000000       -0.122269         3
         4         3         5         6     9      180.000000       -0.348088         4
         4         3         5        30     9        0.000000       -0.155266         1
         4         3         5        30     9      180.000000       13.331358         2
         4         3         5        30     9        0.000000       -0.389398         3
         4         3         5        30     9      180.000000        0.284163         4
         5         3         2        22     9        0.000000       -0.063663         1
         5         3         2        22     9      180.000000       14.822137         2
         5         3         2        22     9        0.000000       -0.130175         3
         5         3         2        22     9      180.000000       -0.365732         4
         5         3         4        27     9        0.000000       -0.027914         1
         5         3         4        27     9      180.000000        0.031514         2
         5         3         4        27     9        0.000000        0.126405         3
         5         3         4        27     9      180.000000        0.012154         4
         5         3         4        28     9        0.000000       -0.027914         1
         5         3         4        28     9      180.000000        0.031514         2
         5         3         4        28     9        0.000000        0.126405         3
         5         3         4        28     9      180.000000        0.012154         4
         5         3         4        29     9        0.000000       -0.027914         1
         5         3         4        29     9      180.000000        0.031513         2
         5         3         4        29     9        0.000000        0.126405         3
         5         3         4        29     9      180.000000        0.012154         4
         5         6         7         8     9        0.000000        0.191096         1
         5         6         7         8     9      180.000000       14.837595         2
         5         6         7         8     9        0.000000       -0.076444         3
         5         6         7         8     9      180.000000       -0.433767         4
         5         6        31        50     9        0.000000       -0.031839         1
         5         6        31        50     9      180.000000        0.038041         2
         5         6        31        50     9        0.000000        0.030980         3
         5         6        31        50     9      180.000000        0.010991         4
         5         6        31        51     9        0.000000       -0.031839         1
         5         6        31        51     9      180.000000        0.038041         2
         5         6        31        51     9        0.000000        0.030980         3
         5         6        31        51     9      180.000000        0.010991         4
         5         6        31        52     9        0.000000       -0.031839         1
         5         6        31        52     9      180.000000        0.038041         2
         5         6        31        52     9        0.000000        0.030980         3
         5         6        31        52     9      180.000000        0.010991         4
         6         7         1        26     9        0.000000       -0.002253         1
         6         7         1        26     9      180.000000       14.377853         2
         6         7         1        26     9        0.000000       -0.792212         3
         6         7         1        26     9      180.000000        0.111005         4
         6         7         8        40     9        0.000000       -1.963220         1
         6         7         8        40     9      180.000000        3.225630         2
         6         7         8        40     9        0.000000       -0.455863         3
         6         7         8        40     9      180.000000        0.193557         4
         6         7         8        41     9        0.000000       -0.126041         1
         6         7         8        41     9      180.000000        2.235336         2
         6         7         8        41     9        0.000000       -0.414104         3
         6         7         8        41     9      180.000000       -0.145977         4
         7         1         2        22     9        0.000000        0.053878         1
         7         1         2        22     9      180.000000       16.133350         2
         7         1         2        22     9        0.000000       -0.363524         3
         7         1         2        22     9      180.000000       -0.371765         4
         7         6         5        30     9        0.000000       -0.060877         1
         7         6         5        30     9      180.000000       14.515360         2
         7         6         5        30     9        0.000000       -0.332236         3
         7         6         5        30     9      180.000000        0.110438         4
         7         6        31        50     9        0.000000       -0.032311         1
         7         6        31        50     9      180.000000        0.013911         2
         7         6        31        50     9        0.000000        0.014242         3
         7         6        31        50     9      180.000000        0.022775         4
         7         6        31        51     9        0.000000       -0.032311         1
         7         6        31        51     9      180.000000        0.013911         2
         7         6        31        51     9        0.000000        0.014242         3
         7         6        31        51     9      180.000000        0.022775         4
         7         6        31        52     9        0.000000       -0.032311         1
         7         6        31        52     9      180.000000        0.013911         2
         7         6        31        52     9        0.000000        0.014242         3
         7         6        31        52     9      180.000000        0.022775         4
         7         8        41         9     9        0.000000        2.912738         1
         7         8        41         9     9      180.000000       10.017261         2
         7         8        41         9     9        0.000000        1.552815         3
         7         8        41         9     9      180.000000        0.111581         4
         7         8        41        42     9        0.000000        0.169266         1
         7         8        41        42     9      180.000000        9.568951         2
         7         8        41        42     9        0.000000        0.334721         3
         7         8        41        42     9      180.000000        0.546831         4
         8         7         1        26     9        0.000000        0.008530         1
         8         7         1        26     9      180.000000       12.845280         2
         8         7         1        26     9        0.000000       -0.285614         3
         8         7         1        26     9      180.000000        0.136601         4
         8         7         6        31     9        0.000000        0.069306         1
         8         7         6        31     9      180.000000       14.375203         2
         8         7         6        31     9        0.000000        0.138013         3
         8         7         6        31     9      180.000000       -0.535453         4
         8        41         9        43     9        0.000000       -1.078934         1
         8        41         9        43     9      180.000000       -0.209917         2
         8        41         9        43     9        0.000000        0.242831         3
         8        41         9        43     9      180.000000       -0.011217         4
         8        41         9        44     9        0.000000        0.222504         1
         8        41         9        44     9      180.000000        0.056936         2
         8        41         9        44     9        0.000000        0.069170         3
         8        41         9        44     9      180.000000        0.041238         4
         8        41         9        45     9        0.000000        0.222504         1
         8        41         9        45     9      180.000000        0.056936         2
         8        41         9        45     9        0.000000        0.069170         3
         8        41         9        45     9      180.000000        0.041238         4
         9        41         8        40     9        0.000000       -2.183459         1
         9        41         8        40     9      180.000000        9.046850         2
         9        41         8        40     9        0.000000        0.091944         3
         9        41         8        40     9      180.000000       -0.800428         4
         9        43        37        10     9        0.000000        1.010966         1
         9        43        37        10     9      180.000000       -0.451917         2
         9        43        37        10     9        0.000000        0.350830         3
         9        43        37        10     9      180.000000       -0.018987         4
         9        43        37        46     9        0.000000       -0.226720         1
         9        43        37        46     9      180.000000        0.084998         2
         9        43        37        46     9        0.000000        0.499325         3
         9        43        37        46     9      180.000000        0.047765         4
         9        43        37        47     9        0.000000       -0.226720         1
         9        43        37        47     9      180.000000        0.084998         2
         9        43        37        47     9        0.000000        0.499325         3
         9        43        37        47     9      180.000000        0.047765         4
        10        11        12        13     9        0.000000       -0.623250         1
        10        11        12        13     9      180.000000        5.239317         2
        10        11        12        13     9        0.000000        0.079076         3
        10        11        12        13     9      180.000000        0.323720         4
        10        11        12        14     9        0.000000        0.152262         1
        10        11        12        14     9      180.000000        5.286436         2
        10        11        12        14     9        0.000000        0.230364         3
        10        11        12        14     9      180.000000        0.284145         4
        10        37        43        48     9        0.000000       -0.149568         1
        10        37        43        48     9      180.000000        0.066014         2
        10        37        43        48     9        0.000000        0.456035         3
        10        37        43        48     9      180.000000        0.016886         4
        10        37        43        49     9        0.000000       -0.149568         1
        10        37        43        49     9      180.000000        0.066014         2
        10        37        43        49     9        0.000000        0.456035         3
        10        37        43        49     9      180.000000        0.016886         4
        11        10        37        43     9        0.000000       -0.287408         1
        11        10        37        43     9      180.000000       -0.012339         2
        11        10        37        43     9        0.000000        0.562931         3
        11        10        37        43     9      180.000000       -0.010382         4
        11        10        37        46     9        0.000000        0.038646         1
        11        10        37        46     9      180.000000        0.187662         2
        11        10        37        46     9        0.000000        0.494388         3
        11        10        37        46     9      180.000000        0.074046         4
        11        10        37        47     9        0.000000        0.038646         1
        11        10        37        47     9      180.000000        0.187662         2
        11        10        37        47     9        0.000000        0.494388         3
        11        10        37        47     9      180.000000        0.074046         4
        11        12        13        17     9        0.000000        0.131687         1
        11        12        13        17     9      180.000000       17.483808         2
        11        12        13        17     9        0.000000        0.275773         3
        11        12        13        17     9      180.000000       -0.450860         4
        11        12        13        32     9        0.000000        0.086307         1
        11        12        13        32     9      180.000000       12.804649         2
        11        12        13        32     9        0.000000       -0.066785         3
        11        12        13        32     9      180.000000        0.209391         4
        11        12        14        15     9        0.000000        0.480370         1
        11        12        14        15     9      180.000000       17.772855         2
        11        12        14        15     9        0.000000        0.389431         3
        11        12        14        15     9      180.000000       -0.375805         4
        11        12        14        33     9        0.000000        0.050117         1
        11        12        14        33     9      180.000000       12.887481         2
        11        12        14        33     9        0.000000       -0.088751         3
        11        12        14        33     9      180.000000        0.218725         4
        12        11        10        37     9        0.000000        0.369247         1
        12        11        10        37     9      180.000000        0.184739         2
        12        11        10        37     9        0.000000        0.692980         3
        12        11        10        37     9      180.000000        0.020960         4
        12        11        10        38     9        0.000000       -0.171487         1
        12        11        10        38     9      180.000000        0.032042         2
        12        11        10        38     9        0.000000        0.829327         3
        12        11        10        38     9      180.000000       -0.048960         4
        12        11        10        39     9        0.000000       -0.171487         1
        12        11        10        39     9      180.000000        0.032042         2
        12        11        10        39     9        0.000000        0.829327         3
        12        11        10        39     9      180.000000       -0.048960         4
        12        13        17        16     9        0.000000       -0.088728         1
        12        13        17        16     9      180.000000       17.390644         2
        12        13        17        16     9        0.000000       -1.447682         3
        12        13        17        16     9      180.000000       -0.346382         4
        12        13        17        18     9        0.000000       -0.135069         1
        12        13        17        18     9      180.000000       14.759888         2
        12        13        17        18     9        0.000000       -0.120110         3
        12        13        17        18     9      180.000000       -0.321902         4
        12        14        15        16     9        0.000000       -0.064726         1
        12        14        15        16     9      180.000000       18.645192         2
        12        14        15        16     9        0.000000       -1.664119         3
        12        14        15        16     9      180.000000       -0.484555         4
        12        14        15        34     9        0.000000        0.094024         1
        12        14        15        34     9      180.000000       14.324637         2
        12        14        15        34     9        0.000000       -0.532143         3
        12        14        15        34     9      180.000000        0.076596         4
        13        12        14        15     9        0.000000       -0.091120         1
        13        12        14        15     9      180.000000       16.222934         2
        13        12        14        15     9        0.000000       -0.935228         3
        13        12        14        15     9      180.000000       -0.285551         4
        13        12        14        33     9        0.000000       -0.016803         1
        13        12        14        33     9      180.000000       12.849793         2
        13        12        14        33     9        0.000000       -0.475369         3
        13        12        14        33     9      180.000000        0.105356         4
        13        17        16        15     9        0.000000       -0.025325         1
        13        17        16        15     9      180.000000       18.274509         2
        13        17        16        15     9        0.000000       -1.286094         3
        13        17        16        15     9      180.000000       -0.373843         4
        13        17        16        35     9        0.000000        0.068666         1
        13        17        16        35     9      180.000000       13.857810         2
        13        17        16        35     9        0.000000       -0.489187         3
        13        17        16        35     9      180.000000        0.009082         4
        13        17        18        19     9        0.000000       -0.353590         1
        13        17        18        19     9      180.000000        3.826244         2
        13        17        18        19     9        0.000000       -0.718059         3
        13        17        18        19     9      180.000000        0.830570         4
        14        12        13        17     9        0.000000        0.021304         1
        14        12        13        17     9      180.000000       15.794093         2
        14        12        13        17     9        0.000000       -0.948359         3
        14        12        13        17     9      180.000000       -0.362075         4
        14        12        13        32     9        0.000000        0.246613         1
        14        12        13        32     9      180.000000       12.236303         2
        14        12        13        32     9        0.000000       -0.371193         3
        14        12        13        32     9      180.000000        0.157210         4
        14        15        16        17     9        0.000000       -0.044652         1
        14        15        16        17     9      180.000000       18.346701         2
        14        15        16        17     9        0.000000       -1.460392         3
        14        15        16        17     9      180.000000       -0.448607         4
        14        15        16        35     9        0.000000        0.092811         1
        14        15        16        35     9      180.000000       14.433860         2
        14        15        16        35     9        0.000000       -0.677728         3
        14        15        16        35     9      180.000000        0.051389         4
        15        16        17        18     9        0.000000        0.147809         1
        15        16        17        18     9      180.000000       14.933086         2
        15        16        17        18     9        0.000000        0.080561         3
        15        16        17        18     9      180.000000       -0.240383         4
        16        15        14        33     9        0.000000        0.135348         1
        16        15        14        33     9      180.000000       14.465055         2
        16        15        14        33     9        0.000000       -0.687761         3
        16        15        14        33     9      180.000000        0.105643         4
        16        17        13        32     9        0.000000       -0.058215         1
        16        17        13        32     9      180.000000       13.500198         2
        16        17        13        32     9        0.000000       -0.479288         3
        16        17        13        32     9      180.000000        0.106147         4
        16        17        18        19     9        0.000000       -0.402211         1
        16        17        18        19     9      180.000000        3.739387         2
        16        17        18        19     9        0.000000       -0.567998         3
        16        17        18        19     9      180.000000        0.812049         4
        17        16        15        34     9        0.000000        0.056280         1
        17        16        15        34     9      180.000000       14.032613         2
        17        16        15        34     9        0.000000       -0.582917         3
        17        16        15        34     9      180.000000        0.114284         4
        17        18        19        20     9        0.000000       -0.416994         1
        17        18        19        20     9      180.000000        6.533347         2
        17        18        19        20     9        0.000000        0.733703         3
        17        18        19        20     9      180.000000        0.123179         4
        17        18        19        21     9        0.000000        1.633582         1
        17        18        19        21     9      180.000000        5.178147         2
        17        18        19        21     9        0.000000       -1.164552         3
        17        18        19        21     9      180.000000        0.609479         4
        18        17        13        32     9        0.000000       -0.133517         1
        18        17        13        32     9      180.000000       12.341659         2
        18        17        13        32     9        0.000000       -0.157944         3
        18        17        13        32     9      180.000000        0.109928         4
        18        17        16        35     9        0.000000       -0.100137         1
        18        17        16        35     9      180.000000       12.374157         2
        18        17        16        35     9        0.000000       -0.107807         3
        18        17        16        35     9      180.000000        0.088836         4
        18        19        20        24     9        0.000000        0.690448         1
        18        19        20        24     9      180.000000       20.363608         2
        18        19        20        24     9        0.000000        0.555847         3
        18        19        20        24     9      180.000000       -0.560052         4
        18        19        21        22     9        0.000000        0.429904         1
        18        19        21        22     9      180.000000       13.839166         2
        18        19        21        22     9        0.000000        0.265160         3
        18        19        21        22     9      180.000000       -0.640511         4
        18        19        21        36     9        0.000000        0.274217         1
        18        19        21        36     9      180.000000       11.261584         2
        18        19        21        36     9        0.000000        0.045420         3
        18        19        21        36     9      180.000000       -0.088592         4
        19        20        24        23     9        0.000000        0.286113         1
        19        20        24        23     9      180.000000       12.112049         2
        19        20        24        23     9        0.000000        0.425534         3
        19        20        24        23     9      180.000000       -0.451443         4
        19        20        24        25     9        0.000000        0.683931         1
        19        20        24        25     9      180.000000       20.126229         2
        19        20        24        25     9        0.000000        0.140990         3
        19        20        24        25     9      180.000000       -1.087344         4
        19        21        22        23     9        0.000000       -0.332410         1
        19        21        22        23     9      180.000000       14.182853         2
        19        21        22        23     9        0.000000       -0.710027         3
        19        21        22        23     9      180.000000       -0.279167         4
        20        19        21        22     9        0.000000       -0.077064         1
        20        19        21        22     9      180.000000       13.146502         2
        20        19        21        22     9        0.000000       -0.134197         3
        20        19        21        22     9      180.000000       -0.313647         4
        20        19        21        36     9        0.000000        0.031919         1
        20        19        21        36     9      180.000000       12.154307         2
        20        19        21        36     9        0.000000       -0.220120         3
        20        19        21        36     9      180.000000       -0.051823         4
        20        24        23        22     9        0.000000        0.489638         1
        20        24        23        22     9      180.000000       13.757442         2
        20        24        23        22     9        0.000000        0.544934         3
        20        24        23        22     9      180.000000       -0.729287         4
        20        24        25        53     9        0.000000        1.999312         1
        20        24        25        53     9      180.000000        8.414906         2
        20        24        25        53     9        0.000000       -0.095401         3
        20        24        25        53     9      180.000000       -0.638754         4
        20        24        25        54     9        0.000000        1.999312         1
        20        24        25        54     9      180.000000        8.414906         2
        20        24        25        54     9        0.000000       -0.095401         3
        20        24        25        54     9      180.000000       -0.638754         4
        21        19        20        24     9        0.000000       -0.333551         1
        21        19        20        24     9      180.000000       17.647148         2
        21        19        20        24     9        0.000000       -1.168419         3
        21        19        20        24     9      180.000000       -0.215012         4
        21        22        23        24     9        0.000000       -0.457279         1
        21        22        23        24     9      180.000000       16.963005         2
        21        22        23        24     9        0.000000       -1.047320         3
        21        22        23        24     9      180.000000       -0.278499         4
        22         2         1        26     9        0.000000       -0.240870         1
        22         2         1        26     9      180.000000       12.901172         2
        22         2         1        26     9        0.000000       -0.246193         3
        22         2         1        26     9      180.000000        0.163053         4
        22        23        24        25     9        0.000000        1.061681         1
        22        23        24        25     9      180.000000       19.842791         2
        22        23        24        25     9        0.000000        0.336717         3
        22        23        24        25     9      180.000000       -1.139636         4
        23        22        21        36     9        0.000000       -0.001837         1
        23        22        21        36     9      180.000000       13.364558         2
        23        22        21        36     9        0.000000       -0.270630         3
        23        22        21        36     9      180.000000       -0.117459         4
        23        24        25        53     9        0.000000        1.860873         1
        23        24        25        53     9      180.000000        8.241658         2
        23        24        25        53     9        0.000000       -0.157613         3
        23        24        25        53     9      180.000000       -0.751801         4
        23        24        25        54     9        0.000000        1.860873         1
        23        24        25        54     9      180.000000        8.241658         2
        23        24        25        54     9        0.000000       -0.157613         3
        23        24        25        54     9      180.000000       -0.751801         4
        30         5         6        31     9        0.000000       -0.146589         1
        30         5         6        31     9      180.000000       13.139542         2
        30         5         6        31     9        0.000000       -0.420017         3
        30         5         6        31     9      180.000000        0.338827         4
        33        14        15        34     9        0.000000       -0.173315         1
        33        14        15        34     9      180.000000       11.683787         2
        33        14        15        34     9        0.000000       -0.568860         3
        33        14        15        34     9      180.000000        0.194036         4
        34        15        16        35     9        0.000000       -0.029055         1
        34        15        16        35     9      180.000000       12.054902         2
        34        15        16        35     9        0.000000       -0.683621         3
        34        15        16        35     9      180.000000        0.221453         4
        37        43         9        41     9        0.000000       -0.065929         1
        37        43         9        41     9      180.000000        0.448222         2
        37        43         9        41     9        0.000000        0.423944         3
        37        43         9        41     9      180.000000       -0.020193         4
        37        43         9        44     9        0.000000       -0.029480         1
        37        43         9        44     9      180.000000        0.050171         2
        37        43         9        44     9        0.000000        0.599031         3
        37        43         9        44     9      180.000000        0.056331         4
        37        43         9        45     9        0.000000       -0.029480         1
        37        43         9        45     9      180.000000        0.050171         2
        37        43         9        45     9        0.000000        0.599031         3
        37        43         9        45     9      180.000000        0.056331         4
        38        10        37        43     9        0.000000       -0.030888         1
        38        10        37        43     9      180.000000        0.085842         2
        38        10        37        43     9        0.000000        0.658885         3
        38        10        37        43     9      180.000000        0.061201         4
        38        10        37        46     9        0.000000        0.002974         1
        38        10        37        46     9      180.000000       -0.032790         2
        38        10        37        46     9        0.000000        0.670357         3
        38        10        37        46     9      180.000000       -0.051819         4
        38        10        37        47     9        0.000000        0.002974         1
        38        10        37        47     9      180.000000       -0.032790         2
        38        10        37        47     9        0.000000        0.670357         3
        38        10        37        47     9      180.000000       -0.051819         4
        39        10        37        43     9        0.000000       -0.030888         1
        39        10        37        43     9      180.000000        0.085842         2
        39        10        37        43     9        0.000000        0.658885         3
        39        10        37        43     9      180.000000        0.061201         4
        39        10        37        46     9        0.000000        0.002974         1
        39        10        37        46     9      180.000000       -0.032790         2
        39        10        37        46     9        0.000000        0.670357         3
        39        10        37        46     9      180.000000       -0.051819         4
        39        10        37        47     9        0.000000        0.002974         1
        39        10        37        47     9      180.000000       -0.032790         2
        39        10        37        47     9        0.000000        0.670357         3
        39        10        37        47     9      180.000000       -0.051819         4
        40         8        41        42     9        0.000000       -0.209865         1
        40         8        41        42     9      180.000000       10.776436         2
        40         8        41        42     9        0.000000        0.149863         3
        40         8        41        42     9      180.000000        0.349266         4
        41         9        43        48     9        0.000000        0.027866         1
        41         9        43        48     9      180.000000        0.017713         2
        41         9        43        48     9        0.000000        0.579384         3
        41         9        43        48     9      180.000000        0.010864         4
        41         9        43        49     9        0.000000        0.027866         1
        41         9        43        49     9      180.000000        0.017713         2
        41         9        43        49     9        0.000000        0.579384         3
        41         9        43        49     9      180.000000        0.010864         4
        42        41         9        43     9        0.000000        0.582768         1
        42        41         9        43     9      180.000000       -0.967842         2
        42        41         9        43     9        0.000000        0.286159         3
        42        41         9        43     9      180.000000       -0.095206         4
        42        41         9        44     9        0.000000       -0.055033         1
        42        41         9        44     9      180.000000        0.248052         2
        42        41         9        44     9        0.000000        0.368625         3
        42        41         9        44     9      180.000000        0.099738         4
        42        41         9        45     9        0.000000       -0.055033         1
        42        41         9        45     9      180.000000        0.248052         2
        42        41         9        45     9        0.000000        0.368625         3
        42        41         9        45     9      180.000000        0.099738         4
        44         9        43        48     9        0.000000       -0.006866         1
        44         9        43        48     9      180.000000        0.025172         2
        44         9        43        48     9        0.000000        0.648648         3
        44         9        43        48     9      180.000000       -0.032667         4
        44         9        43        49     9        0.000000       -0.006866         1
        44         9        43        49     9      180.000000        0.025172         2
        44         9        43        49     9        0.000000        0.648648         3
        44         9        43        49     9      180.000000       -0.032667         4
        45         9        43        48     9        0.000000       -0.006866         1
        45         9        43        48     9      180.000000        0.025172         2
        45         9        43        48     9        0.000000        0.648648         3
        45         9        43        48     9      180.000000       -0.032667         4
        45         9        43        49     9        0.000000       -0.006866         1
        45         9        43        49     9      180.000000        0.025172         2
        45         9        43        49     9        0.000000        0.648648         3
        45         9        43        49     9      180.000000       -0.032667         4
        46        37        43        48     9        0.000000        0.123548         1
        46        37        43        48     9      180.000000       -0.034807         2
        46        37        43        48     9        0.000000        0.583469         3
        46        37        43        48     9      180.000000       -0.025166         4
        46        37        43        49     9        0.000000        0.123548         1
        46        37        43        49     9      180.000000       -0.034807         2
        46        37        43        49     9        0.000000        0.583469         3
        46        37        43        49     9      180.000000       -0.025166         4
        47        37        43        48     9        0.000000        0.123548         1
        47        37        43        48     9      180.000000       -0.034807         2
        47        37        43        48     9        0.000000        0.583469         3
        47        37        43        48     9      180.000000       -0.025166         4
        47        37        43        49     9        0.000000        0.123548         1
        47        37        43        49     9      180.000000       -0.034807         2
        47        37        43        49     9        0.000000        0.583469         3
        47        37        43        49     9      180.000000       -0.025166         4

[ dihedrals ] ; impropers
;       ai        aj        ak        al funct           phase               k        pn
         8         7        40        41     4      180.000000       19.323310         2
         8        40        41         7     4      180.000000       19.323310         2
         8        41         7        40     4      180.000000       19.323310         2
        13        12        17        32     4      180.000000        1.626954         2
        13        17        32        12     4      180.000000        1.626954         2
        13        32        12        17     4      180.000000        1.626954         2
        14        12        15        33     4      180.000000        1.216823         2
        14        15        33        12     4      180.000000        1.216823         2
        14        33        12        15     4      180.000000        1.216823         2
        15        14        16        34     4      180.000000        2.803440         2
        15        16        34        14     4      180.000000        2.803440         2
        15        34        14        16     4      180.000000        2.803440         2
        16        15        17        35     4      180.000000        0.889818         2
        16        17        35        15     4      180.000000        0.889818         2
        16        35        15        17     4      180.000000        0.889818         2
        19        18        20        21     4      180.000000        6.653471         2
        19        20        21        18     4      180.000000        6.653471         2
        19        21        18        20     4      180.000000        6.653471         2
        22         2        21        23     4      180.000000        4.311360         2
        22        21        23         2     4      180.000000        4.311360         2
        22        23         2        21     4      180.000000        4.311360         2
        24        20        23        25     4      180.000000        5.578667         2
        24        23        25        20     4      180.000000        5.578667         2
        24        25        20        23     4      180.000000        5.578667         2

[ pairs ]
;       ai        aj funct
         1         4     1
         1         5     1
         1        21     1
         1        23     1
         1        31     1
         1        40     1
         1        41     1
         2         6     1
         2         8     1
         2        19     1
         2        24     1
         2        27     1
         2        28     1
         2        29     1
         2        30     1
         2        36     1
         3         7     1
         3        21     1
         3        23     1
         3        26     1
         3        31     1
         4         6     1
         4        22     1
         4        30     1
         5         8     1
         5        22     1
         5        27     1
         5        28     1
         5        29     1
         5        50     1
         5        51     1
         5        52     1
         6        26     1
         6        40     1
         6        41     1
         7         9     1
         7        22     1
         7        30     1
         7        42     1
         7        50     1
         7        51     1
         7        52     1
         8        26     1
         8        31     1
         8        43     1
         8        44     1
         8        45     1
         9        10     1
         9        40     1
         9        46     1
         9        47     1
        10        13     1
        10        14     1
        10        48     1
        10        49     1
        11        15     1
        11        17     1
        11        32     1
        11        33     1
        11        43     1
        11        46     1
        11        47     1
        12        16     1
        12        18     1
        12        34     1
        12        37     1
        12        38     1
        12        39     1
        13        15     1
        13        19     1
        13        33     1
        13        35     1
        14        17     1
        14        32     1
        14        35     1
        15        18     1
        16        19     1
        16        32     1
        16        33     1
        17        20     1
        17        21     1
        17        34     1
        18        22     1
        18        24     1
        18        32     1
        18        35     1
        18        36     1
        19        23     1
        19        25     1
        20        22     1
        20        36     1
        20        53     1
        20        54     1
        21        24     1
        22        25     1
        22        26     1
        23        36     1
        23        53     1
        23        54     1
        30        31     1
        33        34     1
        34        35     1
        37        41     1
        37        44     1
        37        45     1
        38        43     1
        38        46     1
        38        47     1
        39        43     1
        39        46     1
        39        47     1
        40        42     1
        41        48     1
        41        49     1
        42        43     1
        42        44     1
        42        45     1
        44        48     1
        44        49     1
        45        48     1
        45        49     1
        46        48     1
        46        49     1
        47        48     1
        47        49     1
