; ITP file created by ByteFF-ML, 2025-12-06 06:50:52.738087

[ atomtypes ]
;name           bonded.type        at.num        mass        charge   ptype           sigma         epsilon
 c0bf                                   6      0.0000       0.00000       A     3.31450e-01     4.09135e-01
 c1bf                                   6      0.0000       0.00000       A     3.31491e-01     4.13206e-01
 c2bf                                   6      0.0000       0.00000       A     3.31432e-01     4.12873e-01
 c3bf                                   6      0.0000       0.00000       A     3.31513e-01     4.11532e-01
 c4bf                                   6      0.0000       0.00000       A     3.31529e-01     4.12736e-01
 c5bf                                   6      0.0000       0.00000       A     3.31602e-01     4.15347e-01
 c6bf                                   6      0.0000       0.00000       A     3.31507e-01     4.11068e-01
 c7bf                                   6      0.0000       0.00000       A     3.39818e-01     4.51220e-01
 o8bf                                   8      0.0000       0.00000       A     3.04860e-01     6.09054e-01
 n9bf                                   7      0.0000       0.00000       A     3.26967e-01     4.87936e-01
 c10bf                                  6      0.0000       0.00000       A     3.39792e-01     4.51380e-01
 c11bf                                  6      0.0000       0.00000       A     3.31400e-01     4.12246e-01
 c12bf                                  6      0.0000       0.00000       A     3.31402e-01     4.16818e-01
 c13bf                                  6      0.0000       0.00000       A     3.31432e-01     4.13762e-01
 n14bf                                  7      0.0000       0.00000       A     3.38402e-01     3.94856e-01
 c15bf                                  6      0.0000       0.00000       A     3.31362e-01     4.14965e-01
 n16bf                                  7      0.0000       0.00000       A     3.38513e-01     3.89190e-01
 n17bf                                  7      0.0000       0.00000       A     3.36757e-01     4.72523e-01
 c18bf                                  6      0.0000       0.00000       A     3.39796e-01     4.49498e-01
 c19bf                                  6      0.0000       0.00000       A     3.39890e-01     4.50408e-01
 c20bf                                  6      0.0000       0.00000       A     3.39837e-01     4.51177e-01
 n21bf                                  7      0.0000       0.00000       A     3.27038e-01     4.92829e-01
 c22bf                                  6      0.0000       0.00000       A     3.31491e-01     4.13037e-01
 c23bf                                  6      0.0000       0.00000       A     3.39907e-01     4.52171e-01
 o24bf                                  8      0.0000       0.00000       A     3.04978e-01     6.12733e-01
 c25bf                                  6      0.0000       0.00000       A     3.39729e-01     4.53231e-01
 s26bf                                 16      0.0000       0.00000       A     3.53125e-01     1.17737e+00
 h27bf                                  1      0.0000       0.00000       A     2.62577e-01     6.77962e-02
 h28bf                                  1      0.0000       0.00000       A     2.62622e-01     6.74595e-02
 h29bf                                  1      0.0000       0.00000       A     2.60031e-01     8.73273e-02
 h30bf                                  1      0.0000       0.00000       A     2.60031e-01     8.73273e-02
 h31bf                                  1      0.0000       0.00000       A     2.60031e-01     8.73273e-02
 h32bf                                  1      0.0000       0.00000       A     1.10322e-01     4.08721e-02
 h33bf                                  1      0.0000       0.00000       A     2.60028e-01     8.72826e-02
 h34bf                                  1      0.0000       0.00000       A     2.60028e-01     8.72826e-02
 h35bf                                  1      0.0000       0.00000       A     2.60028e-01     8.72826e-02
 h36bf                                  1      0.0000       0.00000       A     2.62460e-01     6.72440e-02
 h37bf                                  1      0.0000       0.00000       A     1.10073e-01     4.24538e-02
 h38bf                                  1      0.0000       0.00000       A     1.10073e-01     4.24538e-02
 h39bf                                  1      0.0000       0.00000       A     2.42474e-01     8.78684e-02
 h40bf                                  1      0.0000       0.00000       A     2.42474e-01     8.78684e-02
 h41bf                                  1      0.0000       0.00000       A     2.59954e-01     8.58270e-02
 h42bf                                  1      0.0000       0.00000       A     2.59954e-01     8.58270e-02
 h43bf                                  1      0.0000       0.00000       A     2.42461e-01     8.75077e-02
 h44bf                                  1      0.0000       0.00000       A     2.42461e-01     8.75077e-02
 h45bf                                  1      0.0000       0.00000       A     1.10547e-01     4.07477e-02
 h46bf                                  1      0.0000       0.00000       A     2.59863e-01     8.74853e-02
 h47bf                                  1      0.0000       0.00000       A     2.59863e-01     8.74853e-02
 h48bf                                  1      0.0000       0.00000       A     2.41924e-01     8.76976e-02
 h49bf                                  1      0.0000       0.00000       A     2.41924e-01     8.76976e-02

[ moleculetype ]
;name             nrexcl
 16_3VHD               3

[ atoms ]
;       nr            type      resi   res      atom      cgnr      charge          mass ; qtot
         1            c0bf         1   UNL        c0         1    -0.17025       12.0110 ; qtot   -0.170
         2            c1bf         1   UNL        c1         2    -0.01962       12.0110 ; qtot   -0.190
         3            c2bf         1   UNL        c2         3    -0.13610       12.0110 ; qtot   -0.326
         4            c3bf         1   UNL        c3         4    -0.01746       12.0110 ; qtot   -0.343
         5            c4bf         1   UNL        c4         5    -0.16002       12.0110 ; qtot   -0.503
         6            c5bf         1   UNL        c5         6    -0.03171       12.0110 ; qtot   -0.535
         7            c6bf         1   UNL        c6         7     0.60644       12.0110 ; qtot    0.071
         8            c7bf         1   UNL        c7         8    -0.05384       12.0110 ; qtot    0.017
         9            o8bf         1   UNL        o8         9    -0.59524       15.9990 ; qtot   -0.578
        10            n9bf         1   UNL        n9        10    -0.50890       14.0070 ; qtot   -1.087
        11           c10bf         1   UNL       c10        11    -0.05268       12.0110 ; qtot   -1.139
        12           c11bf         1   UNL       c11        12     0.21624       12.0110 ; qtot   -0.923
        13           c12bf         1   UNL       c12        13    -0.22128       12.0110 ; qtot   -1.144
        14           c13bf         1   UNL       c13        14     0.26388       12.0110 ; qtot   -0.881
        15           n14bf         1   UNL       n14        15    -0.25482       14.0070 ; qtot   -1.135
        16           c15bf         1   UNL       c15        16     0.36573       12.0110 ; qtot   -0.770
        17           n16bf         1   UNL       n16        17    -0.24993       14.0070 ; qtot   -1.020
        18           n17bf         1   UNL       n17        18    -1.02873       14.0070 ; qtot   -2.048
        19           c18bf         1   UNL       c18        19     0.10155       12.0110 ; qtot   -1.947
        20           c19bf         1   UNL       c19        20    -0.12389       12.0110 ; qtot   -2.071
        21           c20bf         1   UNL       c20        21     0.10320       12.0110 ; qtot   -1.967
        22           n21bf         1   UNL       n21        22    -0.51132       14.0070 ; qtot   -2.479
        23           c22bf         1   UNL       c22        23     0.59813       12.0110 ; qtot   -1.881
        24           c23bf         1   UNL       c23        24    -0.15785       12.0110 ; qtot   -2.038
        25           o24bf         1   UNL       o24        25    -0.60823       15.9990 ; qtot   -2.647
        26           c25bf         1   UNL       c25        26     0.06775       12.0110 ; qtot   -2.579
        27           s26bf         1   UNL       s26        27    -0.37159       32.0670 ; qtot   -2.951
        28           h27bf         1   UNL       h27        28     0.11507        1.0080 ; qtot   -2.835
        29           h28bf         1   UNL       h28        29     0.13386        1.0080 ; qtot   -2.702
        30           h29bf         1   UNL       h29        30     0.05000        1.0080 ; qtot   -2.652
        31           h30bf         1   UNL       h30        31     0.05000        1.0080 ; qtot   -2.602
        32           h31bf         1   UNL       h31        32     0.05000        1.0080 ; qtot   -2.552
        33           h32bf         1   UNL       h32        33     0.31688        1.0080 ; qtot   -2.235
        34           h33bf         1   UNL       h33        34     0.04871        1.0080 ; qtot   -2.186
        35           h34bf         1   UNL       h34        35     0.04871        1.0080 ; qtot   -2.137
        36           h35bf         1   UNL       h35        36     0.04871        1.0080 ; qtot   -2.089
        37           h36bf         1   UNL       h36        37     0.14531        1.0080 ; qtot   -1.943
        38           h37bf         1   UNL       h37        38     0.47675        1.0080 ; qtot   -1.467
        39           h38bf         1   UNL       h38        39     0.47675        1.0080 ; qtot   -0.990
        40           h39bf         1   UNL       h39        40     0.05872        1.0080 ; qtot   -0.931
        41           h40bf         1   UNL       h40        41     0.05872        1.0080 ; qtot   -0.872
        42           h41bf         1   UNL       h41        42     0.05839        1.0080 ; qtot   -0.814
        43           h42bf         1   UNL       h42        43     0.05839        1.0080 ; qtot   -0.756
        44           h43bf         1   UNL       h43        44     0.05811        1.0080 ; qtot   -0.697
        45           h44bf         1   UNL       h44        45     0.05811        1.0080 ; qtot   -0.639
        46           h45bf         1   UNL       h45        46     0.31979        1.0080 ; qtot   -0.320
        47           h46bf         1   UNL       h46        47     0.07433        1.0080 ; qtot   -0.245
        48           h47bf         1   UNL       h47        48     0.07433        1.0080 ; qtot   -0.171
        49           h48bf         1   UNL       h48        49     0.08545        1.0080 ; qtot   -0.085
        50           h49bf         1   UNL       h49        50     0.08545        1.0080 ; qtot   -0.000

[ bonds ]
;       ai        aj funct               r               k
         1         2     1        0.141240   260143.775195
         1         6     1        0.140258   290907.232764
         1        12     1        0.148691   204977.515576
         2         3     1        0.140120   298322.953955
         2        11     1        0.151222   200898.524170
         3         4     1        0.140123   296308.510156
         3        28     1        0.108752   312124.714551
         4         5     1        0.141016   267198.605957
         4         8     1        0.151236   200519.081030
         5         6     1        0.139992   297181.802686
         5         7     1        0.150376   178006.076147
         6        29     1        0.108466   322074.993848
         7         9     1        0.123362   593386.198047
         7        10     1        0.136965   295435.013330
         8        30     1        0.109345   301833.259473
         8        31     1        0.109345   301833.259473
         8        32     1        0.109345   301833.259473
        10        19     1        0.146065   206514.134521
        10        33     1        0.101099   424156.805029
        11        34     1        0.109337   301779.835840
        11        35     1        0.109337   301779.835840
        11        36     1        0.109337   301779.835840
        12        13     1        0.139629   293965.710205
        12        17     1        0.134178   310922.095459
        13        14     1        0.140108   282636.375928
        13        37     1        0.108197   329455.422754
        14        15     1        0.133310   323504.152637
        14        27     1        0.177730   140833.480859
        15        16     1        0.134615   270841.066016
        16        17     1        0.134190   276107.967139
        16        18     1        0.137322   317650.459814
        18        38     1        0.101085   429215.016895
        18        39     1        0.101085   429215.067969
        19        20     1        0.153384   184403.019897
        19        40     1        0.109302   301143.016943
        19        41     1        0.109302   301143.016943
        20        21     1        0.153393   184299.645679
        20        42     1        0.109496   297750.692871
        20        43     1        0.109496   297750.692871
        21        22     1        0.146083   207002.825415
        21        44     1        0.109310   300825.922656
        21        45     1        0.109310   300825.922656
        22        23     1        0.136506   306258.431934
        22        46     1        0.101191   422061.076611
        23        24     1        0.152791   165581.008350
        23        25     1        0.123334   597793.698828
        24        26     1        0.153404   181490.052905
        24        47     1        0.109401   300772.754395
        24        48     1        0.109401   300772.754395
        26        27     1        0.183434   117490.851904
        26        49     1        0.109164   308010.430859
        26        50     1        0.109164   308010.430859

[ angles ]
;       ai        aj        ak funct           theta             cth
         1         2         3     1      117.949120      697.514157
         1         2        11     1      123.262352      453.307696
         1         6         5     1      122.136192      641.107152
         1         6        29     1      118.595581      407.398039
         1        12        13     1      121.639427      458.629821
         1        12        17     1      116.960526      481.589853
         2         1         6     1      119.115334      677.017499
         2         1        12     1      123.136703      495.005806
         2         3         4     1      123.654274      687.014256
         2         3        28     1      118.246605      405.104391
         2        11        34     1      111.180176      485.104015
         2        11        35     1      111.180176      485.104015
         2        11        36     1      111.180176      485.104015
         3         2        11     1      118.990601      498.471926
         3         4         5     1      117.580368      693.258270
         3         4         8     1      119.287392      494.458258
         4         3        28     1      118.286537      407.832904
         4         5         6     1      119.513931      700.065825
         4         5         7     1      122.268654      571.086632
         4         8        30     1      111.186356      483.733534
         4         8        31     1      111.186356      483.733534
         4         8        32     1      111.186356      483.733534
         5         4         8     1      123.162796      456.139762
         5         6        29     1      118.804970      398.500144
         5         7         9     1      122.589172      603.827186
         5         7        10     1      115.450516      491.940842
         6         1        12     1      117.958374      519.080564
         6         5         7     1      117.709633      546.010532
         7        10        19     1      121.904831      534.604669
         7        10        33     1      118.146156      420.017297
         9         7        10     1      121.993912      597.234653
        10        19        20     1      112.670509      575.670607
        10        19        40     1      107.761208      535.837505
        10        19        41     1      107.761208      535.837505
        12        13        14     1      116.485733      885.108358
        12        13        37     1      121.908646      412.518197
        12        17        16     1      116.515770      949.499669
        13        12        17     1      121.478867      684.992738
        13        14        15     1      122.534401      697.282727
        13        14        27     1      119.220055      426.655381
        14        13        37     1      121.546432      422.135313
        14        15        16     1      115.908585      955.010769
        14        27        26     1      101.939720      825.031159
        15        14        27     1      117.962379      433.865593
        15        16        17     1      126.969627      651.861212
        15        16        18     1      116.107193      604.982995
        16        18        38     1      115.901672      474.303286
        16        18        39     1      115.901672      474.303286
        17        16        18     1      116.464111      589.863111
        19        10        33     1      118.430321      416.124548
        19        20        21     1      112.819748      587.889667
        19        20        42     1      109.123512      501.333040
        19        20        43     1      109.123512      501.333040
        20        19        40     1      110.176743      481.822848
        20        19        41     1      110.176743      481.822848
        20        21        22     1      112.709801      572.160915
        20        21        44     1      110.140648      483.663754
        20        21        45     1      110.140648      483.663754
        21        20        42     1      109.127579      502.810170
        21        20        43     1      109.127579      502.810170
        21        22        23     1      122.391113      542.013527
        21        22        46     1      118.940140      409.634802
        22        21        44     1      107.700455      526.587198
        22        21        45     1      107.700455      526.587198
        22        23        24     1      115.748001      512.321402
        22        23        25     1      122.664284      635.456811
        23        22        46     1      118.009705      442.224272
        23        24        26     1      111.386086      658.282837
        23        24        47     1      108.890152      530.837850
        23        24        48     1      108.890152      530.837850
        24        23        25     1      121.346237      487.999955
        24        26        27     1      112.290085      544.347300
        24        26        49     1      110.495438      480.005372
        24        26        50     1      110.495438      480.005372
        26        24        47     1      109.630104      490.569339
        26        24        48     1      109.630104      490.569339
        27        26        49     1      107.225563      429.226043
        27        26        50     1      107.225563      429.226043
        30         8        31     1      107.761963      356.703908
        30         8        32     1      107.761963      356.703908
        31         8        32     1      107.761963      356.703908
        34        11        35     1      107.744545      358.082976
        34        11        36     1      107.744545      358.082976
        35        11        36     1      107.744545      358.082976
        38        18        39     1      117.657532      319.610012
        40        19        41     1      107.581131      350.079167
        42        20        43     1      107.230385      359.219728
        44        21        45     1      107.532455      350.481695
        47        24        48     1      107.353836      358.891225
        49        26        50     1      108.354614      345.182618

[ dihedrals ] ; propers for gromacs 4.5 or higher, use funct 9
;       ai        aj        ak        al funct           phase               k        pn
         1         2         3         4     9        0.000000        0.166663         1
         1         2         3         4     9      180.000000       18.698116         2
         1         2         3         4     9        0.000000       -1.272407         3
         1         2         3         4     9      180.000000       -0.484125         4
         1         2         3        28     9        0.000000       -0.037624         1
         1         2         3        28     9      180.000000       14.991259         2
         1         2         3        28     9        0.000000       -0.391156         3
         1         2         3        28     9      180.000000        0.075339         4
         1         2        11        34     9        0.000000       -0.013266         1
         1         2        11        34     9      180.000000       -0.001659         2
         1         2        11        34     9        0.000000        0.454291         3
         1         2        11        34     9      180.000000        0.029306         4
         1         2        11        35     9        0.000000       -0.013266         1
         1         2        11        35     9      180.000000       -0.001659         2
         1         2        11        35     9        0.000000        0.454291         3
         1         2        11        35     9      180.000000        0.029306         4
         1         2        11        36     9        0.000000       -0.013266         1
         1         2        11        36     9      180.000000       -0.001659         2
         1         2        11        36     9        0.000000        0.454291         3
         1         2        11        36     9      180.000000        0.029306         4
         1         6         5         4     9        0.000000       -0.139646         1
         1         6         5         4     9      180.000000       18.265168         2
         1         6         5         4     9        0.000000       -1.530050         3
         1         6         5         4     9      180.000000       -0.416067         4
         1         6         5         7     9        0.000000       -0.037864         1
         1         6         5         7     9      180.000000       15.574574         2
         1         6         5         7     9        0.000000       -0.344736         3
         1         6         5         7     9      180.000000       -0.466493         4
         1        12        13        14     9        0.000000        0.477813         1
         1        12        13        14     9      180.000000       15.662958         2
         1        12        13        14     9        0.000000        0.000377         3
         1        12        13        14     9      180.000000       -0.608365         4
         1        12        13        37     9        0.000000        0.156245         1
         1        12        13        37     9      180.000000       12.548612         2
         1        12        13        37     9        0.000000       -0.124537         3
         1        12        13        37     9      180.000000        0.115647         4
         1        12        17        16     9        0.000000        0.250767         1
         1        12        17        16     9      180.000000       18.494032         2
         1        12        17        16     9        0.000000        0.334664         3
         1        12        17        16     9      180.000000       -0.712830         4
         2         1         6         5     9        0.000000       -0.020513         1
         2         1         6         5     9      180.000000       17.686439         2
         2         1         6         5     9        0.000000       -1.582523         3
         2         1         6         5     9      180.000000       -0.278597         4
         2         1         6        29     9        0.000000       -0.058501         1
         2         1         6        29     9      180.000000       14.416752         2
         2         1         6        29     9        0.000000       -0.628568         3
         2         1         6        29     9      180.000000        0.142070         4
         2         1        12        13     9        0.000000       -0.023818         1
         2         1        12        13     9      180.000000        4.109353         2
         2         1        12        13     9        0.000000       -0.709102         3
         2         1        12        13     9      180.000000        0.503509         4
         2         1        12        17     9        0.000000       -0.076267         1
         2         1        12        17     9      180.000000        4.566898         2
         2         1        12        17     9        0.000000        0.154988         3
         2         1        12        17     9      180.000000        0.176963         4
         2         3         4         5     9        0.000000       -0.004199         1
         2         3         4         5     9      180.000000       18.809071         2
         2         3         4         5     9        0.000000       -1.420267         3
         2         3         4         5     9      180.000000       -0.479141         4
         2         3         4         8     9        0.000000        0.082342         1
         2         3         4         8     9      180.000000       16.715480         2
         2         3         4         8     9        0.000000       -0.154370         3
         2         3         4         8     9      180.000000       -0.351380         4
         3         2         1         6     9        0.000000       -0.133647         1
         3         2         1         6     9      180.000000       17.206950         2
         3         2         1         6     9        0.000000       -1.018502         3
         3         2         1         6     9      180.000000       -0.339549         4
         3         2         1        12     9        0.000000       -0.067405         1
         3         2         1        12     9      180.000000       14.874725         2
         3         2         1        12     9        0.000000       -0.125943         3
         3         2         1        12     9      180.000000       -0.363357         4
         3         2        11        34     9        0.000000       -0.027914         1
         3         2        11        34     9      180.000000        0.031513         2
         3         2        11        34     9        0.000000        0.126405         3
         3         2        11        34     9      180.000000        0.012154         4
         3         2        11        35     9        0.000000       -0.027914         1
         3         2        11        35     9      180.000000        0.031513         2
         3         2        11        35     9        0.000000        0.126405         3
         3         2        11        35     9      180.000000        0.012154         4
         3         2        11        36     9        0.000000       -0.027914         1
         3         2        11        36     9      180.000000        0.031513         2
         3         2        11        36     9        0.000000        0.126405         3
         3         2        11        36     9      180.000000        0.012154         4
         3         4         5         6     9        0.000000       -0.144594         1
         3         4         5         6     9      180.000000       18.199997         2
         3         4         5         6     9        0.000000       -1.113320         3
         3         4         5         6     9      180.000000       -0.470874         4
         3         4         5         7     9        0.000000        0.191095         1
         3         4         5         7     9      180.000000       14.837597         2
         3         4         5         7     9        0.000000       -0.076443         3
         3         4         5         7     9      180.000000       -0.433766         4
         3         4         8        30     9        0.000000       -0.031839         1
         3         4         8        30     9      180.000000        0.038040         2
         3         4         8        30     9        0.000000        0.030980         3
         3         4         8        30     9      180.000000        0.010991         4
         3         4         8        31     9        0.000000       -0.031839         1
         3         4         8        31     9      180.000000        0.038040         2
         3         4         8        31     9        0.000000        0.030980         3
         3         4         8        31     9      180.000000        0.010991         4
         3         4         8        32     9        0.000000       -0.031839         1
         3         4         8        32     9      180.000000        0.038040         2
         3         4         8        32     9        0.000000        0.030980         3
         3         4         8        32     9      180.000000        0.010991         4
         4         3         2        11     9        0.000000        0.130386         1
         4         3         2        11     9      180.000000       16.668716         2
         4         3         2        11     9        0.000000       -0.122269         3
         4         3         2        11     9      180.000000       -0.348087         4
         4         5         6        29     9        0.000000       -0.002253         1
         4         5         6        29     9      180.000000       14.377857         2
         4         5         6        29     9        0.000000       -0.792212         3
         4         5         6        29     9      180.000000        0.111005         4
         4         5         7         9     9        0.000000       -1.963221         1
         4         5         7         9     9      180.000000        3.225631         2
         4         5         7         9     9        0.000000       -0.455863         3
         4         5         7         9     9      180.000000        0.193557         4
         4         5         7        10     9        0.000000       -0.099448         1
         4         5         7        10     9      180.000000        2.242773         2
         4         5         7        10     9        0.000000       -0.397302         3
         4         5         7        10     9      180.000000       -0.149424         4
         5         4         3        28     9        0.000000       -0.060877         1
         5         4         3        28     9      180.000000       14.515357         2
         5         4         3        28     9        0.000000       -0.332236         3
         5         4         3        28     9      180.000000        0.110439         4
         5         4         8        30     9        0.000000       -0.032311         1
         5         4         8        30     9      180.000000        0.013912         2
         5         4         8        30     9        0.000000        0.014242         3
         5         4         8        30     9      180.000000        0.022775         4
         5         4         8        31     9        0.000000       -0.032311         1
         5         4         8        31     9      180.000000        0.013912         2
         5         4         8        31     9        0.000000        0.014242         3
         5         4         8        31     9      180.000000        0.022775         4
         5         4         8        32     9        0.000000       -0.032311         1
         5         4         8        32     9      180.000000        0.013912         2
         5         4         8        32     9        0.000000        0.014242         3
         5         4         8        32     9      180.000000        0.022775         4
         5         6         1        12     9        0.000000        0.050993         1
         5         6         1        12     9      180.000000       16.147290         2
         5         6         1        12     9        0.000000       -0.356880         3
         5         6         1        12     9      180.000000       -0.366672         4
         5         7        10        19     9        0.000000        2.887601         1
         5         7        10        19     9      180.000000       10.042881         2
         5         7        10        19     9        0.000000        1.605971         3
         5         7        10        19     9      180.000000        0.127526         4
         5         7        10        33     9        0.000000        0.165415         1
         5         7        10        33     9      180.000000        9.619925         2
         5         7        10        33     9        0.000000        0.344074         3
         5         7        10        33     9      180.000000        0.557034         4
         6         1         2        11     9        0.000000        0.119522         1
         6         1         2        11     9      180.000000       14.038135         2
         6         1         2        11     9        0.000000       -0.062763         3
         6         1         2        11     9      180.000000       -0.279476         4
         6         1        12        13     9        0.000000       -0.228784         1
         6         1        12        13     9      180.000000        4.279907         2
         6         1        12        13     9        0.000000        0.342442         3
         6         1        12        13     9      180.000000        0.142263         4
         6         1        12        17     9        0.000000       -0.021556         1
         6         1        12        17     9      180.000000        4.811835         2
         6         1        12        17     9        0.000000       -0.256134         3
         6         1        12        17     9      180.000000        0.307076         4
         6         5         4         8     9        0.000000        0.007151         1
         6         5         4         8     9      180.000000       15.249886         2
         6         5         4         8     9        0.000000       -0.046732         3
         6         5         4         8     9      180.000000       -0.387062         4
         6         5         7         9     9        0.000000        1.565591         1
         6         5         7         9     9      180.000000        3.271157         2
         6         5         7         9     9        0.000000        0.213571         3
         6         5         7         9     9      180.000000        0.114634         4
         6         5         7        10     9        0.000000        0.186062         1
         6         5         7        10     9      180.000000        2.466796         2
         6         5         7        10     9        0.000000        0.586987         3
         6         5         7        10     9      180.000000       -0.414574         4
         7         5         4         8     9        0.000000        0.069306         1
         7         5         4         8     9      180.000000       14.375201         2
         7         5         4         8     9        0.000000        0.138013         3
         7         5         4         8     9      180.000000       -0.535452         4
         7         5         6        29     9        0.000000        0.008530         1
         7         5         6        29     9      180.000000       12.845280         2
         7         5         6        29     9        0.000000       -0.285614         3
         7         5         6        29     9      180.000000        0.136601         4
         7        10        19        20     9        0.000000       -0.726768         1
         7        10        19        20     9      180.000000       -0.361687         2
         7        10        19        20     9        0.000000        0.266572         3
         7        10        19        20     9      180.000000       -0.043099         4
         7        10        19        40     9        0.000000        0.220082         1
         7        10        19        40     9      180.000000        0.056928         2
         7        10        19        40     9        0.000000        0.054586         3
         7        10        19        40     9      180.000000        0.045199         4
         7        10        19        41     9        0.000000        0.220082         1
         7        10        19        41     9      180.000000        0.056928         2
         7        10        19        41     9        0.000000        0.054586         3
         7        10        19        41     9      180.000000        0.045199         4
         8         4         3        28     9        0.000000       -0.146589         1
         8         4         3        28     9      180.000000       13.139542         2
         8         4         3        28     9        0.000000       -0.420017         3
         8         4         3        28     9      180.000000        0.338827         4
         9         7        10        19     9        0.000000       -2.085646         1
         9         7        10        19     9      180.000000        9.090160         2
         9         7        10        19     9        0.000000        0.105221         3
         9         7        10        19     9      180.000000       -0.817722         4
         9         7        10        33     9        0.000000       -0.203389         1
         9         7        10        33     9      180.000000       10.806353         2
         9         7        10        33     9        0.000000        0.153831         3
         9         7        10        33     9      180.000000        0.363502         4
        10        19        20        21     9        0.000000       -0.426816         1
        10        19        20        21     9      180.000000       -0.061087         2
        10        19        20        21     9        0.000000        0.391861         3
        10        19        20        21     9      180.000000       -0.012419         4
        10        19        20        42     9        0.000000        0.072982         1
        10        19        20        42     9      180.000000        0.018457         2
        10        19        20        42     9        0.000000        0.571381         3
        10        19        20        42     9      180.000000        0.023127         4
        10        19        20        43     9        0.000000        0.072982         1
        10        19        20        43     9      180.000000        0.018457         2
        10        19        20        43     9        0.000000        0.571381         3
        10        19        20        43     9      180.000000        0.023127         4
        11         2         1        12     9        0.000000       -0.028443         1
        11         2         1        12     9      180.000000       14.530960         2
        11         2         1        12     9        0.000000        0.060700         3
        11         2         1        12     9      180.000000       -0.466857         4
        11         2         3        28     9        0.000000       -0.155266         1
        11         2         3        28     9      180.000000       13.331357         2
        11         2         3        28     9        0.000000       -0.389398         3
        11         2         3        28     9      180.000000        0.284163         4
        12         1         6        29     9        0.000000       -0.218392         1
        12         1         6        29     9      180.000000       12.943008         2
        12         1         6        29     9        0.000000       -0.242899         3
        12         1         6        29     9      180.000000        0.153094         4
        12        13        14        15     9        0.000000       -0.199267         1
        12        13        14        15     9      180.000000       12.485386         2
        12        13        14        15     9        0.000000       -0.023334         3
        12        13        14        15     9      180.000000       -0.325766         4
        12        13        14        27     9        0.000000        0.548007         1
        12        13        14        27     9      180.000000       14.409287         2
        12        13        14        27     9        0.000000        0.288671         3
        12        13        14        27     9      180.000000       -0.758266         4
        12        17        16        15     9        0.000000        0.466401         1
        12        17        16        15     9      180.000000       13.673151         2
        12        17        16        15     9        0.000000        0.547138         3
        12        17        16        15     9      180.000000       -0.690850         4
        12        17        16        18     9        0.000000        1.068805         1
        12        17        16        18     9      180.000000       19.893777         2
        12        17        16        18     9        0.000000        0.340189         3
        12        17        16        18     9      180.000000       -1.144238         4
        13        12        17        16     9        0.000000       -0.404987         1
        13        12        17        16     9      180.000000       17.256785         2
        13        12        17        16     9        0.000000       -1.116290         3
        13        12        17        16     9      180.000000       -0.287775         4
        13        14        15        16     9        0.000000       -0.560101         1
        13        14        15        16     9      180.000000       17.704619         2
        13        14        15        16     9        0.000000       -1.043893         3
        13        14        15        16     9      180.000000       -0.297604         4
        13        14        27        26     9        0.000000       -0.034571         1
        13        14        27        26     9      180.000000        6.731717         2
        13        14        27        26     9        0.000000       -0.784842         3
        13        14        27        26     9      180.000000        0.630267         4
        14        13        12        17     9        0.000000       -0.334143         1
        14        13        12        17     9      180.000000       14.208331         2
        14        13        12        17     9        0.000000       -0.633140         3
        14        13        12        17     9      180.000000       -0.217587         4
        14        15        16        17     9        0.000000        0.292900         1
        14        15        16        17     9      180.000000       12.699044         2
        14        15        16        17     9        0.000000        0.404247         3
        14        15        16        17     9      180.000000       -0.488376         4
        14        15        16        18     9        0.000000        0.808334         1
        14        15        16        18     9      180.000000       19.944734         2
        14        15        16        18     9        0.000000        0.128518         3
        14        15        16        18     9      180.000000       -1.009162         4
        14        27        26        24     9        0.000000       -4.547941         1
        14        27        26        24     9      180.000000       -0.455950         2
        14        27        26        24     9        0.000000        0.270053         3
        14        27        26        24     9      180.000000       -0.076577         4
        14        27        26        49     9        0.000000        0.983166         1
        14        27        26        49     9      180.000000        1.023859         2
        14        27        26        49     9        0.000000       -0.075531         3
        14        27        26        49     9      180.000000        0.293559         4
        14        27        26        50     9        0.000000        0.983166         1
        14        27        26        50     9      180.000000        1.023859         2
        14        27        26        50     9        0.000000       -0.075531         3
        14        27        26        50     9      180.000000        0.293559         4
        15        14        13        37     9        0.000000        0.059009         1
        15        14        13        37     9      180.000000       11.888172         2
        15        14        13        37     9        0.000000       -0.197144         3
        15        14        13        37     9      180.000000       -0.088667         4
        15        14        27        26     9        0.000000        0.200726         1
        15        14        27        26     9      180.000000        7.843223         2
        15        14        27        26     9        0.000000        0.716070         3
        15        14        27        26     9      180.000000        0.307484         4
        15        16        18        38     9        0.000000        2.453200         1
        15        16        18        38     9      180.000000        8.309334         2
        15        16        18        38     9        0.000000       -0.018034         3
        15        16        18        38     9      180.000000       -0.626405         4
        15        16        18        39     9        0.000000        2.453200         1
        15        16        18        39     9      180.000000        8.309334         2
        15        16        18        39     9        0.000000       -0.018034         3
        15        16        18        39     9      180.000000       -0.626405         4
        16        15        14        27     9        0.000000        0.569053         1
        16        15        14        27     9      180.000000       21.001813         2
        16        15        14        27     9        0.000000        0.389141         3
        16        15        14        27     9      180.000000       -0.694301         4
        17        12        13        37     9        0.000000        0.021766         1
        17        12        13        37     9      180.000000       13.459892         2
        17        12        13        37     9        0.000000       -0.197923         3
        17        12        13        37     9      180.000000       -0.076495         4
        17        16        18        38     9        0.000000        1.793135         1
        17        16        18        38     9      180.000000        8.198481         2
        17        16        18        38     9        0.000000       -0.144713         3
        17        16        18        38     9      180.000000       -0.735195         4
        17        16        18        39     9        0.000000        1.793135         1
        17        16        18        39     9      180.000000        8.198480         2
        17        16        18        39     9        0.000000       -0.144712         3
        17        16        18        39     9      180.000000       -0.735195         4
        19        20        21        22     9        0.000000       -0.407080         1
        19        20        21        22     9      180.000000       -0.100423         2
        19        20        21        22     9        0.000000        0.395798         3
        19        20        21        22     9      180.000000       -0.005637         4
        19        20        21        44     9        0.000000       -0.060523         1
        19        20        21        44     9      180.000000        0.023410         2
        19        20        21        44     9        0.000000        0.546304         3
        19        20        21        44     9      180.000000        0.067049         4
        19        20        21        45     9        0.000000       -0.060523         1
        19        20        21        45     9      180.000000        0.023410         2
        19        20        21        45     9        0.000000        0.546304         3
        19        20        21        45     9      180.000000        0.067049         4
        20        19        10        33     9        0.000000        0.263972         1
        20        19        10        33     9      180.000000       -1.071213         2
        20        19        10        33     9        0.000000        0.289499         3
        20        19        10        33     9      180.000000       -0.122935         4
        20        21        22        23     9        0.000000       -0.748071         1
        20        21        22        23     9      180.000000       -0.376900         2
        20        21        22        23     9        0.000000        0.251232         3
        20        21        22        23     9      180.000000       -0.033567         4
        20        21        22        46     9        0.000000        0.073324         1
        20        21        22        46     9      180.000000       -1.159156         2
        20        21        22        46     9        0.000000        0.241762         3
        20        21        22        46     9      180.000000       -0.106336         4
        21        20        19        40     9        0.000000       -0.001202         1
        21        20        19        40     9      180.000000        0.044118         2
        21        20        19        40     9        0.000000        0.543693         3
        21        20        19        40     9      180.000000        0.067075         4
        21        20        19        41     9        0.000000       -0.001202         1
        21        20        19        41     9      180.000000        0.044118         2
        21        20        19        41     9        0.000000        0.543693         3
        21        20        19        41     9      180.000000        0.067075         4
        21        22        23        24     9        0.000000        3.367195         1
        21        22        23        24     9      180.000000       10.056964         2
        21        22        23        24     9        0.000000        1.432529         3
        21        22        23        24     9      180.000000       -0.432543         4
        21        22        23        25     9        0.000000       -0.773900         1
        21        22        23        25     9      180.000000       10.852040         2
        21        22        23        25     9        0.000000        0.067307         3
        21        22        23        25     9      180.000000       -1.120370         4
        22        21        20        42     9        0.000000        0.069815         1
        22        21        20        42     9      180.000000        0.036841         2
        22        21        20        42     9        0.000000        0.586780         3
        22        21        20        42     9      180.000000        0.013989         4
        22        21        20        43     9        0.000000        0.069815         1
        22        21        20        43     9      180.000000        0.036841         2
        22        21        20        43     9        0.000000        0.586780         3
        22        21        20        43     9      180.000000        0.013989         4
        22        23        24        26     9        0.000000        1.223214         1
        22        23        24        26     9      180.000000        1.809341         2
        22        23        24        26     9        0.000000       -0.315604         3
        22        23        24        26     9      180.000000        0.110223         4
        22        23        24        47     9        0.000000       -0.247141         1
        22        23        24        47     9      180.000000       -0.106956         2
        22        23        24        47     9        0.000000       -0.221287         3
        22        23        24        47     9      180.000000        0.086924         4
        22        23        24        48     9        0.000000       -0.247141         1
        22        23        24        48     9      180.000000       -0.106956         2
        22        23        24        48     9        0.000000       -0.221287         3
        22        23        24        48     9      180.000000        0.086924         4
        23        22        21        44     9        0.000000        0.280532         1
        23        22        21        44     9      180.000000       -0.005065         2
        23        22        21        44     9        0.000000        0.115033         3
        23        22        21        44     9      180.000000        0.037184         4
        23        22        21        45     9        0.000000        0.280532         1
        23        22        21        45     9      180.000000       -0.005065         2
        23        22        21        45     9        0.000000        0.115033         3
        23        22        21        45     9      180.000000        0.037184         4
        23        24        26        27     9        0.000000       -5.156723         1
        23        24        26        27     9      180.000000        0.251168         2
        23        24        26        27     9        0.000000        0.148093         3
        23        24        26        27     9      180.000000       -0.053188         4
        23        24        26        49     9        0.000000        0.520387         1
        23        24        26        49     9      180.000000        0.188530         2
        23        24        26        49     9        0.000000        0.440833         3
        23        24        26        49     9      180.000000       -0.013335         4
        23        24        26        50     9        0.000000        0.520387         1
        23        24        26        50     9      180.000000        0.188530         2
        23        24        26        50     9        0.000000        0.440833         3
        23        24        26        50     9      180.000000       -0.013335         4
        24        23        22        46     9        0.000000        0.155079         1
        24        23        22        46     9      180.000000       10.833559         2
        24        23        22        46     9        0.000000       -0.382394         3
        24        23        22        46     9      180.000000        0.734337         4
        25        23        22        46     9        0.000000       -0.110084         1
        25        23        22        46     9      180.000000       12.014122         2
        25        23        22        46     9        0.000000        0.204508         3
        25        23        22        46     9      180.000000        1.322202         4
        25        23        24        26     9        0.000000       -0.929424         1
        25        23        24        26     9      180.000000        1.126435         2
        25        23        24        26     9        0.000000       -0.137197         3
        25        23        24        26     9      180.000000        0.106239         4
        25        23        24        47     9        0.000000        0.135637         1
        25        23        24        47     9      180.000000        0.023534         2
        25        23        24        47     9        0.000000       -0.026392         3
        25        23        24        47     9      180.000000        0.055029         4
        25        23        24        48     9        0.000000        0.135637         1
        25        23        24        48     9      180.000000        0.023534         2
        25        23        24        48     9        0.000000       -0.026392         3
        25        23        24        48     9      180.000000        0.055029         4
        27        14        13        37     9        0.000000        0.069290         1
        27        14        13        37     9      180.000000       11.666005         2
        27        14        13        37     9        0.000000        0.025720         3
        27        14        13        37     9      180.000000       -0.072852         4
        27        26        24        47     9        0.000000        0.202444         1
        27        26        24        47     9      180.000000       -0.303922         2
        27        26        24        47     9        0.000000        0.639911         3
        27        26        24        47     9      180.000000        0.061784         4
        27        26        24        48     9        0.000000        0.202444         1
        27        26        24        48     9      180.000000       -0.303922         2
        27        26        24        48     9        0.000000        0.639911         3
        27        26        24        48     9      180.000000        0.061784         4
        33        10        19        40     9        0.000000       -0.039374         1
        33        10        19        40     9      180.000000        0.235143         2
        33        10        19        40     9        0.000000        0.368200         3
        33        10        19        40     9      180.000000        0.112527         4
        33        10        19        41     9        0.000000       -0.039374         1
        33        10        19        41     9      180.000000        0.235143         2
        33        10        19        41     9        0.000000        0.368200         3
        33        10        19        41     9      180.000000        0.112527         4
        40        19        20        42     9        0.000000       -0.038445         1
        40        19        20        42     9      180.000000        0.051985         2
        40        19        20        42     9        0.000000        0.639154         3
        40        19        20        42     9      180.000000       -0.023757         4
        40        19        20        43     9        0.000000       -0.038445         1
        40        19        20        43     9      180.000000        0.051985         2
        40        19        20        43     9        0.000000        0.639154         3
        40        19        20        43     9      180.000000       -0.023757         4
        41        19        20        42     9        0.000000       -0.038445         1
        41        19        20        42     9      180.000000        0.051985         2
        41        19        20        42     9        0.000000        0.639154         3
        41        19        20        42     9      180.000000       -0.023757         4
        41        19        20        43     9        0.000000       -0.038445         1
        41        19        20        43     9      180.000000        0.051985         2
        41        19        20        43     9        0.000000        0.639154         3
        41        19        20        43     9      180.000000       -0.023757         4
        42        20        21        44     9        0.000000       -0.034970         1
        42        20        21        44     9      180.000000        0.044726         2
        42        20        21        44     9        0.000000        0.638170         3
        42        20        21        44     9      180.000000       -0.026201         4
        42        20        21        45     9        0.000000       -0.034970         1
        42        20        21        45     9      180.000000        0.044726         2
        42        20        21        45     9        0.000000        0.638170         3
        42        20        21        45     9      180.000000       -0.026201         4
        43        20        21        44     9        0.000000       -0.034970         1
        43        20        21        44     9      180.000000        0.044726         2
        43        20        21        44     9        0.000000        0.638170         3
        43        20        21        44     9      180.000000       -0.026201         4
        43        20        21        45     9        0.000000       -0.034970         1
        43        20        21        45     9      180.000000        0.044726         2
        43        20        21        45     9        0.000000        0.638170         3
        43        20        21        45     9      180.000000       -0.026201         4
        44        21        22        46     9        0.000000        0.013280         1
        44        21        22        46     9      180.000000        0.219888         2
        44        21        22        46     9        0.000000        0.333504         3
        44        21        22        46     9      180.000000        0.131564         4
        45        21        22        46     9        0.000000        0.013280         1
        45        21        22        46     9      180.000000        0.219888         2
        45        21        22        46     9        0.000000        0.333504         3
        45        21        22        46     9      180.000000        0.131564         4
        47        24        26        49     9        0.000000       -0.130454         1
        47        24        26        49     9      180.000000        0.148320         2
        47        24        26        49     9        0.000000        0.598147         3
        47        24        26        49     9      180.000000       -0.030022         4
        47        24        26        50     9        0.000000       -0.130454         1
        47        24        26        50     9      180.000000        0.148320         2
        47        24        26        50     9        0.000000        0.598147         3
        47        24        26        50     9      180.000000       -0.030022         4
        48        24        26        49     9        0.000000       -0.130454         1
        48        24        26        49     9      180.000000        0.148320         2
        48        24        26        49     9        0.000000        0.598147         3
        48        24        26        49     9      180.000000       -0.030022         4
        48        24        26        50     9        0.000000       -0.130454         1
        48        24        26        50     9      180.000000        0.148320         2
        48        24        26        50     9        0.000000        0.598147         3
        48        24        26        50     9      180.000000       -0.030022         4

[ dihedrals ] ; impropers
;       ai        aj        ak        al funct           phase               k        pn
         7         5         9        10     4      180.000000       19.159284         2
         7         9        10         5     4      180.000000       19.159284         2
         7        10         5         9     4      180.000000       19.159284         2
        12         1        13        17     4      180.000000        4.387668         2
        12        13        17         1     4      180.000000        4.387668         2
        12        17         1        13     4      180.000000        4.387668         2
        14        13        15        27     4      180.000000       10.159654         2
        14        15        27        13     4      180.000000       10.159654         2
        14        27        13        15     4      180.000000       10.159654         2
        16        15        17        18     4      180.000000        7.353811         2
        16        17        18        15     4      180.000000        7.353811         2
        16        18        15        17     4      180.000000        7.353811         2
        23        22        24        25     4      180.000000       17.741557         2
        23        24        25        22     4      180.000000       17.741557         2
        23        25        22        24     4      180.000000       17.741557         2

[ pairs ]
;       ai        aj funct
         1         4     1
         1         7     1
         1        14     1
         1        16     1
         1        28     1
         1        34     1
         1        35     1
         1        36     1
         1        37     1
         2         5     1
         2         8     1
         2        13     1
         2        17     1
         2        29     1
         3         6     1
         3         7     1
         3        12     1
         3        30     1
         3        31     1
         3        32     1
         3        34     1
         3        35     1
         3        36     1
         4         9     1
         4        10     1
         4        11     1
         4        29     1
         5        12     1
         5        19     1
         5        28     1
         5        30     1
         5        31     1
         5        32     1
         5        33     1
         6         8     1
         6         9     1
         6        10     1
         6        11     1
         6        13     1
         6        17     1
         7         8     1
         7        20     1
         7        29     1
         7        40     1
         7        41     1
         8        28     1
         9        19     1
         9        33     1
        10        21     1
        10        42     1
        10        43     1
        11        12     1
        11        28     1
        12        15     1
        12        18     1
        12        27     1
        12        29     1
        13        16     1
        13        26     1
        14        17     1
        14        18     1
        14        24     1
        14        49     1
        14        50     1
        15        26     1
        15        37     1
        15        38     1
        15        39     1
        16        27     1
        17        37     1
        17        38     1
        17        39     1
        19        22     1
        19        44     1
        19        45     1
        20        23     1
        20        33     1
        20        46     1
        21        24     1
        21        25     1
        21        40     1
        21        41     1
        22        26     1
        22        42     1
        22        43     1
        22        47     1
        22        48     1
        23        27     1
        23        44     1
        23        45     1
        23        49     1
        23        50     1
        24        46     1
        25        26     1
        25        46     1
        25        47     1
        25        48     1
        27        37     1
        27        47     1
        27        48     1
        33        40     1
        33        41     1
        40        42     1
        40        43     1
        41        42     1
        41        43     1
        42        44     1
        42        45     1
        43        44     1
        43        45     1
        44        46     1
        45        46     1
        47        49     1
        47        50     1
        48        49     1
        48        50     1
