; ITP file created by ByteFF-ML, 2025-12-06 06:50:02.947249

[ atomtypes ]
;name           bonded.type        at.num        mass        charge   ptype           sigma         epsilon
 c0bf                                   6      0.0000       0.00000       A     3.31450e-01     4.09135e-01
 c1bf                                   6      0.0000       0.00000       A     3.31491e-01     4.13206e-01
 c2bf                                   6      0.0000       0.00000       A     3.31432e-01     4.12873e-01
 c3bf                                   6      0.0000       0.00000       A     3.31513e-01     4.11532e-01
 c4bf                                   6      0.0000       0.00000       A     3.31529e-01     4.12736e-01
 c5bf                                   6      0.0000       0.00000       A     3.31602e-01     4.15347e-01
 c6bf                                   6      0.0000       0.00000       A     3.31507e-01     4.11068e-01
 c7bf                                   6      0.0000       0.00000       A     3.39818e-01     4.51220e-01
 o8bf                                   8      0.0000       0.00000       A     3.04860e-01     6.09054e-01
 n9bf                                   7      0.0000       0.00000       A     3.26945e-01     4.88801e-01
 c10bf                                  6      0.0000       0.00000       A     3.39792e-01     4.51380e-01
 c11bf                                  6      0.0000       0.00000       A     3.31400e-01     4.12246e-01
 c12bf                                  6      0.0000       0.00000       A     3.31402e-01     4.16818e-01
 c13bf                                  6      0.0000       0.00000       A     3.31432e-01     4.13762e-01
 n14bf                                  7      0.0000       0.00000       A     3.38402e-01     3.94856e-01
 c15bf                                  6      0.0000       0.00000       A     3.31362e-01     4.14965e-01
 n16bf                                  7      0.0000       0.00000       A     3.38513e-01     3.89190e-01
 n17bf                                  7      0.0000       0.00000       A     3.36757e-01     4.72523e-01
 c18bf                                  6      0.0000       0.00000       A     3.39816e-01     4.49309e-01
 c19bf                                  6      0.0000       0.00000       A     3.39872e-01     4.51539e-01
 c20bf                                  6      0.0000       0.00000       A     3.39806e-01     4.50203e-01
 n21bf                                  7      0.0000       0.00000       A     3.27031e-01     4.93086e-01
 c22bf                                  6      0.0000       0.00000       A     3.31491e-01     4.13037e-01
 c23bf                                  6      0.0000       0.00000       A     3.39907e-01     4.52171e-01
 o24bf                                  8      0.0000       0.00000       A     3.04978e-01     6.12733e-01
 c25bf                                  6      0.0000       0.00000       A     3.39729e-01     4.53231e-01
 s26bf                                 16      0.0000       0.00000       A     3.53125e-01     1.17737e+00
 h27bf                                  1      0.0000       0.00000       A     2.62578e-01     6.77962e-02
 h28bf                                  1      0.0000       0.00000       A     2.62622e-01     6.74595e-02
 h29bf                                  1      0.0000       0.00000       A     2.60031e-01     8.73273e-02
 h30bf                                  1      0.0000       0.00000       A     2.60031e-01     8.73273e-02
 h31bf                                  1      0.0000       0.00000       A     2.60031e-01     8.73273e-02
 h32bf                                  1      0.0000       0.00000       A     1.10322e-01     4.08721e-02
 h33bf                                  1      0.0000       0.00000       A     2.60028e-01     8.72826e-02
 h34bf                                  1      0.0000       0.00000       A     2.60028e-01     8.72826e-02
 h35bf                                  1      0.0000       0.00000       A     2.60028e-01     8.72826e-02
 h36bf                                  1      0.0000       0.00000       A     2.62460e-01     6.72440e-02
 h37bf                                  1      0.0000       0.00000       A     1.10547e-01     4.07477e-02
 h38bf                                  1      0.0000       0.00000       A     2.59863e-01     8.74853e-02
 h39bf                                  1      0.0000       0.00000       A     2.59863e-01     8.74853e-02
 h40bf                                  1      0.0000       0.00000       A     2.41924e-01     8.76976e-02
 h41bf                                  1      0.0000       0.00000       A     2.41924e-01     8.76976e-02
 c42bf                                  6      0.0000       0.00000       A     3.39900e-01     4.50942e-01
 h43bf                                  1      0.0000       0.00000       A     2.42514e-01     8.75540e-02
 h44bf                                  1      0.0000       0.00000       A     2.42514e-01     8.75540e-02
 h45bf                                  1      0.0000       0.00000       A     2.60066e-01     8.71135e-02
 h46bf                                  1      0.0000       0.00000       A     2.60066e-01     8.71135e-02
 c47bf                                  6      0.0000       0.00000       A     3.39876e-01     4.51078e-01
 h48bf                                  1      0.0000       0.00000       A     2.42510e-01     8.78397e-02
 h49bf                                  1      0.0000       0.00000       A     2.42510e-01     8.78397e-02
 h50bf                                  1      0.0000       0.00000       A     2.59981e-01     8.74758e-02
 h51bf                                  1      0.0000       0.00000       A     2.59981e-01     8.74758e-02
 h52bf                                  1      0.0000       0.00000       A     2.60066e-01     8.71135e-02
 h53bf                                  1      0.0000       0.00000       A     2.60066e-01     8.71135e-02
 h54bf                                  1      0.0000       0.00000       A     1.10073e-01     4.24538e-02
 h55bf                                  1      0.0000       0.00000       A     1.10073e-01     4.24538e-02

[ moleculetype ]
;name             nrexcl
 18_minimized          3

[ atoms ]
;       nr            type      resi   res      atom      cgnr      charge          mass ; qtot
         1            c0bf         1   UNL        c0         1    -0.17025       12.0110 ; qtot   -0.170
         2            c1bf         1   UNL        c1         2    -0.01962       12.0110 ; qtot   -0.190
         3            c2bf         1   UNL        c2         3    -0.13610       12.0110 ; qtot   -0.326
         4            c3bf         1   UNL        c3         4    -0.01746       12.0110 ; qtot   -0.343
         5            c4bf         1   UNL        c4         5    -0.16002       12.0110 ; qtot   -0.503
         6            c5bf         1   UNL        c5         6    -0.03171       12.0110 ; qtot   -0.535
         7            c6bf         1   UNL        c6         7     0.60660       12.0110 ; qtot    0.071
         8            c7bf         1   UNL        c7         8    -0.05384       12.0110 ; qtot    0.018
         9            o8bf         1   UNL        o8         9    -0.59524       15.9990 ; qtot   -0.578
        10            n9bf         1   UNL        n9        10    -0.50917       14.0070 ; qtot   -1.087
        11           c10bf         1   UNL       c10        11    -0.05268       12.0110 ; qtot   -1.139
        12           c11bf         1   UNL       c11        12     0.21624       12.0110 ; qtot   -0.923
        13           c12bf         1   UNL       c12        13    -0.22128       12.0110 ; qtot   -1.145
        14           c13bf         1   UNL       c13        14     0.26388       12.0110 ; qtot   -0.881
        15           n14bf         1   UNL       n14        15    -0.25482       14.0070 ; qtot   -1.135
        16           c15bf         1   UNL       c15        16     0.36573       12.0110 ; qtot   -0.770
        17           n16bf         1   UNL       n16        17    -0.24993       14.0070 ; qtot   -1.020
        18           n17bf         1   UNL       n17        18    -1.02873       14.0070 ; qtot   -2.048
        19           c18bf         1   UNL       c18        19     0.09812       12.0110 ; qtot   -1.950
        20           c19bf         1   UNL       c19        20    -0.07631       12.0110 ; qtot   -2.027
        21           c20bf         1   UNL       c20        21     0.10013       12.0110 ; qtot   -1.926
        22           n21bf         1   UNL       n21        22    -0.51129       14.0070 ; qtot   -2.438
        23           c22bf         1   UNL       c22        23     0.59824       12.0110 ; qtot   -1.840
        24           c23bf         1   UNL       c23        24    -0.15785       12.0110 ; qtot   -1.997
        25           o24bf         1   UNL       o24        25    -0.60823       15.9990 ; qtot   -2.606
        26           c25bf         1   UNL       c25        26     0.06775       12.0110 ; qtot   -2.538
        27           s26bf         1   UNL       s26        27    -0.37159       32.0670 ; qtot   -2.909
        28           h27bf         1   UNL       h27        28     0.11507        1.0080 ; qtot   -2.794
        29           h28bf         1   UNL       h28        29     0.13386        1.0080 ; qtot   -2.661
        30           h29bf         1   UNL       h29        30     0.05000        1.0080 ; qtot   -2.611
        31           h30bf         1   UNL       h30        31     0.05000        1.0080 ; qtot   -2.561
        32           h31bf         1   UNL       h31        32     0.05000        1.0080 ; qtot   -2.511
        33           h32bf         1   UNL       h32        33     0.31660        1.0080 ; qtot   -2.194
        34           h33bf         1   UNL       h33        34     0.04871        1.0080 ; qtot   -2.145
        35           h34bf         1   UNL       h34        35     0.04871        1.0080 ; qtot   -2.096
        36           h35bf         1   UNL       h35        36     0.04871        1.0080 ; qtot   -2.048
        37           h36bf         1   UNL       h36        37     0.14531        1.0080 ; qtot   -1.902
        38           h37bf         1   UNL       h37        38     0.31956        1.0080 ; qtot   -1.583
        39           h38bf         1   UNL       h38        39     0.07433        1.0080 ; qtot   -1.509
        40           h39bf         1   UNL       h39        40     0.07433        1.0080 ; qtot   -1.434
        41           h40bf         1   UNL       h40        41     0.08546        1.0080 ; qtot   -1.349
        42           h41bf         1   UNL       h41        42     0.08546        1.0080 ; qtot   -1.263
        43           c42bf         1   UNL       c42        43    -0.09920       12.0110 ; qtot   -1.363
        44           h43bf         1   UNL       h43        44     0.05737        1.0080 ; qtot   -1.305
        45           h44bf         1   UNL       h44        45     0.05737        1.0080 ; qtot   -1.248
        46           h45bf         1   UNL       h45        46     0.04815        1.0080 ; qtot   -1.200
        47           h46bf         1   UNL       h46        47     0.04815        1.0080 ; qtot   -1.151
        48           c47bf         1   UNL       c47        48    -0.09908       12.0110 ; qtot   -1.251
        49           h48bf         1   UNL       h48        49     0.05817        1.0080 ; qtot   -1.192
        50           h49bf         1   UNL       h49        50     0.05817        1.0080 ; qtot   -1.134
        51           h50bf         1   UNL       h50        51     0.04199        1.0080 ; qtot   -1.092
        52           h51bf         1   UNL       h51        52     0.04199        1.0080 ; qtot   -1.050
        53           h52bf         1   UNL       h52        53     0.04836        1.0080 ; qtot   -1.002
        54           h53bf         1   UNL       h53        54     0.04836        1.0080 ; qtot   -0.954
        55           h54bf         1   UNL       h54        55     0.47675        1.0080 ; qtot   -0.477
        56           h55bf         1   UNL       h55        56     0.47677        1.0080 ; qtot   -0.000

[ bonds ]
;       ai        aj funct               r               k
         1         2     1        0.141240   260143.775195
         1         6     1        0.140258   290907.232764
         1        12     1        0.148691   204977.515576
         2         3     1        0.140120   298322.953955
         2        11     1        0.151222   200898.524170
         3         4     1        0.140123   296308.510156
         3        28     1        0.108752   312124.714551
         4         5     1        0.141016   267198.605957
         4         8     1        0.151236   200519.081030
         5         6     1        0.139992   297181.802686
         5         7     1        0.150376   178006.076147
         6        29     1        0.108466   322074.993848
         7         9     1        0.123362   593386.198047
         7        10     1        0.136969   295413.204639
         8        30     1        0.109345   301833.259473
         8        31     1        0.109345   301833.259473
         8        32     1        0.109345   301833.259473
        10        19     1        0.146071   206230.544922
        10        33     1        0.101091   424352.266064
        11        34     1        0.109337   301779.835840
        11        35     1        0.109337   301779.835840
        11        36     1        0.109337   301779.835840
        12        13     1        0.139629   293965.710205
        12        17     1        0.134178   310922.095459
        13        14     1        0.140108   282636.375928
        13        37     1        0.108197   329455.422754
        14        15     1        0.133310   323504.152637
        14        27     1        0.177730   140833.480859
        15        16     1        0.134615   270841.066016
        16        17     1        0.134190   276107.967139
        16        18     1        0.137322   317650.459814
        18        55     1        0.101085   429215.016895
        18        56     1        0.101085   429215.067969
        19        48     1        0.153444   183995.971143
        19        49     1        0.109310   300856.694873
        19        50     1        0.109310   300856.694873
        20        43     1        0.153556   183704.631030
        20        48     1        0.153546   183780.284717
        20        51     1        0.109625   293217.345215
        20        52     1        0.109625   293217.345215
        21        22     1        0.146099   206684.901172
        21        43     1        0.153462   183745.758545
        21        44     1        0.109319   300489.292480
        21        45     1        0.109319   300489.292480
        22        23     1        0.136511   306151.329297
        22        38     1        0.101181   422383.737988
        23        24     1        0.152791   165581.008350
        23        25     1        0.123334   597793.698828
        24        26     1        0.153404   181490.052905
        24        39     1        0.109401   300772.779932
        24        40     1        0.109401   300772.779932
        26        27     1        0.183434   117490.851904
        26        41     1        0.109164   308010.430859
        26        42     1        0.109164   308010.430859
        43        46     1        0.109584   294805.651270
        43        47     1        0.109584   294805.651270
        48        53     1        0.109583   294848.757910
        48        54     1        0.109583   294848.757910

[ angles ]
;       ai        aj        ak funct           theta             cth
         1         2         3     1      117.949120      697.514157
         1         2        11     1      123.262352      453.307696
         1         6         5     1      122.136192      641.107152
         1         6        29     1      118.595581      407.398039
         1        12        13     1      121.639427      458.629821
         1        12        17     1      116.960526      481.589853
         2         1         6     1      119.115334      677.017499
         2         1        12     1      123.136703      495.005806
         2         3         4     1      123.654274      687.014256
         2         3        28     1      118.246605      405.104423
         2        11        34     1      111.180176      485.104015
         2        11        35     1      111.180176      485.104015
         2        11        36     1      111.180176      485.104015
         3         2        11     1      118.990601      498.471926
         3         4         5     1      117.580368      693.258270
         3         4         8     1      119.287392      494.458258
         4         3        28     1      118.286537      407.832936
         4         5         6     1      119.513931      700.065825
         4         5         7     1      122.268654      571.086632
         4         8        30     1      111.186356      483.733534
         4         8        31     1      111.186356      483.733534
         4         8        32     1      111.186356      483.733534
         5         4         8     1      123.162796      456.139762
         5         6        29     1      118.804970      398.500144
         5         7         9     1      122.589172      603.827186
         5         7        10     1      115.437477      491.684673
         6         1        12     1      117.958374      519.080564
         6         5         7     1      117.709633      546.010532
         7        10        19     1      121.921997      535.610097
         7        10        33     1      118.129593      420.151016
         9         7        10     1      122.007645      596.935422
        10        19        48     1      112.704422      582.521192
        10        19        49     1      107.715286      538.779444
        10        19        50     1      107.715286      538.779444
        12        13        14     1      116.485733      885.108358
        12        13        37     1      121.908646      412.518197
        12        17        16     1      116.515770      949.499669
        13        12        17     1      121.478867      684.992738
        13        14        15     1      122.534401      697.282727
        13        14        27     1      119.220055      426.655445
        14        13        37     1      121.546432      422.135313
        14        15        16     1      115.908585      955.010769
        14        27        26     1      101.939720      825.031159
        15        14        27     1      117.962379      433.865593
        15        16        17     1      126.969627      651.861212
        15        16        18     1      116.107193      604.982995
        16        18        55     1      115.901672      474.303286
        16        18        56     1      115.901672      474.303286
        17        16        18     1      116.464111      589.863111
        19        10        33     1      118.454910      416.203106
        19        48        20     1      113.394753      601.059282
        19        48        53     1      108.613426      503.905041
        19        48        54     1      108.613426      503.905073
        20        43        21     1      113.403687      602.244268
        20        43        46     1      109.674927      510.241852
        20        43        47     1      109.674927      510.241852
        20        48        53     1      109.685081      510.281307
        20        48        54     1      109.685081      510.281307
        21        22        23     1      122.438354      543.174125
        21        22        38     1      118.978027      409.909167
        21        43        46     1      108.615685      505.559335
        21        43        47     1      108.615685      505.559335
        22        21        43     1      112.781815      580.992349
        22        21        44     1      107.667763      528.926397
        22        21        45     1      107.667763      528.926397
        22        23        24     1      115.743019      512.655109
        22        23        25     1      122.668297      636.401109
        23        22        38     1      117.997818      442.398243
        23        24        26     1      111.386086      658.282901
        23        24        39     1      108.890160      530.837850
        23        24        40     1      108.890160      530.837850
        24        23        25     1      121.346230      488.000019
        24        26        27     1      112.290085      544.347300
        24        26        41     1      110.495438      480.005372
        24        26        42     1      110.495438      480.005372
        26        24        39     1      109.630104      490.569339
        26        24        40     1      109.630104      490.569339
        27        26        41     1      107.225563      429.226011
        27        26        42     1      107.225563      429.226043
        30         8        31     1      107.761978      356.703940
        30         8        32     1      107.761978      356.703940
        31         8        32     1      107.761978      356.703940
        34        11        35     1      107.744545      358.083008
        34        11        36     1      107.744545      358.083008
        35        11        36     1      107.744545      358.083008
        39        24        40     1      107.353836      358.891225
        41        26        42     1      108.354614      345.182618
        43        20        48     1      114.117599      620.744691
        43        20        51     1      109.159645      511.868789
        43        20        52     1      109.159645      511.868789
        43        21        44     1      110.269958      485.685591
        43        21        45     1      110.269958      485.685591
        44        21        45     1      107.526367      351.331379
        46        43        47     1      106.654663      360.655552
        48        19        49     1      110.306992      482.724339
        48        19        50     1      110.306992      482.724339
        48        20        51     1      109.157410      511.736666
        48        20        52     1      109.157410      511.736666
        49        19        50     1      107.582703      350.774000
        51        20        52     1      106.236450      362.227872
        53        48        54     1      106.671188      360.623982
        55        18        56     1      117.657532      319.610012

[ dihedrals ] ; propers for gromacs 4.5 or higher, use funct 9
;       ai        aj        ak        al funct           phase               k        pn
         1         2         3         4     9        0.000000        0.166663         1
         1         2         3         4     9      180.000000       18.698116         2
         1         2         3         4     9        0.000000       -1.272407         3
         1         2         3         4     9      180.000000       -0.484125         4
         1         2         3        28     9        0.000000       -0.037624         1
         1         2         3        28     9      180.000000       14.991260         2
         1         2         3        28     9        0.000000       -0.391156         3
         1         2         3        28     9      180.000000        0.075339         4
         1         2        11        34     9        0.000000       -0.013266         1
         1         2        11        34     9      180.000000       -0.001659         2
         1         2        11        34     9        0.000000        0.454291         3
         1         2        11        34     9      180.000000        0.029306         4
         1         2        11        35     9        0.000000       -0.013266         1
         1         2        11        35     9      180.000000       -0.001659         2
         1         2        11        35     9        0.000000        0.454291         3
         1         2        11        35     9      180.000000        0.029306         4
         1         2        11        36     9        0.000000       -0.013266         1
         1         2        11        36     9      180.000000       -0.001659         2
         1         2        11        36     9        0.000000        0.454291         3
         1         2        11        36     9      180.000000        0.029306         4
         1         6         5         4     9        0.000000       -0.139646         1
         1         6         5         4     9      180.000000       18.265168         2
         1         6         5         4     9        0.000000       -1.530050         3
         1         6         5         4     9      180.000000       -0.416067         4
         1         6         5         7     9        0.000000       -0.037864         1
         1         6         5         7     9      180.000000       15.574574         2
         1         6         5         7     9        0.000000       -0.344736         3
         1         6         5         7     9      180.000000       -0.466493         4
         1        12        13        14     9        0.000000        0.477813         1
         1        12        13        14     9      180.000000       15.662958         2
         1        12        13        14     9        0.000000        0.000377         3
         1        12        13        14     9      180.000000       -0.608365         4
         1        12        13        37     9        0.000000        0.156245         1
         1        12        13        37     9      180.000000       12.548612         2
         1        12        13        37     9        0.000000       -0.124537         3
         1        12        13        37     9      180.000000        0.115647         4
         1        12        17        16     9        0.000000        0.250767         1
         1        12        17        16     9      180.000000       18.494032         2
         1        12        17        16     9        0.000000        0.334664         3
         1        12        17        16     9      180.000000       -0.712830         4
         2         1         6         5     9        0.000000       -0.020513         1
         2         1         6         5     9      180.000000       17.686439         2
         2         1         6         5     9        0.000000       -1.582523         3
         2         1         6         5     9      180.000000       -0.278597         4
         2         1         6        29     9        0.000000       -0.058501         1
         2         1         6        29     9      180.000000       14.416752         2
         2         1         6        29     9        0.000000       -0.628568         3
         2         1         6        29     9      180.000000        0.142070         4
         2         1        12        13     9        0.000000       -0.023818         1
         2         1        12        13     9      180.000000        4.109353         2
         2         1        12        13     9        0.000000       -0.709102         3
         2         1        12        13     9      180.000000        0.503509         4
         2         1        12        17     9        0.000000       -0.076267         1
         2         1        12        17     9      180.000000        4.566898         2
         2         1        12        17     9        0.000000        0.154988         3
         2         1        12        17     9      180.000000        0.176963         4
         2         3         4         5     9        0.000000       -0.004199         1
         2         3         4         5     9      180.000000       18.809071         2
         2         3         4         5     9        0.000000       -1.420267         3
         2         3         4         5     9      180.000000       -0.479141         4
         2         3         4         8     9        0.000000        0.082342         1
         2         3         4         8     9      180.000000       16.715480         2
         2         3         4         8     9        0.000000       -0.154370         3
         2         3         4         8     9      180.000000       -0.351380         4
         3         2         1         6     9        0.000000       -0.133647         1
         3         2         1         6     9      180.000000       17.206950         2
         3         2         1         6     9        0.000000       -1.018502         3
         3         2         1         6     9      180.000000       -0.339549         4
         3         2         1        12     9        0.000000       -0.067405         1
         3         2         1        12     9      180.000000       14.874725         2
         3         2         1        12     9        0.000000       -0.125943         3
         3         2         1        12     9      180.000000       -0.363357         4
         3         2        11        34     9        0.000000       -0.027914         1
         3         2        11        34     9      180.000000        0.031513         2
         3         2        11        34     9        0.000000        0.126405         3
         3         2        11        34     9      180.000000        0.012154         4
         3         2        11        35     9        0.000000       -0.027914         1
         3         2        11        35     9      180.000000        0.031513         2
         3         2        11        35     9        0.000000        0.126405         3
         3         2        11        35     9      180.000000        0.012154         4
         3         2        11        36     9        0.000000       -0.027914         1
         3         2        11        36     9      180.000000        0.031513         2
         3         2        11        36     9        0.000000        0.126405         3
         3         2        11        36     9      180.000000        0.012154         4
         3         4         5         6     9        0.000000       -0.144594         1
         3         4         5         6     9      180.000000       18.199997         2
         3         4         5         6     9        0.000000       -1.113320         3
         3         4         5         6     9      180.000000       -0.470874         4
         3         4         5         7     9        0.000000        0.191095         1
         3         4         5         7     9      180.000000       14.837597         2
         3         4         5         7     9        0.000000       -0.076443         3
         3         4         5         7     9      180.000000       -0.433766         4
         3         4         8        30     9        0.000000       -0.031839         1
         3         4         8        30     9      180.000000        0.038040         2
         3         4         8        30     9        0.000000        0.030980         3
         3         4         8        30     9      180.000000        0.010991         4
         3         4         8        31     9        0.000000       -0.031839         1
         3         4         8        31     9      180.000000        0.038040         2
         3         4         8        31     9        0.000000        0.030980         3
         3         4         8        31     9      180.000000        0.010991         4
         3         4         8        32     9        0.000000       -0.031839         1
         3         4         8        32     9      180.000000        0.038040         2
         3         4         8        32     9        0.000000        0.030980         3
         3         4         8        32     9      180.000000        0.010991         4
         4         3         2        11     9        0.000000        0.130386         1
         4         3         2        11     9      180.000000       16.668716         2
         4         3         2        11     9        0.000000       -0.122269         3
         4         3         2        11     9      180.000000       -0.348087         4
         4         5         6        29     9        0.000000       -0.002253         1
         4         5         6        29     9      180.000000       14.377857         2
         4         5         6        29     9        0.000000       -0.792212         3
         4         5         6        29     9      180.000000        0.111005         4
         4         5         7         9     9        0.000000       -1.963221         1
         4         5         7         9     9      180.000000        3.225631         2
         4         5         7         9     9        0.000000       -0.455863         3
         4         5         7         9     9      180.000000        0.193557         4
         4         5         7        10     9        0.000000       -0.126039         1
         4         5         7        10     9      180.000000        2.235335         2
         4         5         7        10     9        0.000000       -0.414104         3
         4         5         7        10     9      180.000000       -0.145978         4
         5         4         3        28     9        0.000000       -0.060877         1
         5         4         3        28     9      180.000000       14.515357         2
         5         4         3        28     9        0.000000       -0.332236         3
         5         4         3        28     9      180.000000        0.110439         4
         5         4         8        30     9        0.000000       -0.032311         1
         5         4         8        30     9      180.000000        0.013912         2
         5         4         8        30     9        0.000000        0.014242         3
         5         4         8        30     9      180.000000        0.022775         4
         5         4         8        31     9        0.000000       -0.032311         1
         5         4         8        31     9      180.000000        0.013912         2
         5         4         8        31     9        0.000000        0.014242         3
         5         4         8        31     9      180.000000        0.022775         4
         5         4         8        32     9        0.000000       -0.032311         1
         5         4         8        32     9      180.000000        0.013912         2
         5         4         8        32     9        0.000000        0.014242         3
         5         4         8        32     9      180.000000        0.022775         4
         5         6         1        12     9        0.000000        0.050993         1
         5         6         1        12     9      180.000000       16.147290         2
         5         6         1        12     9        0.000000       -0.356880         3
         5         6         1        12     9      180.000000       -0.366672         4
         5         7        10        19     9        0.000000        2.909342         1
         5         7        10        19     9      180.000000       10.021248         2
         5         7        10        19     9        0.000000        1.542764         3
         5         7        10        19     9      180.000000        0.103095         4
         5         7        10        33     9        0.000000        0.169265         1
         5         7        10        33     9      180.000000        9.568952         2
         5         7        10        33     9        0.000000        0.334721         3
         5         7        10        33     9      180.000000        0.546832         4
         6         1         2        11     9        0.000000        0.119522         1
         6         1         2        11     9      180.000000       14.038135         2
         6         1         2        11     9        0.000000       -0.062763         3
         6         1         2        11     9      180.000000       -0.279476         4
         6         1        12        13     9        0.000000       -0.228784         1
         6         1        12        13     9      180.000000        4.279907         2
         6         1        12        13     9        0.000000        0.342442         3
         6         1        12        13     9      180.000000        0.142263         4
         6         1        12        17     9        0.000000       -0.021556         1
         6         1        12        17     9      180.000000        4.811835         2
         6         1        12        17     9        0.000000       -0.256134         3
         6         1        12        17     9      180.000000        0.307076         4
         6         5         4         8     9        0.000000        0.007151         1
         6         5         4         8     9      180.000000       15.249886         2
         6         5         4         8     9        0.000000       -0.046732         3
         6         5         4         8     9      180.000000       -0.387062         4
         6         5         7         9     9        0.000000        1.565591         1
         6         5         7         9     9      180.000000        3.271157         2
         6         5         7         9     9        0.000000        0.213571         3
         6         5         7         9     9      180.000000        0.114634         4
         6         5         7        10     9        0.000000        0.168515         1
         6         5         7        10     9      180.000000        2.455976         2
         6         5         7        10     9        0.000000        0.587148         3
         6         5         7        10     9      180.000000       -0.416417         4
         7         5         4         8     9        0.000000        0.069306         1
         7         5         4         8     9      180.000000       14.375201         2
         7         5         4         8     9        0.000000        0.138013         3
         7         5         4         8     9      180.000000       -0.535452         4
         7         5         6        29     9        0.000000        0.008530         1
         7         5         6        29     9      180.000000       12.845280         2
         7         5         6        29     9        0.000000       -0.285614         3
         7         5         6        29     9      180.000000        0.136601         4
         7        10        19        48     9        0.000000       -1.136304         1
         7        10        19        48     9      180.000000       -0.206224         2
         7        10        19        48     9        0.000000        0.239314         3
         7        10        19        48     9      180.000000       -0.012043         4
         7        10        19        49     9        0.000000        0.224971         1
         7        10        19        49     9      180.000000        0.058557         2
         7        10        19        49     9        0.000000        0.068603         3
         7        10        19        49     9      180.000000        0.041528         4
         7        10        19        50     9        0.000000        0.224971         1
         7        10        19        50     9      180.000000        0.058557         2
         7        10        19        50     9        0.000000        0.068603         3
         7        10        19        50     9      180.000000        0.041528         4
         8         4         3        28     9        0.000000       -0.146588         1
         8         4         3        28     9      180.000000       13.139541         2
         8         4         3        28     9        0.000000       -0.420017         3
         8         4         3        28     9      180.000000        0.338827         4
         9         7        10        19     9        0.000000       -2.215684         1
         9         7        10        19     9      180.000000        9.047604         2
         9         7        10        19     9        0.000000        0.089806         3
         9         7        10        19     9      180.000000       -0.796041         4
         9         7        10        33     9        0.000000       -0.209865         1
         9         7        10        33     9      180.000000       10.776435         2
         9         7        10        33     9        0.000000        0.149863         3
         9         7        10        33     9      180.000000        0.349266         4
        10        19        48        20     9        0.000000       -0.080298         1
        10        19        48        20     9      180.000000        0.412622         2
        10        19        48        20     9        0.000000        0.434875         3
        10        19        48        20     9      180.000000       -0.018856         4
        10        19        48        53     9        0.000000        0.026590         1
        10        19        48        53     9      180.000000        0.015696         2
        10        19        48        53     9        0.000000        0.577531         3
        10        19        48        53     9      180.000000        0.011375         4
        10        19        48        54     9        0.000000        0.026590         1
        10        19        48        54     9      180.000000        0.015696         2
        10        19        48        54     9        0.000000        0.577531         3
        10        19        48        54     9      180.000000        0.011375         4
        11         2         1        12     9        0.000000       -0.028443         1
        11         2         1        12     9      180.000000       14.530960         2
        11         2         1        12     9        0.000000        0.060700         3
        11         2         1        12     9      180.000000       -0.466857         4
        11         2         3        28     9        0.000000       -0.155266         1
        11         2         3        28     9      180.000000       13.331355         2
        11         2         3        28     9        0.000000       -0.389398         3
        11         2         3        28     9      180.000000        0.284163         4
        12         1         6        29     9        0.000000       -0.218392         1
        12         1         6        29     9      180.000000       12.943008         2
        12         1         6        29     9        0.000000       -0.242899         3
        12         1         6        29     9      180.000000        0.153094         4
        12        13        14        15     9        0.000000       -0.199267         1
        12        13        14        15     9      180.000000       12.485386         2
        12        13        14        15     9        0.000000       -0.023334         3
        12        13        14        15     9      180.000000       -0.325766         4
        12        13        14        27     9        0.000000        0.548007         1
        12        13        14        27     9      180.000000       14.409287         2
        12        13        14        27     9        0.000000        0.288670         3
        12        13        14        27     9      180.000000       -0.758266         4
        12        17        16        15     9        0.000000        0.466401         1
        12        17        16        15     9      180.000000       13.673151         2
        12        17        16        15     9        0.000000        0.547138         3
        12        17        16        15     9      180.000000       -0.690850         4
        12        17        16        18     9        0.000000        1.068805         1
        12        17        16        18     9      180.000000       19.893777         2
        12        17        16        18     9        0.000000        0.340189         3
        12        17        16        18     9      180.000000       -1.144238         4
        13        12        17        16     9        0.000000       -0.404987         1
        13        12        17        16     9      180.000000       17.256785         2
        13        12        17        16     9        0.000000       -1.116290         3
        13        12        17        16     9      180.000000       -0.287775         4
        13        14        15        16     9        0.000000       -0.560101         1
        13        14        15        16     9      180.000000       17.704619         2
        13        14        15        16     9        0.000000       -1.043893         3
        13        14        15        16     9      180.000000       -0.297604         4
        13        14        27        26     9        0.000000       -0.034572         1
        13        14        27        26     9      180.000000        6.731718         2
        13        14        27        26     9        0.000000       -0.784841         3
        13        14        27        26     9      180.000000        0.630267         4
        14        13        12        17     9        0.000000       -0.334143         1
        14        13        12        17     9      180.000000       14.208331         2
        14        13        12        17     9        0.000000       -0.633140         3
        14        13        12        17     9      180.000000       -0.217587         4
        14        15        16        17     9        0.000000        0.292900         1
        14        15        16        17     9      180.000000       12.699044         2
        14        15        16        17     9        0.000000        0.404247         3
        14        15        16        17     9      180.000000       -0.488376         4
        14        15        16        18     9        0.000000        0.808334         1
        14        15        16        18     9      180.000000       19.944734         2
        14        15        16        18     9        0.000000        0.128518         3
        14        15        16        18     9      180.000000       -1.009162         4
        14        27        26        24     9        0.000000       -4.547941         1
        14        27        26        24     9      180.000000       -0.455950         2
        14        27        26        24     9        0.000000        0.270053         3
        14        27        26        24     9      180.000000       -0.076577         4
        14        27        26        41     9        0.000000        0.983167         1
        14        27        26        41     9      180.000000        1.023860         2
        14        27        26        41     9        0.000000       -0.075532         3
        14        27        26        41     9      180.000000        0.293559         4
        14        27        26        42     9        0.000000        0.983167         1
        14        27        26        42     9      180.000000        1.023860         2
        14        27        26        42     9        0.000000       -0.075532         3
        14        27        26        42     9      180.000000        0.293559         4
        15        14        13        37     9        0.000000        0.059009         1
        15        14        13        37     9      180.000000       11.888172         2
        15        14        13        37     9        0.000000       -0.197144         3
        15        14        13        37     9      180.000000       -0.088667         4
        15        14        27        26     9        0.000000        0.200727         1
        15        14        27        26     9      180.000000        7.843223         2
        15        14        27        26     9        0.000000        0.716070         3
        15        14        27        26     9      180.000000        0.307484         4
        15        16        18        55     9        0.000000        2.453200         1
        15        16        18        55     9      180.000000        8.309334         2
        15        16        18        55     9        0.000000       -0.018034         3
        15        16        18        55     9      180.000000       -0.626405         4
        15        16        18        56     9        0.000000        2.453200         1
        15        16        18        56     9      180.000000        8.309334         2
        15        16        18        56     9        0.000000       -0.018034         3
        15        16        18        56     9      180.000000       -0.626405         4
        16        15        14        27     9        0.000000        0.569054         1
        16        15        14        27     9      180.000000       21.001815         2
        16        15        14        27     9        0.000000        0.389141         3
        16        15        14        27     9      180.000000       -0.694301         4
        17        12        13        37     9        0.000000        0.021766         1
        17        12        13        37     9      180.000000       13.459892         2
        17        12        13        37     9        0.000000       -0.197923         3
        17        12        13        37     9      180.000000       -0.076495         4
        17        16        18        55     9        0.000000        1.793135         1
        17        16        18        55     9      180.000000        8.198480         2
        17        16        18        55     9        0.000000       -0.144712         3
        17        16        18        55     9      180.000000       -0.735195         4
        17        16        18        56     9        0.000000        1.793135         1
        17        16        18        56     9      180.000000        8.198480         2
        17        16        18        56     9        0.000000       -0.144712         3
        17        16        18        56     9      180.000000       -0.735195         4
        19        48        20        43     9        0.000000        0.763375         1
        19        48        20        43     9      180.000000       -0.159338         2
        19        48        20        43     9        0.000000        0.471964         3
        19        48        20        43     9      180.000000       -0.034166         4
        19        48        20        51     9        0.000000       -0.249256         1
        19        48        20        51     9      180.000000        0.093081         2
        19        48        20        51     9        0.000000        0.512404         3
        19        48        20        51     9      180.000000        0.047304         4
        19        48        20        52     9        0.000000       -0.249256         1
        19        48        20        52     9      180.000000        0.093081         2
        19        48        20        52     9        0.000000        0.512404         3
        19        48        20        52     9      180.000000        0.047304         4
        20        43        21        22     9        0.000000        0.002448         1
        20        43        21        22     9      180.000000        0.374813         2
        20        43        21        22     9        0.000000        0.451993         3
        20        43        21        22     9      180.000000       -0.018856         4
        20        43        21        44     9        0.000000       -0.048545         1
        20        43        21        44     9      180.000000        0.037485         2
        20        43        21        44     9        0.000000        0.601910         3
        20        43        21        44     9      180.000000        0.061973         4
        20        43        21        45     9        0.000000       -0.048545         1
        20        43        21        45     9      180.000000        0.037485         2
        20        43        21        45     9        0.000000        0.601910         3
        20        43        21        45     9      180.000000        0.061973         4
        20        48        19        49     9        0.000000       -0.007084         1
        20        48        19        49     9      180.000000        0.036099         2
        20        48        19        49     9        0.000000        0.604845         3
        20        48        19        49     9      180.000000        0.062550         4
        20        48        19        50     9        0.000000       -0.007084         1
        20        48        19        50     9      180.000000        0.036099         2
        20        48        19        50     9        0.000000        0.604845         3
        20        48        19        50     9      180.000000        0.062550         4
        21        22        23        24     9        0.000000        3.422168         1
        21        22        23        24     9      180.000000        9.963973         2
        21        22        23        24     9        0.000000        1.403875         3
        21        22        23        24     9      180.000000       -0.427914         4
        21        22        23        25     9        0.000000       -0.857950         1
        21        22        23        25     9      180.000000       10.864013         2
        21        22        23        25     9        0.000000        0.035149         3
        21        22        23        25     9      180.000000       -1.099237         4
        21        43        20        48     9        0.000000        0.792033         1
        21        43        20        48     9      180.000000       -0.168314         2
        21        43        20        48     9        0.000000        0.474796         3
        21        43        20        48     9      180.000000       -0.035477         4
        21        43        20        51     9        0.000000       -0.235630         1
        21        43        20        51     9      180.000000        0.097650         2
        21        43        20        51     9        0.000000        0.511466         3
        21        43        20        51     9      180.000000        0.047237         4
        21        43        20        52     9        0.000000       -0.235630         1
        21        43        20        52     9      180.000000        0.097650         2
        21        43        20        52     9        0.000000        0.511466         3
        21        43        20        52     9      180.000000        0.047237         4
        22        21        43        46     9        0.000000        0.021088         1
        22        21        43        46     9      180.000000        0.035605         2
        22        21        43        46     9        0.000000        0.593549         3
        22        21        43        46     9      180.000000        0.008956         4
        22        21        43        47     9        0.000000        0.021088         1
        22        21        43        47     9      180.000000        0.035605         2
        22        21        43        47     9        0.000000        0.593549         3
        22        21        43        47     9      180.000000        0.008956         4
        22        23        24        26     9        0.000000        1.222118         1
        22        23        24        26     9      180.000000        1.809016         2
        22        23        24        26     9        0.000000       -0.316882         3
        22        23        24        26     9      180.000000        0.109609         4
        22        23        24        39     9        0.000000       -0.247915         1
        22        23        24        39     9      180.000000       -0.114351         2
        22        23        24        39     9        0.000000       -0.222495         3
        22        23        24        39     9      180.000000        0.085127         4
        22        23        24        40     9        0.000000       -0.247915         1
        22        23        24        40     9      180.000000       -0.114351         2
        22        23        24        40     9        0.000000       -0.222495         3
        22        23        24        40     9      180.000000        0.085127         4
        23        22        21        43     9        0.000000       -0.963974         1
        23        22        21        43     9      180.000000       -0.202962         2
        23        22        21        43     9        0.000000        0.228380         3
        23        22        21        43     9      180.000000        0.012185         4
        23        22        21        44     9        0.000000        0.274985         1
        23        22        21        44     9      180.000000       -0.005133         2
        23        22        21        44     9        0.000000        0.130815         3
        23        22        21        44     9      180.000000        0.029356         4
        23        22        21        45     9        0.000000        0.274985         1
        23        22        21        45     9      180.000000       -0.005133         2
        23        22        21        45     9        0.000000        0.130815         3
        23        22        21        45     9      180.000000        0.029356         4
        23        24        26        27     9        0.000000       -5.156723         1
        23        24        26        27     9      180.000000        0.251167         2
        23        24        26        27     9        0.000000        0.148093         3
        23        24        26        27     9      180.000000       -0.053187         4
        23        24        26        41     9        0.000000        0.520386         1
        23        24        26        41     9      180.000000        0.188529         2
        23        24        26        41     9        0.000000        0.440833         3
        23        24        26        41     9      180.000000       -0.013335         4
        23        24        26        42     9        0.000000        0.520386         1
        23        24        26        42     9      180.000000        0.188529         2
        23        24        26        42     9        0.000000        0.440833         3
        23        24        26        42     9      180.000000       -0.013335         4
        24        23        22        38     9        0.000000        0.116120         1
        24        23        22        38     9      180.000000       10.762882         2
        24        23        22        38     9        0.000000       -0.373908         3
        24        23        22        38     9      180.000000        0.716768         4
        25        23        22        38     9        0.000000       -0.112650         1
        25        23        22        38     9      180.000000       11.994731         2
        25        23        22        38     9        0.000000        0.199712         3
        25        23        22        38     9      180.000000        1.314663         4
        25        23        24        26     9        0.000000       -0.929424         1
        25        23        24        26     9      180.000000        1.126435         2
        25        23        24        26     9        0.000000       -0.137197         3
        25        23        24        26     9      180.000000        0.106239         4
        25        23        24        39     9        0.000000        0.135637         1
        25        23        24        39     9      180.000000        0.023534         2
        25        23        24        39     9        0.000000       -0.026392         3
        25        23        24        39     9      180.000000        0.055029         4
        25        23        24        40     9        0.000000        0.135637         1
        25        23        24        40     9      180.000000        0.023534         2
        25        23        24        40     9        0.000000       -0.026392         3
        25        23        24        40     9      180.000000        0.055029         4
        27        14        13        37     9        0.000000        0.069290         1
        27        14        13        37     9      180.000000       11.666007         2
        27        14        13        37     9        0.000000        0.025720         3
        27        14        13        37     9      180.000000       -0.072853         4
        27        26        24        39     9        0.000000        0.202445         1
        27        26        24        39     9      180.000000       -0.303923         2
        27        26        24        39     9        0.000000        0.639911         3
        27        26        24        39     9      180.000000        0.061784         4
        27        26        24        40     9        0.000000        0.202445         1
        27        26        24        40     9      180.000000       -0.303923         2
        27        26        24        40     9        0.000000        0.639911         3
        27        26        24        40     9      180.000000        0.061784         4
        33        10        19        48     9        0.000000        0.680726         1
        33        10        19        48     9      180.000000       -0.950544         2
        33        10        19        48     9        0.000000        0.277268         3
        33        10        19        48     9      180.000000       -0.099198         4
        33        10        19        49     9        0.000000       -0.058558         1
        33        10        19        49     9      180.000000        0.244910         2
        33        10        19        49     9        0.000000        0.366857         3
        33        10        19        49     9      180.000000        0.099171         4
        33        10        19        50     9        0.000000       -0.058558         1
        33        10        19        50     9      180.000000        0.244910         2
        33        10        19        50     9        0.000000        0.366857         3
        33        10        19        50     9      180.000000        0.099171         4
        38        22        21        43     9        0.000000        0.581538         1
        38        22        21        43     9      180.000000       -1.080963         2
        38        22        21        43     9        0.000000        0.240179         3
        38        22        21        43     9      180.000000       -0.078856         4
        38        22        21        44     9        0.000000       -0.001289         1
        38        22        21        44     9      180.000000        0.227347         2
        38        22        21        44     9        0.000000        0.330911         3
        38        22        21        44     9      180.000000        0.120694         4
        38        22        21        45     9        0.000000       -0.001289         1
        38        22        21        45     9      180.000000        0.227347         2
        38        22        21        45     9        0.000000        0.330911         3
        38        22        21        45     9      180.000000        0.120694         4
        39        24        26        41     9        0.000000       -0.130454         1
        39        24        26        41     9      180.000000        0.148320         2
        39        24        26        41     9        0.000000        0.598147         3
        39        24        26        41     9      180.000000       -0.030022         4
        39        24        26        42     9        0.000000       -0.130454         1
        39        24        26        42     9      180.000000        0.148320         2
        39        24        26        42     9        0.000000        0.598147         3
        39        24        26        42     9      180.000000       -0.030022         4
        40        24        26        41     9        0.000000       -0.130454         1
        40        24        26        41     9      180.000000        0.148320         2
        40        24        26        41     9        0.000000        0.598147         3
        40        24        26        41     9      180.000000       -0.030022         4
        40        24        26        42     9        0.000000       -0.130454         1
        40        24        26        42     9      180.000000        0.148320         2
        40        24        26        42     9        0.000000        0.598147         3
        40        24        26        42     9      180.000000       -0.030022         4
        43        20        48        53     9        0.000000       -0.249303         1
        43        20        48        53     9      180.000000        0.089365         2
        43        20        48        53     9        0.000000        0.529729         3
        43        20        48        53     9      180.000000        0.046267         4
        43        20        48        54     9        0.000000       -0.249303         1
        43        20        48        54     9      180.000000        0.089365         2
        43        20        48        54     9        0.000000        0.529729         3
        43        20        48        54     9      180.000000        0.046267         4
        44        21        43        46     9        0.000000       -0.008387         1
        44        21        43        46     9      180.000000        0.022014         2
        44        21        43        46     9        0.000000        0.648577         3
        44        21        43        46     9      180.000000       -0.033664         4
        44        21        43        47     9        0.000000       -0.008387         1
        44        21        43        47     9      180.000000        0.022014         2
        44        21        43        47     9        0.000000        0.648577         3
        44        21        43        47     9      180.000000       -0.033664         4
        45        21        43        46     9        0.000000       -0.008387         1
        45        21        43        46     9      180.000000        0.022014         2
        45        21        43        46     9        0.000000        0.648577         3
        45        21        43        46     9      180.000000       -0.033664         4
        45        21        43        47     9        0.000000       -0.008387         1
        45        21        43        47     9      180.000000        0.022014         2
        45        21        43        47     9        0.000000        0.648577         3
        45        21        43        47     9      180.000000       -0.033664         4
        46        43        20        48     9        0.000000       -0.253833         1
        46        43        20        48     9      180.000000        0.092476         2
        46        43        20        48     9        0.000000        0.530802         3
        46        43        20        48     9      180.000000        0.047421         4
        46        43        20        51     9        0.000000        0.147682         1
        46        43        20        51     9      180.000000       -0.037873         2
        46        43        20        51     9        0.000000        0.578614         3
        46        43        20        51     9      180.000000       -0.036444         4
        46        43        20        52     9        0.000000        0.147682         1
        46        43        20        52     9      180.000000       -0.037873         2
        46        43        20        52     9        0.000000        0.578614         3
        46        43        20        52     9      180.000000       -0.036444         4
        47        43        20        48     9        0.000000       -0.253833         1
        47        43        20        48     9      180.000000        0.092476         2
        47        43        20        48     9        0.000000        0.530802         3
        47        43        20        48     9      180.000000        0.047421         4
        47        43        20        51     9        0.000000        0.147682         1
        47        43        20        51     9      180.000000       -0.037873         2
        47        43        20        51     9        0.000000        0.578614         3
        47        43        20        51     9      180.000000       -0.036444         4
        47        43        20        52     9        0.000000        0.147682         1
        47        43        20        52     9      180.000000       -0.037873         2
        47        43        20        52     9        0.000000        0.578614         3
        47        43        20        52     9      180.000000       -0.036444         4
        49        19        48        53     9        0.000000       -0.011400         1
        49        19        48        53     9      180.000000        0.026467         2
        49        19        48        53     9        0.000000        0.648599         3
        49        19        48        53     9      180.000000       -0.028980         4
        49        19        48        54     9        0.000000       -0.011400         1
        49        19        48        54     9      180.000000        0.026467         2
        49        19        48        54     9        0.000000        0.648599         3
        49        19        48        54     9      180.000000       -0.028980         4
        50        19        48        53     9        0.000000       -0.011400         1
        50        19        48        53     9      180.000000        0.026467         2
        50        19        48        53     9        0.000000        0.648599         3
        50        19        48        53     9      180.000000       -0.028980         4
        50        19        48        54     9        0.000000       -0.011400         1
        50        19        48        54     9      180.000000        0.026467         2
        50        19        48        54     9        0.000000        0.648599         3
        50        19        48        54     9      180.000000       -0.028980         4
        51        20        48        53     9        0.000000        0.151576         1
        51        20        48        53     9      180.000000       -0.037493         2
        51        20        48        53     9        0.000000        0.578457         3
        51        20        48        53     9      180.000000       -0.036161         4
        51        20        48        54     9        0.000000        0.151576         1
        51        20        48        54     9      180.000000       -0.037493         2
        51        20        48        54     9        0.000000        0.578457         3
        51        20        48        54     9      180.000000       -0.036161         4
        52        20        48        53     9        0.000000        0.151576         1
        52        20        48        53     9      180.000000       -0.037493         2
        52        20        48        53     9        0.000000        0.578457         3
        52        20        48        53     9      180.000000       -0.036161         4
        52        20        48        54     9        0.000000        0.151576         1
        52        20        48        54     9      180.000000       -0.037493         2
        52        20        48        54     9        0.000000        0.578457         3
        52        20        48        54     9      180.000000       -0.036161         4

[ dihedrals ] ; impropers
;       ai        aj        ak        al funct           phase               k        pn
         7         5         9        10     4      180.000000       19.323306         2
         7         9        10         5     4      180.000000       19.323306         2
         7        10         5         9     4      180.000000       19.323306         2
        12         1        13        17     4      180.000000        4.387668         2
        12        13        17         1     4      180.000000        4.387668         2
        12        17         1        13     4      180.000000        4.387668         2
        14        13        15        27     4      180.000000       10.159652         2
        14        15        27        13     4      180.000000       10.159652         2
        14        27        13        15     4      180.000000       10.159652         2
        16        15        17        18     4      180.000000        7.353811         2
        16        17        18        15     4      180.000000        7.353811         2
        16        18        15        17     4      180.000000        7.353811         2
        23        22        24        25     4      180.000000       17.957457         2
        23        24        25        22     4      180.000000       17.957457         2
        23        25        22        24     4      180.000000       17.957457         2

[ pairs ]
;       ai        aj funct
         1         4     1
         1         7     1
         1        14     1
         1        16     1
         1        28     1
         1        34     1
         1        35     1
         1        36     1
         1        37     1
         2         5     1
         2         8     1
         2        13     1
         2        17     1
         2        29     1
         3         6     1
         3         7     1
         3        12     1
         3        30     1
         3        31     1
         3        32     1
         3        34     1
         3        35     1
         3        36     1
         4         9     1
         4        10     1
         4        11     1
         4        29     1
         5        12     1
         5        19     1
         5        28     1
         5        30     1
         5        31     1
         5        32     1
         5        33     1
         6         8     1
         6         9     1
         6        10     1
         6        11     1
         6        13     1
         6        17     1
         7         8     1
         7        29     1
         7        48     1
         7        49     1
         7        50     1
         8        28     1
         9        19     1
         9        33     1
        10        20     1
        10        53     1
        10        54     1
        11        12     1
        11        28     1
        12        15     1
        12        18     1
        12        27     1
        12        29     1
        13        16     1
        13        26     1
        14        17     1
        14        18     1
        14        24     1
        14        41     1
        14        42     1
        15        26     1
        15        37     1
        15        55     1
        15        56     1
        16        27     1
        17        37     1
        17        55     1
        17        56     1
        19        43     1
        19        51     1
        19        52     1
        20        22     1
        20        44     1
        20        45     1
        20        49     1
        20        50     1
        21        24     1
        21        25     1
        21        48     1
        21        51     1
        21        52     1
        22        26     1
        22        39     1
        22        40     1
        22        46     1
        22        47     1
        23        27     1
        23        41     1
        23        42     1
        23        43     1
        23        44     1
        23        45     1
        24        38     1
        25        26     1
        25        38     1
        25        39     1
        25        40     1
        27        37     1
        27        39     1
        27        40     1
        33        48     1
        33        49     1
        33        50     1
        38        43     1
        38        44     1
        38        45     1
        39        41     1
        39        42     1
        40        41     1
        40        42     1
        43        53     1
        43        54     1
        44        46     1
        44        47     1
        45        46     1
        45        47     1
        46        48     1
        46        51     1
        46        52     1
        47        48     1
        47        51     1
        47        52     1
        49        53     1
        49        54     1
        50        53     1
        50        54     1
        51        53     1
        51        54     1
        52        53     1
        52        54     1
