; ITP file created by ByteFF-ML, 2025-12-06 06:51:02.745584

[ atomtypes ]
;name           bonded.type        at.num        mass        charge   ptype           sigma         epsilon
 c0bf                                   6      0.0000       0.00000       A     3.31588e-01     4.12078e-01
 c1bf                                   6      0.0000       0.00000       A     3.31440e-01     4.09505e-01
 c2bf                                   6      0.0000       0.00000       A     3.31555e-01     4.13433e-01
 c3bf                                   6      0.0000       0.00000       A     3.39784e-01     4.51148e-01
 c4bf                                   6      0.0000       0.00000       A     3.31460e-01     4.13125e-01
 c5bf                                   6      0.0000       0.00000       A     3.31553e-01     4.11602e-01
 c6bf                                   6      0.0000       0.00000       A     3.31376e-01     4.13050e-01
 o7bf                                   8      0.0000       0.00000       A     3.15866e-01     3.05416e-01
 c8bf                                   6      0.0000       0.00000       A     3.39731e-01     4.50834e-01
 c9bf                                   6      0.0000       0.00000       A     3.39731e-01     4.50834e-01
 o10bf                                  8      0.0000       0.00000       A     3.15865e-01     3.05496e-01
 c11bf                                  6      0.0000       0.00000       A     3.31403e-01     4.13527e-01
 c12bf                                  6      0.0000       0.00000       A     3.31403e-01     4.13824e-01
 c13bf                                  6      0.0000       0.00000       A     3.31606e-01     4.11902e-01
 c14bf                                  6      0.0000       0.00000       A     3.31532e-01     4.13858e-01
 c15bf                                  6      0.0000       0.00000       A     3.31307e-01     4.13197e-01
 c16bf                                  6      0.0000       0.00000       A     3.31488e-01     4.13475e-01
 s17bf                                 16      0.0000       0.00000       A     3.53445e-01     1.17795e+00
 c18bf                                  6      0.0000       0.00000       A     3.31539e-01     4.15647e-01
 n19bf                                  7      0.0000       0.00000       A     3.38419e-01     3.93030e-01
 c20bf                                  6      0.0000       0.00000       A     3.31393e-01     4.17203e-01
 c21bf                                  6      0.0000       0.00000       A     3.31463e-01     4.12330e-01
 n22bf                                  7      0.0000       0.00000       A     3.38513e-01     3.89190e-01
 c23bf                                  6      0.0000       0.00000       A     3.31328e-01     4.14640e-01
 n24bf                                  7      0.0000       0.00000       A     3.36757e-01     4.72523e-01
 h25bf                                  1      0.0000       0.00000       A     2.62563e-01     6.74004e-02
 h26bf                                  1      0.0000       0.00000       A     2.60028e-01     8.72826e-02
 h27bf                                  1      0.0000       0.00000       A     2.60028e-01     8.72826e-02
 h28bf                                  1      0.0000       0.00000       A     2.60028e-01     8.72826e-02
 h29bf                                  1      0.0000       0.00000       A     2.62477e-01     6.74132e-02
 h30bf                                  1      0.0000       0.00000       A     2.62438e-01     6.69312e-02
 h31bf                                  1      0.0000       0.00000       A     2.62469e-01     6.73733e-02
 h32bf                                  1      0.0000       0.00000       A     2.62446e-01     6.69008e-02
 h33bf                                  1      0.0000       0.00000       A     2.62562e-01     6.73334e-02
 h34bf                                  1      0.0000       0.00000       A     2.62558e-01     6.78026e-02
 h35bf                                  1      0.0000       0.00000       A     2.62441e-01     6.73876e-02
 h36bf                                  1      0.0000       0.00000       A     1.10073e-01     4.24538e-02
 h37bf                                  1      0.0000       0.00000       A     1.10073e-01     4.24538e-02
 c38bf                                  6      0.0000       0.00000       A     3.39880e-01     4.50321e-01
 h39bf                                  1      0.0000       0.00000       A     2.42081e-01     8.76785e-02
 h40bf                                  1      0.0000       0.00000       A     2.42081e-01     8.76785e-02
 h41bf                                  1      0.0000       0.00000       A     2.42081e-01     8.76785e-02
 h42bf                                  1      0.0000       0.00000       A     2.42081e-01     8.76785e-02
 h43bf                                  1      0.0000       0.00000       A     2.60095e-01     8.65708e-02
 h44bf                                  1      0.0000       0.00000       A     2.60095e-01     8.65708e-02

[ moleculetype ]
;name             nrexcl
 7                     3

[ atoms ]
;       nr            type      resi   res      atom      cgnr      charge          mass ; qtot
         1            c0bf         1   UNL        c0         1    -0.13214       12.0110 ; qtot   -0.132
         2            c1bf         1   UNL        c1         2    -0.12973       12.0110 ; qtot   -0.262
         3            c2bf         1   UNL        c2         3    -0.06160       12.0110 ; qtot   -0.323
         4            c3bf         1   UNL        c3         4    -0.04992       12.0110 ; qtot   -0.373
         5            c4bf         1   UNL        c4         5    -0.08923       12.0110 ; qtot   -0.463
         6            c5bf         1   UNL        c5         6    -0.15656       12.0110 ; qtot   -0.619
         7            c6bf         1   UNL        c6         7     0.12756       12.0110 ; qtot   -0.492
         8            o7bf         1   UNL        o7         8    -0.35233       15.9990 ; qtot   -0.844
         9            c8bf         1   UNL        c8         9     0.16537       12.0110 ; qtot   -0.679
        10            c9bf         1   UNL        c9        10     0.16542       12.0110 ; qtot   -0.513
        11           o10bf         1   UNL       o10        11    -0.35352       15.9990 ; qtot   -0.867
        12           c11bf         1   UNL       c11        12     0.13239       12.0110 ; qtot   -0.734
        13           c12bf         1   UNL       c12        13    -0.11895       12.0110 ; qtot   -0.853
        14           c13bf         1   UNL       c13        14    -0.15881       12.0110 ; qtot   -1.012
        15           c14bf         1   UNL       c14        15    -0.08330       12.0110 ; qtot   -1.095
        16           c15bf         1   UNL       c15        16    -0.09022       12.0110 ; qtot   -1.186
        17           c16bf         1   UNL       c16        17    -0.10440       12.0110 ; qtot   -1.290
        18           s17bf         1   UNL       s17        18    -0.15145       32.0670 ; qtot   -1.441
        19           c18bf         1   UNL       c18        19     0.25971       12.0110 ; qtot   -1.182
        20           n19bf         1   UNL       n19        20    -0.23919       14.0070 ; qtot   -1.421
        21           c20bf         1   UNL       c20        21    -0.21246       12.0110 ; qtot   -1.633
        22           c21bf         1   UNL       c21        22     0.21553       12.0110 ; qtot   -1.418
        23           n22bf         1   UNL       n22        23    -0.24910       14.0070 ; qtot   -1.667
        24           c23bf         1   UNL       c23        24     0.36459       12.0110 ; qtot   -1.302
        25           n24bf         1   UNL       n24        25    -1.02776       14.0070 ; qtot   -2.330
        26           h25bf         1   UNL       h25        26     0.13167        1.0080 ; qtot   -2.198
        27           h26bf         1   UNL       h26        27     0.04898        1.0080 ; qtot   -2.149
        28           h27bf         1   UNL       h27        28     0.04898        1.0080 ; qtot   -2.100
        29           h28bf         1   UNL       h28        29     0.04898        1.0080 ; qtot   -2.051
        30           h29bf         1   UNL       h29        30     0.11342        1.0080 ; qtot   -1.938
        31           h30bf         1   UNL       h30        31     0.12471        1.0080 ; qtot   -1.813
        32           h31bf         1   UNL       h31        32     0.13641        1.0080 ; qtot   -1.677
        33           h32bf         1   UNL       h32        33     0.12565        1.0080 ; qtot   -1.551
        34           h33bf         1   UNL       h33        34     0.12066        1.0080 ; qtot   -1.431
        35           h34bf         1   UNL       h34        35     0.12923        1.0080 ; qtot   -1.301
        36           h35bf         1   UNL       h35        36     0.14755        1.0080 ; qtot   -1.154
        37           h36bf         1   UNL       h36        37     0.47675        1.0080 ; qtot   -0.677
        38           h37bf         1   UNL       h37        38     0.47675        1.0080 ; qtot   -0.200
        39           c38bf         1   UNL       c38        39    -0.10400       12.0110 ; qtot   -0.304
        40           h39bf         1   UNL       h39        40     0.04467        1.0080 ; qtot   -0.260
        41           h40bf         1   UNL       h40        41     0.04467        1.0080 ; qtot   -0.215
        42           h41bf         1   UNL       h41        42     0.04467        1.0080 ; qtot   -0.170
        43           h42bf         1   UNL       h42        43     0.04467        1.0080 ; qtot   -0.126
        44           h43bf         1   UNL       h43        44     0.06285        1.0080 ; qtot   -0.063
        45           h44bf         1   UNL       h44        45     0.06283        1.0080 ; qtot   -0.000

[ bonds ]
;       ai        aj funct               r               k
         1         2     1        0.140319   293642.155029
         1         7     1        0.139920   294046.535156
         1        26     1        0.108366   323859.220605
         2         3     1        0.141353   257800.949707
         2        22     1        0.148758   204546.244873
         3         4     1        0.151265   201008.040063
         3         5     1        0.140174   294322.182715
         4        27     1        0.109334   301828.024365
         4        28     1        0.109334   301828.024365
         4        29     1        0.109334   301828.024365
         5         6     1        0.139614   318591.655518
         5        30     1        0.108708   314692.087842
         6         7     1        0.140124   290072.016064
         6        31     1        0.108420   323431.831543
         7         8     1        0.136935   265830.199951
         8         9     1        0.143295   187810.295947
         9        39     1        0.152519   192338.842627
         9        42     1        0.109669   290247.787988
         9        43     1        0.109669   290247.787988
        10        11     1        0.143300   187812.811353
        10        39     1        0.152519   192338.842627
        10        40     1        0.109669   290247.813525
        10        41     1        0.109669   290247.813525
        11        12     1        0.136759   268188.935059
        12        13     1        0.140203   287679.648584
        12        14     1        0.140325   287499.637500
        13        17     1        0.139909   299985.930518
        13        32     1        0.108363   324883.054395
        14        15     1        0.139719   314785.706885
        14        33     1        0.108392   324261.915283
        15        16     1        0.139646   310323.173633
        15        34     1        0.108610   320095.612500
        16        17     1        0.139967   297505.128027
        16        35     1        0.108495   322485.221973
        17        18     1        0.179342   136782.452588
        18        19     1        0.178971   129762.045850
        19        20     1        0.133190   321995.037158
        19        21     1        0.139841   287963.748926
        20        24     1        0.134663   267665.220020
        21        22     1        0.139799   289928.191064
        21        36     1        0.108175   330231.367822
        22        23     1        0.134152   311197.615332
        23        24     1        0.134264   274234.615869
        24        25     1        0.137194   320073.548438
        25        37     1        0.101085   429215.067969
        25        38     1        0.101085   429215.067969
        39        44     1        0.109476   298798.301709
        39        45     1        0.109476   298798.301709

[ angles ]
;       ai        aj        ak funct           theta             cth
         1         2         3     1      120.193420      643.888654
         1         2        22     1      117.265366      513.889189
         1         7         6     1      119.263687      613.448228
         1         7         8     1      119.010147      517.921690
         2         1         7     1      120.980568      708.671257
         2         1        26     1      119.307579      406.581362
         2         3         4     1      123.314186      459.718277
         2         3         5     1      117.413940      678.781858
         2        22        21     1      121.517349      457.053033
         2        22        23     1      117.073631      477.840750
         3         2        22     1      122.559105      497.744756
         3         4        27     1      111.228416      480.398132
         3         4        28     1      111.228416      480.398132
         3         4        29     1      111.228416      480.398132
         3         5         6     1      122.572105      677.527475
         3         5        30     1      118.881020      402.423665
         4         3         5     1      119.337723      486.529113
         5         6         7     1      119.325577      734.017221
         5         6        31     1      120.225906      428.770205
         6         5        30     1      118.707787      437.824643
         6         7         8     1      121.462341      561.056167
         7         1        26     1      119.635452      429.807746
         7         6        31     1      120.355370      435.873607
         7         8         9     1      118.677635      530.787861
         8         9        39     1      109.453796      615.898322
         8         9        42     1      108.884842      459.044927
         8         9        43     1      108.884842      459.044927
         9        39        10     1      112.367477      626.305652
         9        39        44     1      109.126999      508.219983
         9        39        45     1      109.126999      508.219983
        10        11        12     1      118.646484      526.923617
        10        39        44     1      109.126999      508.219983
        10        39        45     1      109.126999      508.219983
        11        10        39     1      109.440262      616.685886
        11        10        40     1      108.891930      458.917273
        11        10        41     1      108.891930      458.917273
        11        12        13     1      118.702248      533.591931
        11        12        14     1      120.921646      551.778599
        12        13        17     1      119.874611      696.955150
        12        13        32     1      120.030128      408.591037
        12        14        15     1      119.417557      749.775277
        12        14        33     1      120.162071      433.219887
        13        12        14     1      119.845322      622.312988
        13        17        16     1      120.551956      674.771255
        13        17        18     1      119.219376      367.831129
        14        15        16     1      120.952904      688.614028
        14        15        34     1      119.405495      419.754424
        15        14        33     1      120.406517      426.367131
        15        16        17     1      118.955215      615.777212
        15        16        35     1      120.835861      421.072682
        16        15        34     1      119.636429      427.991355
        16        17        18     1      119.938011      384.872393
        17        13        32     1      120.120056      371.375584
        17        16        35     1      120.102478      378.278967
        17        18        19     1      102.187088      778.209891
        18        19        20     1      116.492393      415.073345
        18        19        21     1      119.850266      383.024496
        19        20        24     1      115.883568      932.098236
        19        21        22     1      116.314377      867.787048
        19        21        36     1      121.690735      421.371466
        20        19        21     1      122.878990      710.508460
        20        24        23     1      126.730873      655.106404
        20        24        25     1      116.218163      600.142308
        21        22        23     1      121.380699      702.004539
        22        21        36     1      121.976685      409.236870
        22        23        24     1      116.635681      948.345264
        23        24        25     1      116.465744      588.109733
        24        25        37     1      116.052841      472.399558
        24        25        38     1      116.052841      472.399558
        27         4        28     1      107.742676      357.430024
        27         4        29     1      107.742676      357.430024
        28         4        29     1      107.742676      357.430024
        37        25        38     1      117.657532      319.610012
        39         9        42     1      110.657700      490.402231
        39         9        43     1      110.657700      490.402231
        39        10        40     1      110.657700      490.402231
        39        10        41     1      110.657700      490.402231
        40        10        41     1      107.966736      344.449639
        42         9        43     1      107.966736      344.449671
        44        39        45     1      107.300598      359.428175

[ dihedrals ] ; propers for gromacs 4.5 or higher, use funct 9
;       ai        aj        ak        al funct           phase               k        pn
         1         2         3         4     9        0.000000        0.005007         1
         1         2         3         4     9      180.000000       15.144403         2
         1         2         3         4     9        0.000000       -0.130943         3
         1         2         3         4     9      180.000000       -0.323039         4
         1         2         3         5     9        0.000000       -0.124923         1
         1         2         3         5     9      180.000000       18.125726         2
         1         2         3         5     9        0.000000       -1.181013         3
         1         2         3         5     9      180.000000       -0.417514         4
         1         2        22        21     9        0.000000       -0.035118         1
         1         2        22        21     9      180.000000        4.188454         2
         1         2        22        21     9        0.000000        0.171424         3
         1         2        22        21     9      180.000000        0.196097         4
         1         2        22        23     9        0.000000       -0.561197         1
         1         2        22        23     9      180.000000        4.778951         2
         1         2        22        23     9        0.000000       -0.348679         3
         1         2        22        23     9      180.000000        0.319580         4
         1         7         6         5     9        0.000000       -0.072262         1
         1         7         6         5     9      180.000000       15.859289         2
         1         7         6         5     9        0.000000       -0.924810         3
         1         7         6         5     9      180.000000       -0.226304         4
         1         7         6        31     9        0.000000        0.034676         1
         1         7         6        31     9      180.000000       12.525758         2
         1         7         6        31     9        0.000000       -0.465187         3
         1         7         6        31     9      180.000000        0.105029         4
         1         7         8         9     9        0.000000       -0.755727         1
         1         7         8         9     9      180.000000        5.028886         2
         1         7         8         9     9        0.000000        0.096498         3
         1         7         8         9     9      180.000000        0.342666         4
         2         1         7         6     9        0.000000       -0.083841         1
         2         1         7         6     9      180.000000       16.092539         2
         2         1         7         6     9        0.000000       -0.928017         3
         2         1         7         6     9      180.000000       -0.295624         4
         2         1         7         8     9        0.000000        0.257039         1
         2         1         7         8     9      180.000000       17.099393         2
         2         1         7         8     9        0.000000        0.106889         3
         2         1         7         8     9      180.000000       -0.291930         4
         2         3         4        27     9        0.000000        0.000632         1
         2         3         4        27     9      180.000000        0.000538         2
         2         3         4        27     9        0.000000        0.507151         3
         2         3         4        27     9      180.000000        0.034673         4
         2         3         4        28     9        0.000000        0.000632         1
         2         3         4        28     9      180.000000        0.000538         2
         2         3         4        28     9        0.000000        0.507151         3
         2         3         4        28     9      180.000000        0.034673         4
         2         3         4        29     9        0.000000        0.000632         1
         2         3         4        29     9      180.000000        0.000538         2
         2         3         4        29     9        0.000000        0.507151         3
         2         3         4        29     9      180.000000        0.034673         4
         2         3         5         6     9        0.000000        0.228344         1
         2         3         5         6     9      180.000000       19.612420         2
         2         3         5         6     9        0.000000       -1.208455         3
         2         3         5         6     9      180.000000       -0.483344         4
         2         3         5        30     9        0.000000        0.063683         1
         2         3         5        30     9      180.000000       14.743467         2
         2         3         5        30     9        0.000000       -0.403360         3
         2         3         5        30     9      180.000000        0.087448         4
         2        22        21        19     9        0.000000        0.463892         1
         2        22        21        19     9      180.000000       15.590249         2
         2        22        21        19     9        0.000000        0.015547         3
         2        22        21        19     9      180.000000       -0.552632         4
         2        22        21        36     9        0.000000        0.137797         1
         2        22        21        36     9      180.000000       12.532137         2
         2        22        21        36     9        0.000000       -0.071492         3
         2        22        21        36     9      180.000000        0.088306         4
         2        22        23        24     9        0.000000        0.282647         1
         2        22        23        24     9      180.000000       18.507455         2
         2        22        23        24     9        0.000000        0.409049         3
         2        22        23        24     9      180.000000       -0.713339         4
         3         2         1         7     9        0.000000       -0.018662         1
         3         2         1         7     9      180.000000       17.934299         2
         3         2         1         7     9        0.000000       -1.401023         3
         3         2         1         7     9      180.000000       -0.303802         4
         3         2         1        26     9        0.000000        0.006199         1
         3         2         1        26     9      180.000000       14.226516         2
         3         2         1        26     9        0.000000       -0.540266         3
         3         2         1        26     9      180.000000        0.148202         4
         3         2        22        21     9        0.000000       -0.025311         1
         3         2        22        21     9      180.000000        4.073302         2
         3         2        22        21     9        0.000000       -0.731545         3
         3         2        22        21     9      180.000000        0.485112         4
         3         2        22        23     9        0.000000        0.081627         1
         3         2        22        23     9      180.000000        4.424016         2
         3         2        22        23     9        0.000000        0.146950         3
         3         2        22        23     9      180.000000        0.172395         4
         3         5         6         7     9        0.000000       -0.059153         1
         3         5         6         7     9      180.000000       18.052274         2
         3         5         6         7     9        0.000000       -1.530048         3
         3         5         6         7     9      180.000000       -0.425780         4
         3         5         6        31     9        0.000000        0.112443         1
         3         5         6        31     9      180.000000       13.466534         2
         3         5         6        31     9        0.000000       -0.601651         3
         3         5         6        31     9      180.000000        0.205131         4
         4         3         2        22     9        0.000000       -0.004280         1
         4         3         2        22     9      180.000000       14.496334         2
         4         3         2        22     9        0.000000        0.024087         3
         4         3         2        22     9      180.000000       -0.415329         4
         4         3         5         6     9        0.000000        0.123068         1
         4         3         5         6     9      180.000000       17.090190         2
         4         3         5         6     9        0.000000       -0.223973         3
         4         3         5         6     9      180.000000       -0.270739         4
         4         3         5        30     9        0.000000       -0.104108         1
         4         3         5        30     9      180.000000       13.396450         2
         4         3         5        30     9        0.000000       -0.394251         3
         4         3         5        30     9      180.000000        0.234517         4
         5         3         2        22     9        0.000000        0.024273         1
         5         3         2        22     9      180.000000       14.862715         2
         5         3         2        22     9        0.000000       -0.133473         3
         5         3         2        22     9      180.000000       -0.367327         4
         5         3         4        27     9        0.000000       -0.015937         1
         5         3         4        27     9      180.000000        0.010897         2
         5         3         4        27     9        0.000000        0.074117         3
         5         3         4        27     9      180.000000        0.020060         4
         5         3         4        28     9        0.000000       -0.015937         1
         5         3         4        28     9      180.000000        0.010897         2
         5         3         4        28     9        0.000000        0.074117         3
         5         3         4        28     9      180.000000        0.020060         4
         5         3         4        29     9        0.000000       -0.015937         1
         5         3         4        29     9      180.000000        0.010897         2
         5         3         4        29     9        0.000000        0.074117         3
         5         3         4        29     9      180.000000        0.020060         4
         5         6         7         8     9        0.000000        0.481112         1
         5         6         7         8     9      180.000000       17.606784         2
         5         6         7         8     9        0.000000        0.436134         3
         5         6         7         8     9      180.000000       -0.318694         4
         6         7         1        26     9        0.000000        0.193204         1
         6         7         1        26     9      180.000000       12.471588         2
         6         7         1        26     9        0.000000       -0.502607         3
         6         7         1        26     9      180.000000        0.264919         4
         6         7         8         9     9        0.000000        0.216927         1
         6         7         8         9     9      180.000000        5.013768         2
         6         7         8         9     9        0.000000        0.258768         3
         6         7         8         9     9      180.000000        0.310271         4
         7         1         2        22     9        0.000000        0.192602         1
         7         1         2        22     9      180.000000       17.067976         2
         7         1         2        22     9        0.000000       -0.231304         3
         7         1         2        22     9      180.000000       -0.369168         4
         7         6         5        30     9        0.000000        0.054691         1
         7         6         5        30     9      180.000000       14.545507         2
         7         6         5        30     9        0.000000       -0.413633         3
         7         6         5        30     9      180.000000        0.077663         4
         7         8         9        39     9        0.000000        0.198645         1
         7         8         9        39     9      180.000000        0.134695         2
         7         8         9        39     9        0.000000        0.695377         3
         7         8         9        39     9      180.000000        0.022339         4
         7         8         9        42     9        0.000000       -0.163260         1
         7         8         9        42     9      180.000000        0.036464         2
         7         8         9        42     9        0.000000        0.838339         3
         7         8         9        42     9      180.000000       -0.040353         4
         7         8         9        43     9        0.000000       -0.163260         1
         7         8         9        43     9      180.000000        0.036464         2
         7         8         9        43     9        0.000000        0.838339         3
         7         8         9        43     9      180.000000       -0.040353         4
         8         7         1        26     9        0.000000        0.116229         1
         8         7         1        26     9      180.000000       12.941871         2
         8         7         1        26     9        0.000000       -0.060595         3
         8         7         1        26     9      180.000000        0.315824         4
         8         7         6        31     9        0.000000        0.066064         1
         8         7         6        31     9      180.000000       12.831773         2
         8         7         6        31     9        0.000000       -0.103626         3
         8         7         6        31     9      180.000000        0.280530         4
         8         9        39        10     9        0.000000       -1.192043         1
         8         9        39        10     9      180.000000       -0.550503         2
         8         9        39        10     9        0.000000        0.424267         3
         8         9        39        10     9      180.000000        0.056501         4
         8         9        39        44     9        0.000000        0.074431         1
         8         9        39        44     9      180.000000        0.160870         2
         8         9        39        44     9        0.000000        0.469476         3
         8         9        39        44     9      180.000000        0.066236         4
         8         9        39        45     9        0.000000        0.074431         1
         8         9        39        45     9      180.000000        0.160870         2
         8         9        39        45     9        0.000000        0.469476         3
         8         9        39        45     9      180.000000        0.066236         4
         9        39        10        11     9        0.000000       -1.193406         1
         9        39        10        11     9      180.000000       -0.553959         2
         9        39        10        11     9        0.000000        0.425366         3
         9        39        10        11     9      180.000000        0.056546         4
         9        39        10        40     9        0.000000        0.180914         1
         9        39        10        40     9      180.000000        0.057957         2
         9        39        10        40     9        0.000000        0.586639         3
         9        39        10        40     9      180.000000        0.044673         4
         9        39        10        41     9        0.000000        0.180914         1
         9        39        10        41     9      180.000000        0.057957         2
         9        39        10        41     9        0.000000        0.586639         3
         9        39        10        41     9      180.000000        0.044673         4
        10        11        12        13     9        0.000000       -0.629168         1
        10        11        12        13     9      180.000000        5.229724         2
        10        11        12        13     9        0.000000        0.086354         3
        10        11        12        13     9      180.000000        0.322292         4
        10        11        12        14     9        0.000000        0.154712         1
        10        11        12        14     9      180.000000        5.263082         2
        10        11        12        14     9        0.000000        0.240547         3
        10        11        12        14     9      180.000000        0.280936         4
        10        39         9        42     9        0.000000        0.180913         1
        10        39         9        42     9      180.000000        0.057957         2
        10        39         9        42     9        0.000000        0.586639         3
        10        39         9        42     9      180.000000        0.044673         4
        10        39         9        43     9        0.000000        0.180913         1
        10        39         9        43     9      180.000000        0.057957         2
        10        39         9        43     9        0.000000        0.586639         3
        10        39         9        43     9      180.000000        0.044673         4
        11        10        39        44     9        0.000000        0.074574         1
        11        10        39        44     9      180.000000        0.161559         2
        11        10        39        44     9        0.000000        0.470467         3
        11        10        39        44     9      180.000000        0.066888         4
        11        10        39        45     9        0.000000        0.074574         1
        11        10        39        45     9      180.000000        0.161559         2
        11        10        39        45     9        0.000000        0.470467         3
        11        10        39        45     9      180.000000        0.066888         4
        11        12        13        17     9        0.000000        0.137052         1
        11        12        13        17     9      180.000000       17.474001         2
        11        12        13        17     9        0.000000        0.279022         3
        11        12        13        17     9      180.000000       -0.448546         4
        11        12        13        32     9        0.000000        0.088820         1
        11        12        13        32     9      180.000000       12.806199         2
        11        12        13        32     9        0.000000       -0.069656         3
        11        12        13        32     9      180.000000        0.210788         4
        11        12        14        15     9        0.000000        0.485051         1
        11        12        14        15     9      180.000000       17.760768         2
        11        12        14        15     9        0.000000        0.390699         3
        11        12        14        15     9      180.000000       -0.375554         4
        11        12        14        33     9        0.000000        0.052095         1
        11        12        14        33     9      180.000000       12.885370         2
        11        12        14        33     9        0.000000       -0.092533         3
        11        12        14        33     9      180.000000        0.220043         4
        12        11        10        39     9        0.000000        0.194854         1
        12        11        10        39     9      180.000000        0.114474         2
        12        11        10        39     9        0.000000        0.674474         3
        12        11        10        39     9      180.000000        0.008879         4
        12        11        10        40     9        0.000000       -0.148254         1
        12        11        10        40     9      180.000000        0.032783         2
        12        11        10        40     9        0.000000        0.810939         3
        12        11        10        40     9      180.000000       -0.047896         4
        12        11        10        41     9        0.000000       -0.148254         1
        12        11        10        41     9      180.000000        0.032783         2
        12        11        10        41     9        0.000000        0.810939         3
        12        11        10        41     9      180.000000       -0.047896         4
        12        13        17        16     9        0.000000       -0.088728         1
        12        13        17        16     9      180.000000       17.390644         2
        12        13        17        16     9        0.000000       -1.447682         3
        12        13        17        16     9      180.000000       -0.346382         4
        12        13        17        18     9        0.000000       -0.135069         1
        12        13        17        18     9      180.000000       14.759888         2
        12        13        17        18     9        0.000000       -0.120110         3
        12        13        17        18     9      180.000000       -0.321902         4
        12        14        15        16     9        0.000000       -0.064726         1
        12        14        15        16     9      180.000000       18.645192         2
        12        14        15        16     9        0.000000       -1.664119         3
        12        14        15        16     9      180.000000       -0.484555         4
        12        14        15        34     9        0.000000        0.094024         1
        12        14        15        34     9      180.000000       14.324637         2
        12        14        15        34     9        0.000000       -0.532143         3
        12        14        15        34     9      180.000000        0.076596         4
        13        12        14        15     9        0.000000       -0.091120         1
        13        12        14        15     9      180.000000       16.222934         2
        13        12        14        15     9        0.000000       -0.935228         3
        13        12        14        15     9      180.000000       -0.285551         4
        13        12        14        33     9        0.000000       -0.016803         1
        13        12        14        33     9      180.000000       12.849793         2
        13        12        14        33     9        0.000000       -0.475369         3
        13        12        14        33     9      180.000000        0.105356         4
        13        17        16        15     9        0.000000       -0.025325         1
        13        17        16        15     9      180.000000       18.274509         2
        13        17        16        15     9        0.000000       -1.286094         3
        13        17        16        15     9      180.000000       -0.373843         4
        13        17        16        35     9        0.000000        0.068665         1
        13        17        16        35     9      180.000000       13.857810         2
        13        17        16        35     9        0.000000       -0.489188         3
        13        17        16        35     9      180.000000        0.009082         4
        13        17        18        19     9        0.000000       -0.353590         1
        13        17        18        19     9      180.000000        3.826244         2
        13        17        18        19     9        0.000000       -0.718059         3
        13        17        18        19     9      180.000000        0.830570         4
        14        12        13        17     9        0.000000        0.021304         1
        14        12        13        17     9      180.000000       15.794093         2
        14        12        13        17     9        0.000000       -0.948359         3
        14        12        13        17     9      180.000000       -0.362075         4
        14        12        13        32     9        0.000000        0.246613         1
        14        12        13        32     9      180.000000       12.236303         2
        14        12        13        32     9        0.000000       -0.371193         3
        14        12        13        32     9      180.000000        0.157210         4
        14        15        16        17     9        0.000000       -0.044652         1
        14        15        16        17     9      180.000000       18.346701         2
        14        15        16        17     9        0.000000       -1.460392         3
        14        15        16        17     9      180.000000       -0.448607         4
        14        15        16        35     9        0.000000        0.092811         1
        14        15        16        35     9      180.000000       14.433860         2
        14        15        16        35     9        0.000000       -0.677728         3
        14        15        16        35     9      180.000000        0.051389         4
        15        16        17        18     9        0.000000        0.147809         1
        15        16        17        18     9      180.000000       14.933086         2
        15        16        17        18     9        0.000000        0.080561         3
        15        16        17        18     9      180.000000       -0.240383         4
        16        15        14        33     9        0.000000        0.135348         1
        16        15        14        33     9      180.000000       14.465055         2
        16        15        14        33     9        0.000000       -0.687761         3
        16        15        14        33     9      180.000000        0.105643         4
        16        17        13        32     9        0.000000       -0.058215         1
        16        17        13        32     9      180.000000       13.500198         2
        16        17        13        32     9        0.000000       -0.479288         3
        16        17        13        32     9      180.000000        0.106147         4
        16        17        18        19     9        0.000000       -0.402211         1
        16        17        18        19     9      180.000000        3.739387         2
        16        17        18        19     9        0.000000       -0.567998         3
        16        17        18        19     9      180.000000        0.812049         4
        17        16        15        34     9        0.000000        0.056280         1
        17        16        15        34     9      180.000000       14.032613         2
        17        16        15        34     9        0.000000       -0.582917         3
        17        16        15        34     9      180.000000        0.114284         4
        17        18        19        20     9        0.000000       -0.416994         1
        17        18        19        20     9      180.000000        6.533347         2
        17        18        19        20     9        0.000000        0.733703         3
        17        18        19        20     9      180.000000        0.123179         4
        17        18        19        21     9        0.000000        1.633582         1
        17        18        19        21     9      180.000000        5.178147         2
        17        18        19        21     9        0.000000       -1.164552         3
        17        18        19        21     9      180.000000        0.609479         4
        18        17        13        32     9        0.000000       -0.133517         1
        18        17        13        32     9      180.000000       12.341659         2
        18        17        13        32     9        0.000000       -0.157944         3
        18        17        13        32     9      180.000000        0.109928         4
        18        17        16        35     9        0.000000       -0.100138         1
        18        17        16        35     9      180.000000       12.374158         2
        18        17        16        35     9        0.000000       -0.107807         3
        18        17        16        35     9      180.000000        0.088835         4
        18        19        20        24     9        0.000000        0.690449         1
        18        19        20        24     9      180.000000       20.363606         2
        18        19        20        24     9        0.000000        0.555847         3
        18        19        20        24     9      180.000000       -0.560053         4
        18        19        21        22     9        0.000000        0.424891         1
        18        19        21        22     9      180.000000       13.894651         2
        18        19        21        22     9        0.000000        0.275613         3
        18        19        21        22     9      180.000000       -0.643294         4
        18        19        21        36     9        0.000000        0.274217         1
        18        19        21        36     9      180.000000       11.261584         2
        18        19        21        36     9        0.000000        0.045420         3
        18        19        21        36     9      180.000000       -0.088592         4
        19        20        24        23     9        0.000000        0.286114         1
        19        20        24        23     9      180.000000       12.112049         2
        19        20        24        23     9        0.000000        0.425534         3
        19        20        24        23     9      180.000000       -0.451443         4
        19        20        24        25     9        0.000000        0.683932         1
        19        20        24        25     9      180.000000       20.126229         2
        19        20        24        25     9        0.000000        0.140990         3
        19        20        24        25     9      180.000000       -1.087343         4
        19        21        22        23     9        0.000000       -0.321952         1
        19        21        22        23     9      180.000000       14.134126         2
        19        21        22        23     9        0.000000       -0.689707         3
        19        21        22        23     9      180.000000       -0.273612         4
        20        19        21        22     9        0.000000       -0.086444         1
        20        19        21        22     9      180.000000       13.188718         2
        20        19        21        22     9        0.000000       -0.142150         3
        20        19        21        22     9      180.000000       -0.319738         4
        20        19        21        36     9        0.000000        0.031918         1
        20        19        21        36     9      180.000000       12.154309         2
        20        19        21        36     9        0.000000       -0.220119         3
        20        19        21        36     9      180.000000       -0.051823         4
        20        24        23        22     9        0.000000        0.493585         1
        20        24        23        22     9      180.000000       13.792063         2
        20        24        23        22     9        0.000000        0.544048         3
        20        24        23        22     9      180.000000       -0.731675         4
        20        24        25        37     9        0.000000        1.999311         1
        20        24        25        37     9      180.000000        8.414907         2
        20        24        25        37     9        0.000000       -0.095400         3
        20        24        25        37     9      180.000000       -0.638754         4
        20        24        25        38     9        0.000000        1.999311         1
        20        24        25        38     9      180.000000        8.414907         2
        20        24        25        38     9        0.000000       -0.095400         3
        20        24        25        38     9      180.000000       -0.638754         4
        21        19        20        24     9        0.000000       -0.333551         1
        21        19        20        24     9      180.000000       17.647146         2
        21        19        20        24     9        0.000000       -1.168420         3
        21        19        20        24     9      180.000000       -0.215012         4
        21        22        23        24     9        0.000000       -0.444891         1
        21        22        23        24     9      180.000000       16.888225         2
        21        22        23        24     9        0.000000       -1.004133         3
        21        22        23        24     9      180.000000       -0.272550         4
        22         2         1        26     9        0.000000       -0.189106         1
        22         2         1        26     9      180.000000       13.270244         2
        22         2         1        26     9        0.000000       -0.282744         3
        22         2         1        26     9      180.000000        0.264911         4
        22        23        24        25     9        0.000000        1.064238         1
        22        23        24        25     9      180.000000       19.907641         2
        22        23        24        25     9        0.000000        0.337894         3
        22        23        24        25     9      180.000000       -1.139762         4
        23        22        21        36     9        0.000000       -0.001501         1
        23        22        21        36     9      180.000000       13.387757         2
        23        22        21        36     9        0.000000       -0.272884         3
        23        22        21        36     9      180.000000       -0.111530         4
        23        24        25        37     9        0.000000        1.860873         1
        23        24        25        37     9      180.000000        8.241660         2
        23        24        25        37     9        0.000000       -0.157613         3
        23        24        25        37     9      180.000000       -0.751801         4
        23        24        25        38     9        0.000000        1.860873         1
        23        24        25        38     9      180.000000        8.241660         2
        23        24        25        38     9        0.000000       -0.157613         3
        23        24        25        38     9      180.000000       -0.751801         4
        30         5         6        31     9        0.000000       -0.172573         1
        30         5         6        31     9      180.000000       11.536441         2
        30         5         6        31     9        0.000000       -0.615024         3
        30         5         6        31     9      180.000000        0.277367         4
        33        14        15        34     9        0.000000       -0.173315         1
        33        14        15        34     9      180.000000       11.683787         2
        33        14        15        34     9        0.000000       -0.568860         3
        33        14        15        34     9      180.000000        0.194036         4
        34        15        16        35     9        0.000000       -0.029056         1
        34        15        16        35     9      180.000000       12.054901         2
        34        15        16        35     9        0.000000       -0.683620         3
        34        15        16        35     9      180.000000        0.221453         4
        40        10        39        44     9        0.000000       -0.019091         1
        40        10        39        44     9      180.000000       -0.024624         2
        40        10        39        44     9        0.000000        0.666456         3
        40        10        39        44     9      180.000000       -0.038903         4
        40        10        39        45     9        0.000000       -0.019091         1
        40        10        39        45     9      180.000000       -0.024624         2
        40        10        39        45     9        0.000000        0.666456         3
        40        10        39        45     9      180.000000       -0.038903         4
        41        10        39        44     9        0.000000       -0.019091         1
        41        10        39        44     9      180.000000       -0.024624         2
        41        10        39        44     9        0.000000        0.666456         3
        41        10        39        44     9      180.000000       -0.038903         4
        41        10        39        45     9        0.000000       -0.019091         1
        41        10        39        45     9      180.000000       -0.024624         2
        41        10        39        45     9        0.000000        0.666456         3
        41        10        39        45     9      180.000000       -0.038903         4
        42         9        39        44     9        0.000000       -0.019091         1
        42         9        39        44     9      180.000000       -0.024624         2
        42         9        39        44     9        0.000000        0.666456         3
        42         9        39        44     9      180.000000       -0.038903         4
        42         9        39        45     9        0.000000       -0.019091         1
        42         9        39        45     9      180.000000       -0.024624         2
        42         9        39        45     9        0.000000        0.666456         3
        42         9        39        45     9      180.000000       -0.038903         4
        43         9        39        44     9        0.000000       -0.019091         1
        43         9        39        44     9      180.000000       -0.024624         2
        43         9        39        44     9        0.000000        0.666456         3
        43         9        39        44     9      180.000000       -0.038903         4
        43         9        39        45     9        0.000000       -0.019091         1
        43         9        39        45     9      180.000000       -0.024624         2
        43         9        39        45     9        0.000000        0.666456         3
        43         9        39        45     9      180.000000       -0.038903         4

[ dihedrals ] ; impropers
;       ai        aj        ak        al funct           phase               k        pn
        13        12        17        32     4      180.000000        1.626954         2
        13        17        32        12     4      180.000000        1.626954         2
        13        32        12        17     4      180.000000        1.626954         2
        14        12        15        33     4      180.000000        1.216823         2
        14        15        33        12     4      180.000000        1.216823         2
        14        33        12        15     4      180.000000        1.216823         2
        15        14        16        34     4      180.000000        2.803440         2
        15        16        34        14     4      180.000000        2.803440         2
        15        34        14        16     4      180.000000        2.803440         2
        16        15        17        35     4      180.000000        0.889818         2
        16        17        35        15     4      180.000000        0.889818         2
        16        35        15        17     4      180.000000        0.889818         2
        19        18        20        21     4      180.000000        6.653471         2
        19        20        21        18     4      180.000000        6.653471         2
        19        21        18        20     4      180.000000        6.653471         2
        22         2        21        23     4      180.000000        4.559394         2
        22        21        23         2     4      180.000000        4.559394         2
        22        23         2        21     4      180.000000        4.559394         2
        24        20        23        25     4      180.000000        5.578667         2
        24        23        25        20     4      180.000000        5.578667         2
        24        25        20        23     4      180.000000        5.578667         2

[ pairs ]
;       ai        aj funct
         1         4     1
         1         5     1
         1         9     1
         1        21     1
         1        23     1
         1        31     1
         2         6     1
         2         8     1
         2        19     1
         2        24     1
         2        27     1
         2        28     1
         2        29     1
         2        30     1
         2        36     1
         3         7     1
         3        21     1
         3        23     1
         3        26     1
         3        31     1
         4         6     1
         4        22     1
         4        30     1
         5         8     1
         5        22     1
         5        27     1
         5        28     1
         5        29     1
         6         9     1
         6        26     1
         7        22     1
         7        30     1
         7        39     1
         7        42     1
         7        43     1
         8        10     1
         8        26     1
         8        31     1
         8        44     1
         8        45     1
         9        11     1
         9        40     1
         9        41     1
        10        13     1
        10        14     1
        10        42     1
        10        43     1
        11        15     1
        11        17     1
        11        32     1
        11        33     1
        11        44     1
        11        45     1
        12        16     1
        12        18     1
        12        34     1
        12        39     1
        12        40     1
        12        41     1
        13        15     1
        13        19     1
        13        33     1
        13        35     1
        14        17     1
        14        32     1
        14        35     1
        15        18     1
        16        19     1
        16        32     1
        16        33     1
        17        20     1
        17        21     1
        17        34     1
        18        22     1
        18        24     1
        18        32     1
        18        35     1
        18        36     1
        19        23     1
        19        25     1
        20        22     1
        20        36     1
        20        37     1
        20        38     1
        21        24     1
        22        25     1
        22        26     1
        23        36     1
        23        37     1
        23        38     1
        30        31     1
        33        34     1
        34        35     1
        40        44     1
        40        45     1
        41        44     1
        41        45     1
        42        44     1
        42        45     1
        43        44     1
        43        45     1
