; ITP file created by ByteFF-ML, 2025-12-06 06:50:43.045918

[ atomtypes ]
;name           bonded.type        at.num        mass        charge   ptype           sigma         epsilon
 c0bf                                   6      0.0000       0.00000       A     3.31588e-01     4.12078e-01
 c1bf                                   6      0.0000       0.00000       A     3.31440e-01     4.09505e-01
 c2bf                                   6      0.0000       0.00000       A     3.31555e-01     4.13433e-01
 c3bf                                   6      0.0000       0.00000       A     3.39784e-01     4.51148e-01
 c4bf                                   6      0.0000       0.00000       A     3.31460e-01     4.13125e-01
 c5bf                                   6      0.0000       0.00000       A     3.31553e-01     4.11602e-01
 c6bf                                   6      0.0000       0.00000       A     3.31376e-01     4.13050e-01
 o7bf                                   8      0.0000       0.00000       A     3.15857e-01     3.05631e-01
 c8bf                                   6      0.0000       0.00000       A     3.39709e-01     4.51598e-01
 c9bf                                   6      0.0000       0.00000       A     3.39882e-01     4.51329e-01
 c10bf                                  6      0.0000       0.00000       A     3.39709e-01     4.51598e-01
 o11bf                                  8      0.0000       0.00000       A     3.15857e-01     3.05749e-01
 c12bf                                  6      0.0000       0.00000       A     3.31403e-01     4.13527e-01
 c13bf                                  6      0.0000       0.00000       A     3.31403e-01     4.13824e-01
 c14bf                                  6      0.0000       0.00000       A     3.31606e-01     4.11902e-01
 c15bf                                  6      0.0000       0.00000       A     3.31532e-01     4.13858e-01
 c16bf                                  6      0.0000       0.00000       A     3.31307e-01     4.13197e-01
 c17bf                                  6      0.0000       0.00000       A     3.31488e-01     4.13475e-01
 s18bf                                 16      0.0000       0.00000       A     3.53445e-01     1.17795e+00
 c19bf                                  6      0.0000       0.00000       A     3.31539e-01     4.15647e-01
 n20bf                                  7      0.0000       0.00000       A     3.38419e-01     3.93030e-01
 c21bf                                  6      0.0000       0.00000       A     3.31393e-01     4.17203e-01
 c22bf                                  6      0.0000       0.00000       A     3.31463e-01     4.12330e-01
 n23bf                                  7      0.0000       0.00000       A     3.38513e-01     3.89190e-01
 c24bf                                  6      0.0000       0.00000       A     3.31328e-01     4.14640e-01
 n25bf                                  7      0.0000       0.00000       A     3.36757e-01     4.72523e-01
 h26bf                                  1      0.0000       0.00000       A     2.62563e-01     6.74004e-02
 h27bf                                  1      0.0000       0.00000       A     2.60028e-01     8.72826e-02
 h28bf                                  1      0.0000       0.00000       A     2.60028e-01     8.72826e-02
 h29bf                                  1      0.0000       0.00000       A     2.60028e-01     8.72826e-02
 h30bf                                  1      0.0000       0.00000       A     2.62477e-01     6.74132e-02
 h31bf                                  1      0.0000       0.00000       A     2.62438e-01     6.69312e-02
 h32bf                                  1      0.0000       0.00000       A     2.42138e-01     8.77535e-02
 h33bf                                  1      0.0000       0.00000       A     2.42138e-01     8.77535e-02
 h34bf                                  1      0.0000       0.00000       A     2.62469e-01     6.73733e-02
 h35bf                                  1      0.0000       0.00000       A     2.62446e-01     6.69008e-02
 h36bf                                  1      0.0000       0.00000       A     2.62562e-01     6.73334e-02
 h37bf                                  1      0.0000       0.00000       A     2.62558e-01     6.78026e-02
 h38bf                                  1      0.0000       0.00000       A     2.62441e-01     6.73876e-02
 h39bf                                  1      0.0000       0.00000       A     1.10073e-01     4.24538e-02
 h40bf                                  1      0.0000       0.00000       A     1.10073e-01     4.24538e-02
 c41bf                                  6      0.0000       0.00000       A     3.39844e-01     4.51431e-01
 h42bf                                  1      0.0000       0.00000       A     2.60117e-01     8.67974e-02
 h43bf                                  1      0.0000       0.00000       A     2.60117e-01     8.67974e-02
 c44bf                                  6      0.0000       0.00000       A     3.39882e-01     4.51329e-01
 h45bf                                  1      0.0000       0.00000       A     2.42138e-01     8.77535e-02
 h46bf                                  1      0.0000       0.00000       A     2.42138e-01     8.77535e-02
 h47bf                                  1      0.0000       0.00000       A     2.60020e-01     8.73736e-02
 h48bf                                  1      0.0000       0.00000       A     2.60020e-01     8.73736e-02
 h49bf                                  1      0.0000       0.00000       A     2.60117e-01     8.67974e-02
 h50bf                                  1      0.0000       0.00000       A     2.60117e-01     8.67974e-02

[ moleculetype ]
;name             nrexcl
 9                     3

[ atoms ]
;       nr            type      resi   res      atom      cgnr      charge          mass ; qtot
         1            c0bf         1   UNL        c0         1    -0.13214       12.0110 ; qtot   -0.132
         2            c1bf         1   UNL        c1         2    -0.12973       12.0110 ; qtot   -0.262
         3            c2bf         1   UNL        c2         3    -0.06160       12.0110 ; qtot   -0.323
         4            c3bf         1   UNL        c3         4    -0.04992       12.0110 ; qtot   -0.373
         5            c4bf         1   UNL        c4         5    -0.08923       12.0110 ; qtot   -0.463
         6            c5bf         1   UNL        c5         6    -0.15656       12.0110 ; qtot   -0.619
         7            c6bf         1   UNL        c6         7     0.12760       12.0110 ; qtot   -0.492
         8            o7bf         1   UNL        o7         8    -0.35158       15.9990 ; qtot   -0.843
         9            c8bf         1   UNL        c8         9     0.16318       12.0110 ; qtot   -0.680
        10            c9bf         1   UNL        c9        10    -0.09052       12.0110 ; qtot   -0.771
        11           c10bf         1   UNL       c10        11     0.16322       12.0110 ; qtot   -0.607
        12           o11bf         1   UNL       o11        12    -0.35274       15.9990 ; qtot   -0.960
        13           c12bf         1   UNL       c12        13     0.13239       12.0110 ; qtot   -0.828
        14           c13bf         1   UNL       c13        14    -0.11895       12.0110 ; qtot   -0.947
        15           c14bf         1   UNL       c14        15    -0.15881       12.0110 ; qtot   -1.105
        16           c15bf         1   UNL       c15        16    -0.08330       12.0110 ; qtot   -1.189
        17           c16bf         1   UNL       c16        17    -0.09022       12.0110 ; qtot   -1.279
        18           c17bf         1   UNL       c17        18    -0.10440       12.0110 ; qtot   -1.383
        19           s18bf         1   UNL       s18        19    -0.15145       32.0670 ; qtot   -1.535
        20           c19bf         1   UNL       c19        20     0.25971       12.0110 ; qtot   -1.275
        21           n20bf         1   UNL       n20        21    -0.23919       14.0070 ; qtot   -1.514
        22           c21bf         1   UNL       c21        22    -0.21246       12.0110 ; qtot   -1.727
        23           c22bf         1   UNL       c22        23     0.21553       12.0110 ; qtot   -1.511
        24           n23bf         1   UNL       n23        24    -0.24910       14.0070 ; qtot   -1.760
        25           c24bf         1   UNL       c24        25     0.36459       12.0110 ; qtot   -1.396
        26           n25bf         1   UNL       n25        26    -1.02776       14.0070 ; qtot   -2.423
        27           h26bf         1   UNL       h26        27     0.13167        1.0080 ; qtot   -2.292
        28           h27bf         1   UNL       h27        28     0.04898        1.0080 ; qtot   -2.243
        29           h28bf         1   UNL       h28        29     0.04898        1.0080 ; qtot   -2.194
        30           h29bf         1   UNL       h29        30     0.04898        1.0080 ; qtot   -2.145
        31           h30bf         1   UNL       h30        31     0.11342        1.0080 ; qtot   -2.031
        32           h31bf         1   UNL       h31        32     0.12471        1.0080 ; qtot   -1.907
        33           h32bf         1   UNL       h32        33     0.04265        1.0080 ; qtot   -1.864
        34           h33bf         1   UNL       h33        34     0.04265        1.0080 ; qtot   -1.821
        35           h34bf         1   UNL       h34        35     0.13641        1.0080 ; qtot   -1.685
        36           h35bf         1   UNL       h35        36     0.12565        1.0080 ; qtot   -1.559
        37           h36bf         1   UNL       h36        37     0.12066        1.0080 ; qtot   -1.439
        38           h37bf         1   UNL       h37        38     0.12923        1.0080 ; qtot   -1.309
        39           h38bf         1   UNL       h38        39     0.14755        1.0080 ; qtot   -1.162
        40           h39bf         1   UNL       h39        40     0.47675        1.0080 ; qtot   -0.685
        41           h40bf         1   UNL       h40        41     0.47675        1.0080 ; qtot   -0.208
        42           c41bf         1   UNL       c41        42    -0.07386       12.0110 ; qtot   -0.282
        43           h42bf         1   UNL       h42        43     0.05035        1.0080 ; qtot   -0.232
        44           h43bf         1   UNL       h43        44     0.05035        1.0080 ; qtot   -0.182
        45           c44bf         1   UNL       c44        45    -0.09052       12.0110 ; qtot   -0.272
        46           h45bf         1   UNL       h45        46     0.04265        1.0080 ; qtot   -0.229
        47           h46bf         1   UNL       h46        47     0.04265        1.0080 ; qtot   -0.187
        48           h47bf         1   UNL       h47        48     0.04305        1.0080 ; qtot   -0.144
        49           h48bf         1   UNL       h48        49     0.04305        1.0080 ; qtot   -0.101
        50           h49bf         1   UNL       h49        50     0.05035        1.0080 ; qtot   -0.050
        51           h50bf         1   UNL       h50        51     0.05033        1.0080 ; qtot   -0.000

[ bonds ]
;       ai        aj funct               r               k
         1         2     1        0.140319   293642.155029
         1         7     1        0.139920   294046.535156
         1        27     1        0.108366   323859.220605
         2         3     1        0.141353   257800.949707
         2        23     1        0.148758   204546.244873
         3         4     1        0.151265   201008.040063
         3         5     1        0.140174   294322.182715
         4        28     1        0.109334   301828.024365
         4        29     1        0.109334   301828.024365
         4        30     1        0.109334   301828.024365
         5         6     1        0.139614   318591.655518
         5        31     1        0.108708   314692.087842
         6         7     1        0.140124   290072.016064
         6        32     1        0.108420   323431.831543
         7         8     1        0.136910   266259.861816
         8         9     1        0.143348   186831.088257
         9        10     1        0.152563   192194.979321
         9        33     1        0.109696   289434.124609
         9        34     1        0.109696   289434.124609
        10        42     1        0.153528   184153.381885
        10        43     1        0.109581   295028.692383
        10        44     1        0.109581   295028.692383
        11        12     1        0.143353   186819.405029
        11        45     1        0.152563   192194.979321
        11        46     1        0.109696   289434.124609
        11        47     1        0.109696   289434.124609
        12        13     1        0.136734   268606.313574
        13        14     1        0.140203   287679.674121
        13        15     1        0.140325   287499.637500
        14        18     1        0.139909   299985.930518
        14        35     1        0.108363   324883.054395
        15        16     1        0.139719   314785.706885
        15        36     1        0.108392   324261.915283
        16        17     1        0.139646   310323.199170
        16        37     1        0.108610   320095.612500
        17        18     1        0.139967   297505.128027
        17        38     1        0.108495   322485.221973
        18        19     1        0.179342   136782.452588
        19        20     1        0.178971   129762.045850
        20        21     1        0.133190   321995.037158
        20        22     1        0.139841   287963.748926
        21        25     1        0.134663   267665.220020
        22        23     1        0.139799   289928.191064
        22        39     1        0.108175   330231.367822
        23        24     1        0.134152   311197.615332
        24        25     1        0.134264   274234.590332
        25        26     1        0.137194   320073.548438
        26        40     1        0.101085   429215.067969
        26        41     1        0.101085   429215.067969
        42        45     1        0.153528   184153.369116
        42        48     1        0.109617   293573.230371
        42        49     1        0.109617   293573.230371
        45        50     1        0.109581   295028.717920
        45        51     1        0.109581   295028.717920

[ angles ]
;       ai        aj        ak funct           theta             cth
         1         2         3     1      120.193420      643.888654
         1         2        23     1      117.265366      513.889189
         1         7         6     1      119.263687      613.448228
         1         7         8     1      119.014343      518.129403
         2         1         7     1      120.980568      708.671257
         2         1        27     1      119.307579      406.581362
         2         3         4     1      123.314186      459.718277
         2         3         5     1      117.413940      678.781858
         2        23        22     1      121.517349      457.053033
         2        23        24     1      117.073631      477.840750
         3         2        23     1      122.559105      497.744756
         3         4        28     1      111.228416      480.398132
         3         4        29     1      111.228416      480.398132
         3         4        30     1      111.228416      480.398132
         3         5         6     1      122.572105      677.527475
         3         5        31     1      118.881020      402.423665
         4         3         5     1      119.337723      486.529113
         5         6         7     1      119.325577      734.017221
         5         6        32     1      120.225906      428.770205
         6         5        31     1      118.707787      437.824643
         6         7         8     1      121.471779      560.952741
         7         1        27     1      119.635452      429.807746
         7         6        32     1      120.355370      435.873607
         7         8         9     1      118.734291      529.857416
         8         9        10     1      109.662270      622.847927
         8         9        33     1      108.803406      460.023254
         8         9        34     1      108.803406      460.023254
         9        10        42     1      113.241806      606.738225
         9        10        43     1      108.466164      510.781323
         9        10        44     1      108.466164      510.781323
        10         9        33     1      110.768448      492.640367
        10         9        34     1      110.768448      492.640367
        10        42        45     1      114.015625      616.898738
        10        42        48     1      109.136513      511.285106
        10        42        49     1      109.136513      511.285106
        11        12        13     1      118.706726      525.894057
        11        45        42     1      113.241806      606.738225
        11        45        50     1      108.466164      510.781323
        11        45        51     1      108.466164      510.781323
        12        11        45     1      109.650223      623.576245
        12        11        46     1      108.809654      459.907092
        12        11        47     1      108.809654      459.907092
        12        13        14     1      118.707237      533.715563
        12        13        15     1      120.933594      551.772150
        13        14        18     1      119.874611      696.955150
        13        14        35     1      120.030128      408.591037
        13        15        16     1      119.417557      749.775277
        13        15        36     1      120.162071      433.219887
        14        13        15     1      119.845322      622.312988
        14        18        17     1      120.551956      674.771255
        14        18        19     1      119.219376      367.831129
        15        16        17     1      120.952904      688.614028
        15        16        37     1      119.405495      419.754424
        16        15        36     1      120.406517      426.367131
        16        17        18     1      118.955215      615.777212
        16        17        38     1      120.835861      421.072682
        17        16        37     1      119.636429      427.991355
        17        18        19     1      119.938011      384.872393
        18        14        35     1      120.120056      371.375584
        18        17        38     1      120.102478      378.278967
        18        19        20     1      102.187088      778.209891
        19        20        21     1      116.492393      415.073345
        19        20        22     1      119.850266      383.024496
        20        21        25     1      115.883568      932.098363
        20        22        23     1      116.314377      867.787048
        20        22        39     1      121.690720      421.371498
        21        20        22     1      122.878990      710.508588
        21        25        24     1      126.730873      655.106404
        21        25        26     1      116.218155      600.142308
        22        23        24     1      121.380699      702.004539
        23        22        39     1      121.976700      409.236870
        23        24        25     1      116.635681      948.345264
        24        25        26     1      116.465744      588.109733
        25        26        40     1      116.052841      472.399558
        25        26        41     1      116.052841      472.399558
        28         4        29     1      107.742676      357.430024
        28         4        30     1      107.742676      357.430024
        29         4        30     1      107.742676      357.430024
        33         9        34     1      107.912979      344.996292
        40        26        41     1      117.657532      319.610012
        42        10        43     1      109.862122      509.156748
        42        10        44     1      109.862122      509.156748
        42        45        50     1      109.862122      509.156748
        42        45        51     1      109.862122      509.156748
        43        10        44     1      106.725975      360.486720
        45        11        46     1      110.768448      492.640367
        45        11        47     1      110.768448      492.640367
        45        42        48     1      109.136513      511.285106
        45        42        49     1      109.136513      511.285106
        46        11        47     1      107.912979      344.996229
        48        42        49     1      106.278381      362.257080
        50        45        51     1      106.725975      360.486720

[ dihedrals ] ; propers for gromacs 4.5 or higher, use funct 9
;       ai        aj        ak        al funct           phase               k        pn
         1         2         3         4     9        0.000000        0.005007         1
         1         2         3         4     9      180.000000       15.144403         2
         1         2         3         4     9        0.000000       -0.130943         3
         1         2         3         4     9      180.000000       -0.323039         4
         1         2         3         5     9        0.000000       -0.124923         1
         1         2         3         5     9      180.000000       18.125726         2
         1         2         3         5     9        0.000000       -1.181013         3
         1         2         3         5     9      180.000000       -0.417514         4
         1         2        23        22     9        0.000000       -0.035118         1
         1         2        23        22     9      180.000000        4.188454         2
         1         2        23        22     9        0.000000        0.171424         3
         1         2        23        22     9      180.000000        0.196097         4
         1         2        23        24     9        0.000000       -0.561197         1
         1         2        23        24     9      180.000000        4.778951         2
         1         2        23        24     9        0.000000       -0.348679         3
         1         2        23        24     9      180.000000        0.319580         4
         1         7         6         5     9        0.000000       -0.072262         1
         1         7         6         5     9      180.000000       15.859289         2
         1         7         6         5     9        0.000000       -0.924810         3
         1         7         6         5     9      180.000000       -0.226304         4
         1         7         6        32     9        0.000000        0.034676         1
         1         7         6        32     9      180.000000       12.525758         2
         1         7         6        32     9        0.000000       -0.465187         3
         1         7         6        32     9      180.000000        0.105029         4
         1         7         8         9     9        0.000000       -0.746632         1
         1         7         8         9     9      180.000000        5.046844         2
         1         7         8         9     9        0.000000        0.088610         3
         1         7         8         9     9      180.000000        0.349811         4
         2         1         7         6     9        0.000000       -0.083841         1
         2         1         7         6     9      180.000000       16.092539         2
         2         1         7         6     9        0.000000       -0.928017         3
         2         1         7         6     9      180.000000       -0.295624         4
         2         1         7         8     9        0.000000        0.252132         1
         2         1         7         8     9      180.000000       17.110769         2
         2         1         7         8     9        0.000000        0.106607         3
         2         1         7         8     9      180.000000       -0.294666         4
         2         3         4        28     9        0.000000        0.000632         1
         2         3         4        28     9      180.000000        0.000538         2
         2         3         4        28     9        0.000000        0.507151         3
         2         3         4        28     9      180.000000        0.034673         4
         2         3         4        29     9        0.000000        0.000632         1
         2         3         4        29     9      180.000000        0.000538         2
         2         3         4        29     9        0.000000        0.507151         3
         2         3         4        29     9      180.000000        0.034673         4
         2         3         4        30     9        0.000000        0.000632         1
         2         3         4        30     9      180.000000        0.000538         2
         2         3         4        30     9        0.000000        0.507151         3
         2         3         4        30     9      180.000000        0.034673         4
         2         3         5         6     9        0.000000        0.228344         1
         2         3         5         6     9      180.000000       19.612420         2
         2         3         5         6     9        0.000000       -1.208455         3
         2         3         5         6     9      180.000000       -0.483344         4
         2         3         5        31     9        0.000000        0.063683         1
         2         3         5        31     9      180.000000       14.743467         2
         2         3         5        31     9        0.000000       -0.403360         3
         2         3         5        31     9      180.000000        0.087448         4
         2        23        22        20     9        0.000000        0.463892         1
         2        23        22        20     9      180.000000       15.590249         2
         2        23        22        20     9        0.000000        0.015547         3
         2        23        22        20     9      180.000000       -0.552632         4
         2        23        22        39     9        0.000000        0.137797         1
         2        23        22        39     9      180.000000       12.532137         2
         2        23        22        39     9        0.000000       -0.071493         3
         2        23        22        39     9      180.000000        0.088306         4
         2        23        24        25     9        0.000000        0.282647         1
         2        23        24        25     9      180.000000       18.507455         2
         2        23        24        25     9        0.000000        0.409049         3
         2        23        24        25     9      180.000000       -0.713339         4
         3         2         1         7     9        0.000000       -0.018662         1
         3         2         1         7     9      180.000000       17.934299         2
         3         2         1         7     9        0.000000       -1.401023         3
         3         2         1         7     9      180.000000       -0.303802         4
         3         2         1        27     9        0.000000        0.006199         1
         3         2         1        27     9      180.000000       14.226516         2
         3         2         1        27     9        0.000000       -0.540266         3
         3         2         1        27     9      180.000000        0.148202         4
         3         2        23        22     9        0.000000       -0.025311         1
         3         2        23        22     9      180.000000        4.073302         2
         3         2        23        22     9        0.000000       -0.731545         3
         3         2        23        22     9      180.000000        0.485112         4
         3         2        23        24     9        0.000000        0.081627         1
         3         2        23        24     9      180.000000        4.424016         2
         3         2        23        24     9        0.000000        0.146950         3
         3         2        23        24     9      180.000000        0.172395         4
         3         5         6         7     9        0.000000       -0.059153         1
         3         5         6         7     9      180.000000       18.052274         2
         3         5         6         7     9        0.000000       -1.530048         3
         3         5         6         7     9      180.000000       -0.425780         4
         3         5         6        32     9        0.000000        0.112443         1
         3         5         6        32     9      180.000000       13.466534         2
         3         5         6        32     9        0.000000       -0.601651         3
         3         5         6        32     9      180.000000        0.205131         4
         4         3         2        23     9        0.000000       -0.004280         1
         4         3         2        23     9      180.000000       14.496334         2
         4         3         2        23     9        0.000000        0.024087         3
         4         3         2        23     9      180.000000       -0.415329         4
         4         3         5         6     9        0.000000        0.123068         1
         4         3         5         6     9      180.000000       17.090190         2
         4         3         5         6     9        0.000000       -0.223973         3
         4         3         5         6     9      180.000000       -0.270739         4
         4         3         5        31     9        0.000000       -0.104108         1
         4         3         5        31     9      180.000000       13.396450         2
         4         3         5        31     9        0.000000       -0.394251         3
         4         3         5        31     9      180.000000        0.234517         4
         5         3         2        23     9        0.000000        0.024273         1
         5         3         2        23     9      180.000000       14.862715         2
         5         3         2        23     9        0.000000       -0.133473         3
         5         3         2        23     9      180.000000       -0.367327         4
         5         3         4        28     9        0.000000       -0.015937         1
         5         3         4        28     9      180.000000        0.010897         2
         5         3         4        28     9        0.000000        0.074117         3
         5         3         4        28     9      180.000000        0.020060         4
         5         3         4        29     9        0.000000       -0.015937         1
         5         3         4        29     9      180.000000        0.010897         2
         5         3         4        29     9        0.000000        0.074117         3
         5         3         4        29     9      180.000000        0.020060         4
         5         3         4        30     9        0.000000       -0.015937         1
         5         3         4        30     9      180.000000        0.010897         2
         5         3         4        30     9        0.000000        0.074117         3
         5         3         4        30     9      180.000000        0.020060         4
         5         6         7         8     9        0.000000        0.475612         1
         5         6         7         8     9      180.000000       17.615263         2
         5         6         7         8     9        0.000000        0.434413         3
         5         6         7         8     9      180.000000       -0.317828         4
         6         7         1        27     9        0.000000        0.193204         1
         6         7         1        27     9      180.000000       12.471588         2
         6         7         1        27     9        0.000000       -0.502607         3
         6         7         1        27     9      180.000000        0.264919         4
         6         7         8         9     9        0.000000        0.217467         1
         6         7         8         9     9      180.000000        5.036149         2
         6         7         8         9     9        0.000000        0.248631         3
         6         7         8         9     9      180.000000        0.315643         4
         7         1         2        23     9        0.000000        0.192602         1
         7         1         2        23     9      180.000000       17.067976         2
         7         1         2        23     9        0.000000       -0.231304         3
         7         1         2        23     9      180.000000       -0.369168         4
         7         6         5        31     9        0.000000        0.054691         1
         7         6         5        31     9      180.000000       14.545507         2
         7         6         5        31     9        0.000000       -0.413633         3
         7         6         5        31     9      180.000000        0.077663         4
         7         8         9        10     9        0.000000        0.401623         1
         7         8         9        10     9      180.000000        0.196643         2
         7         8         9        10     9        0.000000        0.712433         3
         7         8         9        10     9      180.000000        0.033203         4
         7         8         9        33     9        0.000000       -0.185375         1
         7         8         9        33     9      180.000000        0.035685         2
         7         8         9        33     9        0.000000        0.856386         3
         7         8         9        33     9      180.000000       -0.041142         4
         7         8         9        34     9        0.000000       -0.185375         1
         7         8         9        34     9      180.000000        0.035685         2
         7         8         9        34     9        0.000000        0.856386         3
         7         8         9        34     9      180.000000       -0.041142         4
         8         7         1        27     9        0.000000        0.111617         1
         8         7         1        27     9      180.000000       12.943522         2
         8         7         1        27     9        0.000000       -0.057425         3
         8         7         1        27     9      180.000000        0.314752         4
         8         7         6        32     9        0.000000        0.063534         1
         8         7         6        32     9      180.000000       12.833078         2
         8         7         6        32     9        0.000000       -0.100022         3
         8         7         6        32     9      180.000000        0.279342         4
         8         9        10        42     9        0.000000       -0.389588         1
         8         9        10        42     9      180.000000       -0.007727         2
         8         9        10        42     9        0.000000        0.548096         3
         8         9        10        42     9      180.000000       -0.000466         4
         8         9        10        43     9        0.000000        0.045457         1
         8         9        10        43     9      180.000000        0.188227         2
         8         9        10        43     9        0.000000        0.494881         3
         8         9        10        43     9      180.000000        0.075734         4
         8         9        10        44     9        0.000000        0.045457         1
         8         9        10        44     9      180.000000        0.188227         2
         8         9        10        44     9        0.000000        0.494881         3
         8         9        10        44     9      180.000000        0.075734         4
         9        10        42        45     9        0.000000        0.591900         1
         9        10        42        45     9      180.000000       -0.127129         2
         9        10        42        45     9        0.000000        0.426484         3
         9        10        42        45     9      180.000000       -0.034673         4
         9        10        42        48     9        0.000000       -0.163077         1
         9        10        42        48     9      180.000000        0.072420         2
         9        10        42        48     9        0.000000        0.463328         3
         9        10        42        48     9      180.000000        0.025519         4
         9        10        42        49     9        0.000000       -0.163077         1
         9        10        42        49     9      180.000000        0.072420         2
         9        10        42        49     9        0.000000        0.463328         3
         9        10        42        49     9      180.000000        0.025519         4
        10        42        45        11     9        0.000000        0.591900         1
        10        42        45        11     9      180.000000       -0.127128         2
        10        42        45        11     9        0.000000        0.426484         3
        10        42        45        11     9      180.000000       -0.034673         4
        10        42        45        50     9        0.000000       -0.245504         1
        10        42        45        50     9      180.000000        0.103769         2
        10        42        45        50     9        0.000000        0.524494         3
        10        42        45        50     9      180.000000        0.045896         4
        10        42        45        51     9        0.000000       -0.245504         1
        10        42        45        51     9      180.000000        0.103769         2
        10        42        45        51     9        0.000000        0.524494         3
        10        42        45        51     9      180.000000        0.045896         4
        11        12        13        14     9        0.000000       -0.619386         1
        11        12        13        14     9      180.000000        5.240286         2
        11        12        13        14     9        0.000000        0.077153         3
        11        12        13        14     9      180.000000        0.324318         4
        11        12        13        15     9        0.000000        0.153278         1
        11        12        13        15     9      180.000000        5.288975         2
        11        12        13        15     9        0.000000        0.228566         3
        11        12        13        15     9      180.000000        0.284827         4
        11        45        42        48     9        0.000000       -0.163076         1
        11        45        42        48     9      180.000000        0.072420         2
        11        45        42        48     9        0.000000        0.463328         3
        11        45        42        48     9      180.000000        0.025519         4
        11        45        42        49     9        0.000000       -0.163076         1
        11        45        42        49     9      180.000000        0.072420         2
        11        45        42        49     9        0.000000        0.463328         3
        11        45        42        49     9      180.000000        0.025519         4
        12        11        45        42     9        0.000000       -0.386893         1
        12        11        45        42     9      180.000000       -0.009981         2
        12        11        45        42     9        0.000000        0.549024         3
        12        11        45        42     9      180.000000       -0.000606         4
        12        11        45        50     9        0.000000        0.045211         1
        12        11        45        50     9      180.000000        0.189290         2
        12        11        45        50     9        0.000000        0.495324         3
        12        11        45        50     9      180.000000        0.076174         4
        12        11        45        51     9        0.000000        0.045211         1
        12        11        45        51     9      180.000000        0.189290         2
        12        11        45        51     9        0.000000        0.495324         3
        12        11        45        51     9      180.000000        0.076174         4
        12        13        14        18     9        0.000000        0.131687         1
        12        13        14        18     9      180.000000       17.483808         2
        12        13        14        18     9        0.000000        0.275773         3
        12        13        14        18     9      180.000000       -0.450860         4
        12        13        14        35     9        0.000000        0.086307         1
        12        13        14        35     9      180.000000       12.804649         2
        12        13        14        35     9        0.000000       -0.066785         3
        12        13        14        35     9      180.000000        0.209391         4
        12        13        15        16     9        0.000000        0.480370         1
        12        13        15        16     9      180.000000       17.772855         2
        12        13        15        16     9        0.000000        0.389431         3
        12        13        15        16     9      180.000000       -0.375805         4
        12        13        15        36     9        0.000000        0.050117         1
        12        13        15        36     9      180.000000       12.887481         2
        12        13        15        36     9        0.000000       -0.088751         3
        12        13        15        36     9      180.000000        0.218725         4
        13        12        11        45     9        0.000000        0.394912         1
        13        12        11        45     9      180.000000        0.168922         2
        13        12        11        45     9        0.000000        0.697417         3
        13        12        11        45     9      180.000000        0.021048         4
        13        12        11        46     9        0.000000       -0.171301         1
        13        12        11        46     9      180.000000        0.031803         2
        13        12        11        46     9        0.000000        0.830351         3
        13        12        11        46     9      180.000000       -0.048589         4
        13        12        11        47     9        0.000000       -0.171301         1
        13        12        11        47     9      180.000000        0.031803         2
        13        12        11        47     9        0.000000        0.830351         3
        13        12        11        47     9      180.000000       -0.048589         4
        13        14        18        17     9        0.000000       -0.088728         1
        13        14        18        17     9      180.000000       17.390644         2
        13        14        18        17     9        0.000000       -1.447682         3
        13        14        18        17     9      180.000000       -0.346382         4
        13        14        18        19     9        0.000000       -0.135069         1
        13        14        18        19     9      180.000000       14.759888         2
        13        14        18        19     9        0.000000       -0.120110         3
        13        14        18        19     9      180.000000       -0.321902         4
        13        15        16        17     9        0.000000       -0.064726         1
        13        15        16        17     9      180.000000       18.645192         2
        13        15        16        17     9        0.000000       -1.664119         3
        13        15        16        17     9      180.000000       -0.484555         4
        13        15        16        37     9        0.000000        0.094024         1
        13        15        16        37     9      180.000000       14.324637         2
        13        15        16        37     9        0.000000       -0.532143         3
        13        15        16        37     9      180.000000        0.076596         4
        14        13        15        16     9        0.000000       -0.091120         1
        14        13        15        16     9      180.000000       16.222934         2
        14        13        15        16     9        0.000000       -0.935228         3
        14        13        15        16     9      180.000000       -0.285551         4
        14        13        15        36     9        0.000000       -0.016803         1
        14        13        15        36     9      180.000000       12.849793         2
        14        13        15        36     9        0.000000       -0.475369         3
        14        13        15        36     9      180.000000        0.105356         4
        14        18        17        16     9        0.000000       -0.025325         1
        14        18        17        16     9      180.000000       18.274509         2
        14        18        17        16     9        0.000000       -1.286094         3
        14        18        17        16     9      180.000000       -0.373843         4
        14        18        17        38     9        0.000000        0.068666         1
        14        18        17        38     9      180.000000       13.857810         2
        14        18        17        38     9        0.000000       -0.489187         3
        14        18        17        38     9      180.000000        0.009082         4
        14        18        19        20     9        0.000000       -0.353590         1
        14        18        19        20     9      180.000000        3.826244         2
        14        18        19        20     9        0.000000       -0.718059         3
        14        18        19        20     9      180.000000        0.830570         4
        15        13        14        18     9        0.000000        0.021304         1
        15        13        14        18     9      180.000000       15.794093         2
        15        13        14        18     9        0.000000       -0.948359         3
        15        13        14        18     9      180.000000       -0.362075         4
        15        13        14        35     9        0.000000        0.246613         1
        15        13        14        35     9      180.000000       12.236303         2
        15        13        14        35     9        0.000000       -0.371193         3
        15        13        14        35     9      180.000000        0.157210         4
        15        16        17        18     9        0.000000       -0.044652         1
        15        16        17        18     9      180.000000       18.346701         2
        15        16        17        18     9        0.000000       -1.460392         3
        15        16        17        18     9      180.000000       -0.448607         4
        15        16        17        38     9        0.000000        0.092811         1
        15        16        17        38     9      180.000000       14.433860         2
        15        16        17        38     9        0.000000       -0.677728         3
        15        16        17        38     9      180.000000        0.051389         4
        16        17        18        19     9        0.000000        0.147809         1
        16        17        18        19     9      180.000000       14.933086         2
        16        17        18        19     9        0.000000        0.080561         3
        16        17        18        19     9      180.000000       -0.240383         4
        17        16        15        36     9        0.000000        0.135348         1
        17        16        15        36     9      180.000000       14.465055         2
        17        16        15        36     9        0.000000       -0.687761         3
        17        16        15        36     9      180.000000        0.105643         4
        17        18        14        35     9        0.000000       -0.058215         1
        17        18        14        35     9      180.000000       13.500198         2
        17        18        14        35     9        0.000000       -0.479288         3
        17        18        14        35     9      180.000000        0.106147         4
        17        18        19        20     9        0.000000       -0.402211         1
        17        18        19        20     9      180.000000        3.739387         2
        17        18        19        20     9        0.000000       -0.567998         3
        17        18        19        20     9      180.000000        0.812049         4
        18        17        16        37     9        0.000000        0.056280         1
        18        17        16        37     9      180.000000       14.032613         2
        18        17        16        37     9        0.000000       -0.582917         3
        18        17        16        37     9      180.000000        0.114284         4
        18        19        20        21     9        0.000000       -0.416994         1
        18        19        20        21     9      180.000000        6.533347         2
        18        19        20        21     9        0.000000        0.733703         3
        18        19        20        21     9      180.000000        0.123179         4
        18        19        20        22     9        0.000000        1.633582         1
        18        19        20        22     9      180.000000        5.178147         2
        18        19        20        22     9        0.000000       -1.164552         3
        18        19        20        22     9      180.000000        0.609479         4
        19        18        14        35     9        0.000000       -0.133517         1
        19        18        14        35     9      180.000000       12.341659         2
        19        18        14        35     9        0.000000       -0.157944         3
        19        18        14        35     9      180.000000        0.109928         4
        19        18        17        38     9        0.000000       -0.100137         1
        19        18        17        38     9      180.000000       12.374157         2
        19        18        17        38     9        0.000000       -0.107807         3
        19        18        17        38     9      180.000000        0.088836         4
        19        20        21        25     9        0.000000        0.690448         1
        19        20        21        25     9      180.000000       20.363608         2
        19        20        21        25     9        0.000000        0.555847         3
        19        20        21        25     9      180.000000       -0.560052         4
        19        20        22        23     9        0.000000        0.424891         1
        19        20        22        23     9      180.000000       13.894651         2
        19        20        22        23     9        0.000000        0.275613         3
        19        20        22        23     9      180.000000       -0.643294         4
        19        20        22        39     9        0.000000        0.274217         1
        19        20        22        39     9      180.000000       11.261584         2
        19        20        22        39     9        0.000000        0.045420         3
        19        20        22        39     9      180.000000       -0.088592         4
        20        21        25        24     9        0.000000        0.286113         1
        20        21        25        24     9      180.000000       12.112049         2
        20        21        25        24     9        0.000000        0.425534         3
        20        21        25        24     9      180.000000       -0.451443         4
        20        21        25        26     9        0.000000        0.683931         1
        20        21        25        26     9      180.000000       20.126229         2
        20        21        25        26     9        0.000000        0.140990         3
        20        21        25        26     9      180.000000       -1.087344         4
        20        22        23        24     9        0.000000       -0.321952         1
        20        22        23        24     9      180.000000       14.134126         2
        20        22        23        24     9        0.000000       -0.689707         3
        20        22        23        24     9      180.000000       -0.273612         4
        21        20        22        23     9        0.000000       -0.086444         1
        21        20        22        23     9      180.000000       13.188718         2
        21        20        22        23     9        0.000000       -0.142150         3
        21        20        22        23     9      180.000000       -0.319738         4
        21        20        22        39     9        0.000000        0.031919         1
        21        20        22        39     9      180.000000       12.154307         2
        21        20        22        39     9        0.000000       -0.220120         3
        21        20        22        39     9      180.000000       -0.051823         4
        21        25        24        23     9        0.000000        0.493586         1
        21        25        24        23     9      180.000000       13.792063         2
        21        25        24        23     9        0.000000        0.544048         3
        21        25        24        23     9      180.000000       -0.731674         4
        21        25        26        40     9        0.000000        1.999312         1
        21        25        26        40     9      180.000000        8.414906         2
        21        25        26        40     9        0.000000       -0.095401         3
        21        25        26        40     9      180.000000       -0.638754         4
        21        25        26        41     9        0.000000        1.999312         1
        21        25        26        41     9      180.000000        8.414906         2
        21        25        26        41     9        0.000000       -0.095401         3
        21        25        26        41     9      180.000000       -0.638754         4
        22        20        21        25     9        0.000000       -0.333551         1
        22        20        21        25     9      180.000000       17.647148         2
        22        20        21        25     9        0.000000       -1.168419         3
        22        20        21        25     9      180.000000       -0.215012         4
        22        23        24        25     9        0.000000       -0.444891         1
        22        23        24        25     9      180.000000       16.888229         2
        22        23        24        25     9        0.000000       -1.004133         3
        22        23        24        25     9      180.000000       -0.272550         4
        23         2         1        27     9        0.000000       -0.189106         1
        23         2         1        27     9      180.000000       13.270244         2
        23         2         1        27     9        0.000000       -0.282744         3
        23         2         1        27     9      180.000000        0.264911         4
        23        24        25        26     9        0.000000        1.064236         1
        23        24        25        26     9      180.000000       19.907641         2
        23        24        25        26     9        0.000000        0.337893         3
        23        24        25        26     9      180.000000       -1.139762         4
        24        23        22        39     9        0.000000       -0.001501         1
        24        23        22        39     9      180.000000       13.387758         2
        24        23        22        39     9        0.000000       -0.272884         3
        24        23        22        39     9      180.000000       -0.111530         4
        24        25        26        40     9        0.000000        1.860873         1
        24        25        26        40     9      180.000000        8.241658         2
        24        25        26        40     9        0.000000       -0.157613         3
        24        25        26        40     9      180.000000       -0.751801         4
        24        25        26        41     9        0.000000        1.860873         1
        24        25        26        41     9      180.000000        8.241658         2
        24        25        26        41     9        0.000000       -0.157613         3
        24        25        26        41     9      180.000000       -0.751801         4
        31         5         6        32     9        0.000000       -0.172573         1
        31         5         6        32     9      180.000000       11.536441         2
        31         5         6        32     9        0.000000       -0.615024         3
        31         5         6        32     9      180.000000        0.277367         4
        33         9        10        42     9        0.000000        0.013870         1
        33         9        10        42     9      180.000000        0.085830         2
        33         9        10        42     9        0.000000        0.668461         3
        33         9        10        42     9      180.000000        0.059727         4
        33         9        10        43     9        0.000000        0.005092         1
        33         9        10        43     9      180.000000       -0.032465         2
        33         9        10        43     9        0.000000        0.669983         3
        33         9        10        43     9      180.000000       -0.048992         4
        33         9        10        44     9        0.000000        0.005092         1
        33         9        10        44     9      180.000000       -0.032465         2
        33         9        10        44     9        0.000000        0.669983         3
        33         9        10        44     9      180.000000       -0.048992         4
        34         9        10        42     9        0.000000        0.013870         1
        34         9        10        42     9      180.000000        0.085830         2
        34         9        10        42     9        0.000000        0.668461         3
        34         9        10        42     9      180.000000        0.059727         4
        34         9        10        43     9        0.000000        0.005092         1
        34         9        10        43     9      180.000000       -0.032465         2
        34         9        10        43     9        0.000000        0.669983         3
        34         9        10        43     9      180.000000       -0.048992         4
        34         9        10        44     9        0.000000        0.005092         1
        34         9        10        44     9      180.000000       -0.032465         2
        34         9        10        44     9        0.000000        0.669983         3
        34         9        10        44     9      180.000000       -0.048992         4
        36        15        16        37     9        0.000000       -0.173315         1
        36        15        16        37     9      180.000000       11.683787         2
        36        15        16        37     9        0.000000       -0.568860         3
        36        15        16        37     9      180.000000        0.194036         4
        37        16        17        38     9        0.000000       -0.029055         1
        37        16        17        38     9      180.000000       12.054902         2
        37        16        17        38     9        0.000000       -0.683621         3
        37        16        17        38     9      180.000000        0.221453         4
        42        45        11        46     9        0.000000        0.013871         1
        42        45        11        46     9      180.000000        0.085830         2
        42        45        11        46     9        0.000000        0.668460         3
        42        45        11        46     9      180.000000        0.059727         4
        42        45        11        47     9        0.000000        0.013871         1
        42        45        11        47     9      180.000000        0.085830         2
        42        45        11        47     9        0.000000        0.668460         3
        42        45        11        47     9      180.000000        0.059727         4
        43        10        42        45     9        0.000000       -0.245505         1
        43        10        42        45     9      180.000000        0.103769         2
        43        10        42        45     9        0.000000        0.524493         3
        43        10        42        45     9      180.000000        0.045896         4
        43        10        42        48     9        0.000000        0.126731         1
        43        10        42        48     9      180.000000       -0.034520         2
        43        10        42        48     9        0.000000        0.577743         3
        43        10        42        48     9      180.000000       -0.032819         4
        43        10        42        49     9        0.000000        0.126731         1
        43        10        42        49     9      180.000000       -0.034520         2
        43        10        42        49     9        0.000000        0.577743         3
        43        10        42        49     9      180.000000       -0.032819         4
        44        10        42        45     9        0.000000       -0.245505         1
        44        10        42        45     9      180.000000        0.103769         2
        44        10        42        45     9        0.000000        0.524493         3
        44        10        42        45     9      180.000000        0.045896         4
        44        10        42        48     9        0.000000        0.126731         1
        44        10        42        48     9      180.000000       -0.034520         2
        44        10        42        48     9        0.000000        0.577743         3
        44        10        42        48     9      180.000000       -0.032819         4
        44        10        42        49     9        0.000000        0.126731         1
        44        10        42        49     9      180.000000       -0.034520         2
        44        10        42        49     9        0.000000        0.577743         3
        44        10        42        49     9      180.000000       -0.032819         4
        46        11        45        50     9        0.000000        0.005092         1
        46        11        45        50     9      180.000000       -0.032466         2
        46        11        45        50     9        0.000000        0.669982         3
        46        11        45        50     9      180.000000       -0.048992         4
        46        11        45        51     9        0.000000        0.005092         1
        46        11        45        51     9      180.000000       -0.032466         2
        46        11        45        51     9        0.000000        0.669982         3
        46        11        45        51     9      180.000000       -0.048992         4
        47        11        45        50     9        0.000000        0.005092         1
        47        11        45        50     9      180.000000       -0.032466         2
        47        11        45        50     9        0.000000        0.669982         3
        47        11        45        50     9      180.000000       -0.048992         4
        47        11        45        51     9        0.000000        0.005092         1
        47        11        45        51     9      180.000000       -0.032466         2
        47        11        45        51     9        0.000000        0.669982         3
        47        11        45        51     9      180.000000       -0.048992         4
        48        42        45        50     9        0.000000        0.126732         1
        48        42        45        50     9      180.000000       -0.034520         2
        48        42        45        50     9        0.000000        0.577743         3
        48        42        45        50     9      180.000000       -0.032819         4
        48        42        45        51     9        0.000000        0.126732         1
        48        42        45        51     9      180.000000       -0.034520         2
        48        42        45        51     9        0.000000        0.577743         3
        48        42        45        51     9      180.000000       -0.032819         4
        49        42        45        50     9        0.000000        0.126732         1
        49        42        45        50     9      180.000000       -0.034520         2
        49        42        45        50     9        0.000000        0.577743         3
        49        42        45        50     9      180.000000       -0.032819         4
        49        42        45        51     9        0.000000        0.126732         1
        49        42        45        51     9      180.000000       -0.034520         2
        49        42        45        51     9        0.000000        0.577743         3
        49        42        45        51     9      180.000000       -0.032819         4

[ dihedrals ] ; impropers
;       ai        aj        ak        al funct           phase               k        pn
        14        13        18        35     4      180.000000        1.626954         2
        14        18        35        13     4      180.000000        1.626954         2
        14        35        13        18     4      180.000000        1.626954         2
        15        13        16        36     4      180.000000        1.216823         2
        15        16        36        13     4      180.000000        1.216823         2
        15        36        13        16     4      180.000000        1.216823         2
        16        15        17        37     4      180.000000        2.803440         2
        16        17        37        15     4      180.000000        2.803440         2
        16        37        15        17     4      180.000000        2.803440         2
        17        16        18        38     4      180.000000        0.889818         2
        17        18        38        16     4      180.000000        0.889818         2
        17        38        16        18     4      180.000000        0.889818         2
        20        19        21        22     4      180.000000        6.653471         2
        20        21        22        19     4      180.000000        6.653471         2
        20        22        19        21     4      180.000000        6.653471         2
        23         2        22        24     4      180.000000        4.559394         2
        23        22        24         2     4      180.000000        4.559394         2
        23        24         2        22     4      180.000000        4.559394         2
        25        21        24        26     4      180.000000        5.578667         2
        25        24        26        21     4      180.000000        5.578667         2
        25        26        21        24     4      180.000000        5.578667         2

[ pairs ]
;       ai        aj funct
         1         4     1
         1         5     1
         1         9     1
         1        22     1
         1        24     1
         1        32     1
         2         6     1
         2         8     1
         2        20     1
         2        25     1
         2        28     1
         2        29     1
         2        30     1
         2        31     1
         2        39     1
         3         7     1
         3        22     1
         3        24     1
         3        27     1
         3        32     1
         4         6     1
         4        23     1
         4        31     1
         5         8     1
         5        23     1
         5        28     1
         5        29     1
         5        30     1
         6         9     1
         6        27     1
         7        10     1
         7        23     1
         7        31     1
         7        33     1
         7        34     1
         8        27     1
         8        32     1
         8        42     1
         8        43     1
         8        44     1
         9        45     1
         9        48     1
         9        49     1
        10        11     1
        10        50     1
        10        51     1
        11        14     1
        11        15     1
        11        48     1
        11        49     1
        12        16     1
        12        18     1
        12        35     1
        12        36     1
        12        42     1
        12        50     1
        12        51     1
        13        17     1
        13        19     1
        13        37     1
        13        45     1
        13        46     1
        13        47     1
        14        16     1
        14        20     1
        14        36     1
        14        38     1
        15        18     1
        15        35     1
        15        38     1
        16        19     1
        17        20     1
        17        35     1
        17        36     1
        18        21     1
        18        22     1
        18        37     1
        19        23     1
        19        25     1
        19        35     1
        19        38     1
        19        39     1
        20        24     1
        20        26     1
        21        23     1
        21        39     1
        21        40     1
        21        41     1
        22        25     1
        23        26     1
        23        27     1
        24        39     1
        24        40     1
        24        41     1
        31        32     1
        33        42     1
        33        43     1
        33        44     1
        34        42     1
        34        43     1
        34        44     1
        36        37     1
        37        38     1
        42        46     1
        42        47     1
        43        45     1
        43        48     1
        43        49     1
        44        45     1
        44        48     1
        44        49     1
        46        50     1
        46        51     1
        47        50     1
        47        51     1
        48        50     1
        48        51     1
        49        50     1
        49        51     1
