; ITP file created by ByteFF-ML, 2025-12-06 06:50:22.543893

[ atomtypes ]
;name           bonded.type        at.num        mass        charge   ptype           sigma         epsilon
 c0bf                                   6      0.0000       0.00000       A     3.39665e-01     4.51156e-01
 s1bf                                  16      0.0000       0.00000       A     3.53447e-01     1.18442e+00
 c2bf                                   6      0.0000       0.00000       A     3.31257e-01     4.14351e-01
 n3bf                                   7      0.0000       0.00000       A     3.38576e-01     3.94106e-01
 n4bf                                   7      0.0000       0.00000       A     3.38296e-01     3.93822e-01
 c5bf                                   6      0.0000       0.00000       A     3.31318e-01     4.14772e-01
 n6bf                                   7      0.0000       0.00000       A     3.36881e-01     4.72192e-01
 n7bf                                   7      0.0000       0.00000       A     3.38630e-01     3.88911e-01
 c8bf                                   6      0.0000       0.00000       A     3.31540e-01     4.09708e-01
 c9bf                                   6      0.0000       0.00000       A     3.31381e-01     4.08450e-01
 c10bf                                  6      0.0000       0.00000       A     3.31466e-01     4.12795e-01
 c11bf                                  6      0.0000       0.00000       A     3.31525e-01     4.13168e-01
 c12bf                                  6      0.0000       0.00000       A     3.31487e-01     4.13015e-01
 c13bf                                  6      0.0000       0.00000       A     3.31464e-01     4.12483e-01
 c14bf                                  6      0.0000       0.00000       A     3.31482e-01     4.12308e-01
 cl15bf                                17      0.0000       0.00000       A     3.46672e-01     1.10576e+00
 h16bf                                  1      0.0000       0.00000       A     2.41670e-01     8.58143e-02
 h17bf                                  1      0.0000       0.00000       A     2.41670e-01     8.58143e-02
 h18bf                                  1      0.0000       0.00000       A     2.41670e-01     8.58143e-02
 h19bf                                  1      0.0000       0.00000       A     1.10073e-01     4.24538e-02
 h20bf                                  1      0.0000       0.00000       A     1.10073e-01     4.24538e-02
 h21bf                                  1      0.0000       0.00000       A     2.62495e-01     6.73046e-02
 h22bf                                  1      0.0000       0.00000       A     2.62467e-01     6.73573e-02
 h23bf                                  1      0.0000       0.00000       A     2.62466e-01     6.72440e-02
 h24bf                                  1      0.0000       0.00000       A     2.62446e-01     6.72743e-02

[ moleculetype ]
;name             nrexcl
 lig_3B27              3

[ atoms ]
;       nr            type      resi   res      atom      cgnr      charge          mass ; qtot
         1            c0bf         1   UNL        c0         1     0.02740       12.0110 ; qtot    0.027
         2            s1bf         1   UNL        s1         2    -0.29395       32.0670 ; qtot   -0.267
         3            c2bf         1   UNL        c2         3     0.27948       12.0110 ; qtot    0.013
         4            n3bf         1   UNL        n3         4    -0.22055       14.0070 ; qtot   -0.208
         5            n4bf         1   UNL        n4         5    -0.26995       14.0070 ; qtot   -0.478
         6            c5bf         1   UNL        c5         6     0.38578       12.0110 ; qtot   -0.092
         7            n6bf         1   UNL        n6         7    -1.03349       14.0070 ; qtot   -1.125
         8            n7bf         1   UNL        n7         8    -0.25592       14.0070 ; qtot   -1.381
         9            c8bf         1   UNL        c8         9     0.24117       12.0110 ; qtot   -1.140
        10            c9bf         1   UNL        c9        10    -0.13848       12.0110 ; qtot   -1.279
        11           c10bf         1   UNL       c10        11    -0.05137       12.0110 ; qtot   -1.330
        12           c11bf         1   UNL       c11        12    -0.12294       12.0110 ; qtot   -1.453
        13           c12bf         1   UNL       c12        13    -0.09008       12.0110 ; qtot   -1.543
        14           c13bf         1   UNL       c13        14    -0.12063       12.0110 ; qtot   -1.664
        15           c14bf         1   UNL       c14        15     0.16859       12.0110 ; qtot   -1.495
        16          cl15bf         1   UNL      cl15        16    -0.19140       35.4530 ; qtot   -1.686
        17           h16bf         1   UNL       h16        17     0.07068        1.0080 ; qtot   -1.616
        18           h17bf         1   UNL       h17        18     0.07068        1.0080 ; qtot   -1.545
        19           h18bf         1   UNL       h18        19     0.07068        1.0080 ; qtot   -1.474
        20           h19bf         1   UNL       h19        20     0.48263        1.0080 ; qtot   -0.992
        21           h20bf         1   UNL       h20        21     0.48263        1.0080 ; qtot   -0.509
        22           h21bf         1   UNL       h21        22     0.13472        1.0080 ; qtot   -0.374
        23           h22bf         1   UNL       h22        23     0.12073        1.0080 ; qtot   -0.254
        24           h23bf         1   UNL       h23        24     0.12342        1.0080 ; qtot   -0.130
        25           h24bf         1   UNL       h24        25     0.13017        1.0080 ; qtot    0.000

[ bonds ]
;       ai        aj funct               r               k
         1         2     1        0.182459   132400.080322
         1        17     1        0.109083   312003.362207
         1        18     1        0.109083   312003.362207
         1        19     1        0.109083   312003.362207
         2         3     1        0.176341   148753.751489
         3         4     1        0.134090   277550.507373
         3         5     1        0.133566   295072.616211
         4         9     1        0.133967   291223.918457
         5         6     1        0.134545   276210.243262
         6         7     1        0.136424   335997.468359
         6         8     1        0.134598   272374.058691
         7        20     1        0.101086   430238.339941
         7        21     1        0.101086   430238.339941
         8         9     1        0.133381   308426.532520
         9        10     1        0.148840   200252.550220
        10        11     1        0.140814   281150.601367
        10        15     1        0.140635   265745.212451
        11        12     1        0.139311   323587.863281
        11        22     1        0.108450   323655.970752
        12        13     1        0.139918   305619.595605
        12        23     1        0.108594   320918.111719
        13        14     1        0.139603   311750.366064
        13        24     1        0.108568   322678.844336
        14        15     1        0.139840   301402.754883
        14        25     1        0.108451   324300.655078
        15        16     1        0.175464   147607.058667

[ angles ]
;       ai        aj        ak funct           theta             cth
         1         2         3     1      101.035507      789.948789
         2         1        17     1      109.034012      447.494684
         2         1        18     1      109.034012      447.494684
         2         1        19     1      109.034012      447.494684
         2         3         4     1      116.575356      390.667050
         2         3         5     1      116.751610      385.876001
         3         4         9     1      114.865417      979.702727
         3         5         6     1      114.205627     1036.845266
         4         3         5     1      126.036156      698.181378
         4         9         8     1      125.233505      661.269849
         4         9        10     1      117.263779      431.266968
         5         6         7     1      116.750305      603.143621
         5         6         8     1      125.871071      692.669704
         6         7        20     1      117.010155      464.013714
         6         7        21     1      117.010155      464.013714
         6         8         9     1      114.782852     1046.476842
         7         6         8     1      116.823074      599.016186
         8         9        10     1      117.566452      428.615769
         9        10        11     1      117.701828      533.817966
         9        10        15     1      124.733444      534.430570
        10        11        12     1      121.403915      669.124808
        10        11        22     1      117.950905      413.308475
        10        15        14     1      120.780045      630.545961
        10        15        16     1      122.417038      351.807486
        11        10        15     1      117.893311      537.564963
        11        12        13     1      119.685928      724.456127
        11        12        23     1      120.093765      444.429912
        12        11        22     1      120.697388      415.749823
        12        13        14     1      119.884354      662.200166
        12        13        24     1      120.516113      427.499223
        13        12        23     1      120.314491      446.755321
        13        14        15     1      120.026566      638.629286
        13        14        25     1      120.744911      434.304831
        14        13        24     1      119.609741      435.712053
        14        15        16     1      116.639420      402.517546
        15        14        25     1      119.237732      412.291811
        17         1        18     1      109.924942      349.674499
        17         1        19     1      109.924942      349.674499
        18         1        19     1      109.924942      349.674499
        20         7        21     1      118.533875      310.026701

[ dihedrals ] ; propers for gromacs 4.5 or higher, use funct 9
;       ai        aj        ak        al funct           phase               k        pn
         1         2         3         4     9        0.000000        0.207337         1
         1         2         3         4     9      180.000000       10.598703         2
         1         2         3         4     9        0.000000        0.330430         3
         1         2         3         4     9      180.000000        0.201623         4
         1         2         3         5     9        0.000000        0.825199         1
         1         2         3         5     9      180.000000       10.351446         2
         1         2         3         5     9        0.000000        0.368981         3
         1         2         3         5     9      180.000000        0.262468         4
         2         3         4         9     9        0.000000        0.634245         1
         2         3         4         9     9      180.000000       15.063894         2
         2         3         4         9     9        0.000000       -0.061819         3
         2         3         4         9     9      180.000000       -0.859161         4
         2         3         5         6     9        0.000000        0.891752         1
         2         3         5         6     9      180.000000       18.574141         2
         2         3         5         6     9        0.000000        0.142075         3
         2         3         5         6     9      180.000000       -0.902384         4
         3         2         1        17     9        0.000000       -0.086056         1
         3         2         1        17     9      180.000000        0.182640         2
         3         2         1        17     9        0.000000        0.011456         3
         3         2         1        17     9      180.000000        0.170647         4
         3         2         1        18     9        0.000000       -0.086056         1
         3         2         1        18     9      180.000000        0.182640         2
         3         2         1        18     9        0.000000        0.011456         3
         3         2         1        18     9      180.000000        0.170647         4
         3         2         1        19     9        0.000000       -0.086056         1
         3         2         1        19     9      180.000000        0.182640         2
         3         2         1        19     9        0.000000        0.011456         3
         3         2         1        19     9      180.000000        0.170647         4
         3         4         9         8     9        0.000000       -0.782737         1
         3         4         9         8     9      180.000000       14.136871         2
         3         4         9         8     9        0.000000        0.069234         3
         3         4         9         8     9      180.000000       -0.355526         4
         3         4         9        10     9        0.000000        0.126455         1
         3         4         9        10     9      180.000000       17.347965         2
         3         4         9        10     9        0.000000        0.247216         3
         3         4         9        10     9      180.000000       -0.640202         4
         3         5         6         7     9        0.000000        0.358502         1
         3         5         6         7     9      180.000000       19.096016         2
         3         5         6         7     9        0.000000       -0.281580         3
         3         5         6         7     9      180.000000       -1.032214         4
         3         5         6         8     9        0.000000        0.093924         1
         3         5         6         8     9      180.000000       11.917711         2
         3         5         6         8     9        0.000000        0.314857         3
         3         5         6         8     9      180.000000       -0.363432         4
         4         3         5         6     9        0.000000       -0.589463         1
         4         3         5         6     9      180.000000       13.115024         2
         4         3         5         6     9        0.000000       -0.092481         3
         4         3         5         6     9      180.000000       -0.421008         4
         4         9         8         6     9        0.000000       -0.903009         1
         4         9         8         6     9      180.000000       15.926764         2
         4         9         8         6     9        0.000000       -0.098852         3
         4         9         8         6     9      180.000000       -0.227504         4
         4         9        10        11     9        0.000000       -0.114923         1
         4         9        10        11     9      180.000000        4.170991         2
         4         9        10        11     9        0.000000       -0.117347         3
         4         9        10        11     9      180.000000        0.075196         4
         4         9        10        15     9        0.000000        0.454065         1
         4         9        10        15     9      180.000000        2.840040         2
         4         9        10        15     9        0.000000        0.319860         3
         4         9        10        15     9      180.000000       -0.082815         4
         5         3         4         9     9        0.000000        0.254316         1
         5         3         4         9     9      180.000000       11.315160         2
         5         3         4         9     9        0.000000        0.492224         3
         5         3         4         9     9      180.000000       -0.486488         4
         5         6         7        20     9        0.000000        1.665390         1
         5         6         7        20     9      180.000000        8.724680         2
         5         6         7        20     9        0.000000       -0.133074         3
         5         6         7        20     9      180.000000       -0.881573         4
         5         6         7        21     9        0.000000        1.665390         1
         5         6         7        21     9      180.000000        8.724680         2
         5         6         7        21     9        0.000000       -0.133074         3
         5         6         7        21     9      180.000000       -0.881573         4
         5         6         8         9     9        0.000000        0.177593         1
         5         6         8         9     9      180.000000       11.018896         2
         5         6         8         9     9        0.000000        0.538978         3
         5         6         8         9     9      180.000000       -0.562137         4
         6         8         9        10     9        0.000000        0.083373         1
         6         8         9        10     9      180.000000       18.625040         2
         6         8         9        10     9        0.000000        0.325558         3
         6         8         9        10     9      180.000000       -0.814111         4
         7         6         8         9     9        0.000000        0.880744         1
         7         6         8         9     9      180.000000       18.352036         2
         7         6         8         9     9        0.000000        0.123893         3
         7         6         8         9     9      180.000000       -1.030147         4
         8         6         7        20     9        0.000000        0.574992         1
         8         6         7        20     9      180.000000        8.896828         2
         8         6         7        20     9        0.000000       -0.229511         3
         8         6         7        20     9      180.000000       -0.911435         4
         8         6         7        21     9        0.000000        0.574992         1
         8         6         7        21     9      180.000000        8.896828         2
         8         6         7        21     9        0.000000       -0.229511         3
         8         6         7        21     9      180.000000       -0.911435         4
         8         9        10        11     9        0.000000       -0.102193         1
         8         9        10        11     9      180.000000        4.111493         2
         8         9        10        11     9        0.000000       -0.140469         3
         8         9        10        11     9      180.000000        0.048581         4
         8         9        10        15     9        0.000000        0.477737         1
         8         9        10        15     9      180.000000        2.831024         2
         8         9        10        15     9        0.000000        0.285118         3
         8         9        10        15     9      180.000000       -0.123774         4
         9        10        11        12     9        0.000000       -0.241937         1
         9        10        11        12     9      180.000000       16.300869         2
         9        10        11        12     9        0.000000       -0.480063         3
         9        10        11        12     9      180.000000       -0.328297         4
         9        10        11        22     9        0.000000       -0.188065         1
         9        10        11        22     9      180.000000       12.442629         2
         9        10        11        22     9        0.000000       -0.379133         3
         9        10        11        22     9      180.000000        0.133530         4
         9        10        15        14     9        0.000000        0.075301         1
         9        10        15        14     9      180.000000       13.354764         2
         9        10        15        14     9        0.000000       -0.438847         3
         9        10        15        14     9      180.000000       -0.306228         4
         9        10        15        16     9        0.000000        0.107439         1
         9        10        15        16     9      180.000000       15.242997         2
         9        10        15        16     9        0.000000        0.395717         3
         9        10        15        16     9      180.000000       -0.818844         4
        10        11        12        13     9        0.000000       -0.023732         1
        10        11        12        13     9      180.000000       19.511744         2
        10        11        12        13     9        0.000000       -1.665397         3
        10        11        12        13     9      180.000000       -0.500354         4
        10        11        12        23     9        0.000000        0.013760         1
        10        11        12        23     9      180.000000       14.940616         2
        10        11        12        23     9        0.000000       -0.646762         3
        10        11        12        23     9      180.000000        0.056582         4
        10        15        14        13     9        0.000000        0.012969         1
        10        15        14        13     9      180.000000       18.218846         2
        10        15        14        13     9        0.000000       -1.548081         3
        10        15        14        13     9      180.000000       -0.416441         4
        10        15        14        25     9        0.000000        0.050688         1
        10        15        14        25     9      180.000000       14.044880         2
        10        15        14        25     9        0.000000       -0.639785         3
        10        15        14        25     9      180.000000        0.049509         4
        11        10        15        14     9        0.000000       -0.000877         1
        11        10        15        14     9      180.000000       16.970666         2
        11        10        15        14     9        0.000000       -1.028613         3
        11        10        15        14     9      180.000000       -0.421696         4
        11        10        15        16     9        0.000000        0.433476         1
        11        10        15        16     9      180.000000       17.830419         2
        11        10        15        16     9        0.000000        0.492861         3
        11        10        15        16     9      180.000000       -0.702360         4
        11        12        13        14     9        0.000000       -0.028974         1
        11        12        13        14     9      180.000000       18.548921         2
        11        12        13        14     9        0.000000       -1.489449         3
        11        12        13        14     9      180.000000       -0.401830         4
        11        12        13        24     9        0.000000        0.016944         1
        11        12        13        24     9      180.000000       14.060910         2
        11        12        13        24     9        0.000000       -0.765824         3
        11        12        13        24     9      180.000000        0.125806         4
        12        11        10        15     9        0.000000        0.044327         1
        12        11        10        15     9      180.000000       17.186758         2
        12        11        10        15     9        0.000000       -1.270618         3
        12        11        10        15     9      180.000000       -0.303222         4
        12        13        14        15     9        0.000000       -0.034466         1
        12        13        14        15     9      180.000000       18.982093         2
        12        13        14        15     9        0.000000       -1.482148         3
        12        13        14        15     9      180.000000       -0.452219         4
        12        13        14        25     9        0.000000       -0.041319         1
        12        13        14        25     9      180.000000       14.449413         2
        12        13        14        25     9        0.000000       -0.728478         3
        12        13        14        25     9      180.000000        0.185238         4
        13        12        11        22     9        0.000000       -0.068782         1
        13        12        11        22     9      180.000000       15.083433         2
        13        12        11        22     9        0.000000       -0.741497         3
        13        12        11        22     9      180.000000        0.137157         4
        13        14        15        16     9        0.000000        0.366017         1
        13        14        15        16     9      180.000000       21.056352         2
        13        14        15        16     9        0.000000        0.460197         3
        13        14        15        16     9      180.000000       -0.763650         4
        14        13        12        23     9        0.000000        0.031022         1
        14        13        12        23     9      180.000000       14.340066         2
        14        13        12        23     9        0.000000       -0.758212         3
        14        13        12        23     9      180.000000        0.123258         4
        15        10        11        22     9        0.000000       -0.079271         1
        15        10        11        22     9      180.000000       13.140729         2
        15        10        11        22     9        0.000000       -0.763556         3
        15        10        11        22     9      180.000000        0.160397         4
        15        14        13        24     9        0.000000        0.123269         1
        15        14        13        24     9      180.000000       14.192849         2
        15        14        13        24     9        0.000000       -0.572806         3
        15        14        13        24     9      180.000000        0.080033         4
        16        15        14        25     9        0.000000        0.004920         1
        16        15        14        25     9      180.000000       14.855328         2
        16        15        14        25     9        0.000000       -0.083134         3
        16        15        14        25     9      180.000000        0.154641         4
        22        11        12        23     9        0.000000       -0.311886         1
        22        11        12        23     9      180.000000       12.357909         2
        22        11        12        23     9        0.000000       -0.709032         3
        22        11        12        23     9      180.000000        0.345644         4
        23        12        13        24     9        0.000000       -0.114136         1
        23        12        13        24     9      180.000000       11.119154         2
        23        12        13        24     9        0.000000       -0.426533         3
        23        12        13        24     9      180.000000        0.193790         4
        24        13        14        25     9        0.000000       -0.210951         1
        24        13        14        25     9      180.000000       11.530659         2
        24        13        14        25     9        0.000000       -0.679269         3
        24        13        14        25     9      180.000000        0.307250         4

[ dihedrals ] ; impropers
;       ai        aj        ak        al funct           phase               k        pn
         3         2         4         5     4      180.000000       27.893333         2
         3         4         5         2     4      180.000000       27.893333         2
         3         5         2         4     4      180.000000       27.893333         2
         6         5         7         8     4      180.000000       22.314667         2
         6         7         8         5     4      180.000000       22.314667         2
         6         8         5         7     4      180.000000       22.314667         2

[ pairs ]
;       ai        aj funct
         1         4     1
         1         5     1
         2         6     1
         2         9     1
         3         7     1
         3         8     1
         3        10     1
         3        17     1
         3        18     1
         3        19     1
         4         6     1
         4        11     1
         4        15     1
         5         9     1
         5        20     1
         5        21     1
         6        10     1
         7         9     1
         8        11     1
         8        15     1
         8        20     1
         8        21     1
         9        12     1
         9        14     1
         9        16     1
         9        22     1
        10        13     1
        10        23     1
        10        25     1
        11        14     1
        11        16     1
        11        24     1
        12        15     1
        12        25     1
        13        16     1
        13        22     1
        14        23     1
        15        22     1
        15        24     1
        16        25     1
        22        23     1
        23        24     1
        24        25     1
