; ITP file created by ByteFF-ML, 2025-12-06 08:09:04.440625

[ atomtypes ]
;name           bonded.type        at.num        mass        charge   ptype           sigma         epsilon
 c0bf                                   6      0.0000       0.00000       A     3.39759e-01     4.49643e-01
 h1bf                                   1      0.0000       0.00000       A     2.60016e-01     8.70704e-02
 h2bf                                   1      0.0000       0.00000       A     2.60016e-01     8.70704e-02
 h3bf                                   1      0.0000       0.00000       A     2.60016e-01     8.70704e-02
 c4bf                                   6      0.0000       0.00000       A     3.31571e-01     4.14142e-01
 o5bf                                   8      0.0000       0.00000       A     3.04736e-01     6.12198e-01
 n6bf                                   7      0.0000       0.00000       A     3.26918e-01     4.88910e-01
 h7bf                                   1      0.0000       0.00000       A     1.10581e-01     4.00581e-02
 c8bf                                   6      0.0000       0.00000       A     3.40196e-01     4.52850e-01
 h9bf                                   1      0.0000       0.00000       A     2.42552e-01     8.80025e-02
 c10bf                                  6      0.0000       0.00000       A     3.39753e-01     4.51539e-01
 h11bf                                  1      0.0000       0.00000       A     2.42186e-01     8.70863e-02
 c12bf                                  6      0.0000       0.00000       A     3.39826e-01     4.49268e-01
 h13bf                                  1      0.0000       0.00000       A     2.60038e-01     8.81158e-02
 h14bf                                  1      0.0000       0.00000       A     2.60038e-01     8.81158e-02
 c15bf                                  6      0.0000       0.00000       A     3.39787e-01     4.50885e-01
 h16bf                                  1      0.0000       0.00000       A     1.87782e-01     8.61542e-02
 h17bf                                  1      0.0000       0.00000       A     1.87782e-01     8.61542e-02
 c18bf                                  6      0.0000       0.00000       A     3.31422e-01     4.12179e-01
 o19bf                                  8      0.0000       0.00000       A     3.24609e-01     3.92421e-01
 h20bf                                  1      0.0000       0.00000       A     5.35605e-02     1.98375e-02
 n21bf                                  7      0.0000       0.00000       A     2.67375e-01     7.04506e+00
 h22bf                                  1      0.0000       0.00000       A     1.10868e-01     4.18346e-02
 c23bf                                  6      0.0000       0.00000       A     3.31516e-01     4.12672e-01
 h24bf                                  1      0.0000       0.00000       A     2.62462e-01     6.71642e-02
 h25bf                                  1      0.0000       0.00000       A     1.10868e-01     4.18346e-02
 c26bf                                  6      0.0000       0.00000       A     3.40062e-01     4.49528e-01
 c27bf                                  6      0.0000       0.00000       A     3.31520e-01     4.13508e-01
 f28bf                                  9      0.0000       0.00000       A     3.03421e-01     3.47466e-01
 c29bf                                  6      0.0000       0.00000       A     3.39962e-01     4.51215e-01
 h30bf                                  1      0.0000       0.00000       A     2.59836e-01     8.67256e-02
 h31bf                                  1      0.0000       0.00000       A     2.59836e-01     8.67256e-02
 c32bf                                  6      0.0000       0.00000       A     3.31257e-01     4.14127e-01
 c33bf                                  6      0.0000       0.00000       A     3.31572e-01     4.12292e-01
 h34bf                                  1      0.0000       0.00000       A     2.62456e-01     6.72600e-02
 c35bf                                  6      0.0000       0.00000       A     3.39866e-01     4.50704e-01
 c36bf                                  6      0.0000       0.00000       A     3.31330e-01     4.13085e-01
 c37bf                                  6      0.0000       0.00000       A     3.31520e-01     4.13508e-01
 f38bf                                  9      0.0000       0.00000       A     3.03421e-01     3.47466e-01
 h39bf                                  1      0.0000       0.00000       A     2.60178e-01     8.66937e-02
 h40bf                                  1      0.0000       0.00000       A     2.60178e-01     8.66937e-02
 h41bf                                  1      0.0000       0.00000       A     2.62648e-01     6.75233e-02
 c42bf                                  6      0.0000       0.00000       A     3.39895e-01     4.51375e-01
 h43bf                                  1      0.0000       0.00000       A     2.59998e-01     8.72507e-02
 h44bf                                  1      0.0000       0.00000       A     2.59998e-01     8.72507e-02
 c45bf                                  6      0.0000       0.00000       A     3.31535e-01     4.15195e-01
 c46bf                                  6      0.0000       0.00000       A     3.31516e-01     4.12672e-01
 h47bf                                  1      0.0000       0.00000       A     2.62462e-01     6.71642e-02
 c48bf                                  6      0.0000       0.00000       A     3.39866e-01     4.50704e-01
 h49bf                                  1      0.0000       0.00000       A     2.60178e-01     8.66937e-02
 h50bf                                  1      0.0000       0.00000       A     2.60178e-01     8.66937e-02
 c51bf                                  6      0.0000       0.00000       A     3.31488e-01     4.11291e-01
 h52bf                                  1      0.0000       0.00000       A     2.62580e-01     6.76207e-02
 n53bf                                  7      0.0000       0.00000       A     3.21335e-01     8.47628e-01
 c54bf                                  6      0.0000       0.00000       A     3.39962e-01     4.51215e-01
 h55bf                                  1      0.0000       0.00000       A     2.59836e-01     8.67256e-02
 h56bf                                  1      0.0000       0.00000       A     2.59836e-01     8.67256e-02
 c57bf                                  6      0.0000       0.00000       A     3.31477e-01     4.13693e-01
 h58bf                                  1      0.0000       0.00000       A     2.62521e-01     6.74164e-02
 n59bf                                  7      0.0000       0.00000       A     3.38206e-01     3.92935e-01
 c60bf                                  6      0.0000       0.00000       A     3.31483e-01     4.12651e-01
 h61bf                                  1      0.0000       0.00000       A     2.62654e-01     6.75121e-02
 c62bf                                  6      0.0000       0.00000       A     3.31301e-01     4.12308e-01
 h63bf                                  1      0.0000       0.00000       A     2.53896e-01     6.74946e-02
 c64bf                                  6      0.0000       0.00000       A     3.31301e-01     4.12309e-01
 h65bf                                  1      0.0000       0.00000       A     2.53896e-01     6.74946e-02
 n66bf                                  7      0.0000       0.00000       A     3.38206e-01     3.92935e-01

[ moleculetype ]
;name             nrexcl
 22256_26_0_ligand       3

[ atoms ]
;       nr            type      resi   res      atom      cgnr      charge          mass ; qtot
         1            c0bf         1   UNL        c0         1    -0.17635       12.0110 ; qtot   -0.176
         2            h1bf         1   UNL        h1         2     0.06225        1.0080 ; qtot   -0.114
         3            h2bf         1   UNL        h2         3     0.06225        1.0080 ; qtot   -0.052
         4            h3bf         1   UNL        h3         4     0.06225        1.0080 ; qtot    0.010
         5            c4bf         1   UNL        c4         5     0.60223       12.0110 ; qtot    0.613
         6            o5bf         1   UNL        o5         6    -0.61219       15.9990 ; qtot    0.000
         7            n6bf         1   UNL        n6         7    -0.51471       14.0070 ; qtot   -0.514
         8            h7bf         1   UNL        h7         8     0.32227        1.0080 ; qtot   -0.192
         9            c8bf         1   UNL        c8         9     0.10285       12.0110 ; qtot   -0.089
        10            h9bf         1   UNL        h9        10     0.08510        1.0080 ; qtot   -0.004
        11           c10bf         1   UNL       c10        11     0.15086       12.0110 ; qtot    0.147
        12           h11bf         1   UNL       h11        12     0.07889        1.0080 ; qtot    0.226
        13           c12bf         1   UNL       c12        13    -0.03751       12.0110 ; qtot    0.188
        14           h13bf         1   UNL       h13        14     0.06639        1.0080 ; qtot    0.255
        15           h14bf         1   UNL       h14        15     0.06639        1.0080 ; qtot    0.321
        16           c15bf         1   UNL       c15        16     0.11168       12.0110 ; qtot    0.433
        17           h16bf         1   UNL       h16        17     0.11120        1.0080 ; qtot    0.544
        18           h17bf         1   UNL       h17        18     0.11120        1.0080 ; qtot    0.655
        19           c18bf         1   UNL       c18        19    -0.03374       12.0110 ; qtot    0.621
        20           o19bf         1   UNL       o19        20    -0.69061       15.9990 ; qtot   -0.069
        21           h20bf         1   UNL       h20        21     0.49888        1.0080 ; qtot    0.430
        22           n21bf         1   UNL       n21        22    -0.82772       14.0070 ; qtot   -0.398
        23           h22bf         1   UNL       h22        23     0.51482        1.0080 ; qtot    0.117
        24           c23bf         1   UNL       c23        24    -0.15563       12.0110 ; qtot   -0.039
        25           h24bf         1   UNL       h24        25     0.13725        1.0080 ; qtot    0.098
        26           h25bf         1   UNL       h25        26     0.51482        1.0080 ; qtot    0.613
        27           c26bf         1   UNL       c26        27     0.21336       12.0110 ; qtot    0.826
        28           c27bf         1   UNL       c27        28     0.18913       12.0110 ; qtot    1.016
        29           f28bf         1   UNL       f28        29    -0.17421       18.9980 ; qtot    0.841
        30           c29bf         1   UNL       c29        30    -0.08781       12.0110 ; qtot    0.754
        31           h30bf         1   UNL       h30        31     0.07147        1.0080 ; qtot    0.825
        32           h31bf         1   UNL       h31        32     0.07147        1.0080 ; qtot    0.897
        33           c32bf         1   UNL       c32        33    -0.14385       12.0110 ; qtot    0.753
        34           c33bf         1   UNL       c33        34    -0.18801       12.0110 ; qtot    0.565
        35           h34bf         1   UNL       h34        35     0.15358        1.0080 ; qtot    0.718
        36           c35bf         1   UNL       c35        36    -0.07132       12.0110 ; qtot    0.647
        37           c36bf         1   UNL       c36        37    -0.06510       12.0110 ; qtot    0.582
        38           c37bf         1   UNL       c37        38     0.18913       12.0110 ; qtot    0.771
        39           f38bf         1   UNL       f38        39    -0.17421       18.9980 ; qtot    0.597
        40           h39bf         1   UNL       h39        40     0.05675        1.0080 ; qtot    0.654
        41           h40bf         1   UNL       h40        41     0.05675        1.0080 ; qtot    0.710
        42           h41bf         1   UNL       h41        42     0.14443        1.0080 ; qtot    0.855
        43           c42bf         1   UNL       c42        43    -0.08473       12.0110 ; qtot    0.770
        44           h43bf         1   UNL       h43        44     0.04473        1.0080 ; qtot    0.815
        45           h44bf         1   UNL       h44        45     0.04473        1.0080 ; qtot    0.859
        46           c45bf         1   UNL       c45        46     0.04245       12.0110 ; qtot    0.902
        47           c46bf         1   UNL       c46        47    -0.15563       12.0110 ; qtot    0.746
        48           h47bf         1   UNL       h47        48     0.13725        1.0080 ; qtot    0.883
        49           c48bf         1   UNL       c48        49    -0.07132       12.0110 ; qtot    0.812
        50           h49bf         1   UNL       h49        50     0.05675        1.0080 ; qtot    0.869
        51           h50bf         1   UNL       h50        51     0.05675        1.0080 ; qtot    0.926
        52           c51bf         1   UNL       c51        52    -0.09635       12.0110 ; qtot    0.829
        53           h52bf         1   UNL       h52        53     0.14009        1.0080 ; qtot    0.969
        54           n53bf         1   UNL       n53        54     0.32376       14.0070 ; qtot    1.293
        55           c54bf         1   UNL       c54        55    -0.08781       12.0110 ; qtot    1.205
        56           h55bf         1   UNL       h55        56     0.07147        1.0080 ; qtot    1.277
        57           h56bf         1   UNL       h56        57     0.07147        1.0080 ; qtot    1.348
        58           c57bf         1   UNL       c57        58    -0.06958       12.0110 ; qtot    1.279
        59           h58bf         1   UNL       h58        59     0.12974        1.0080 ; qtot    1.408
        60           n59bf         1   UNL       n59        60    -0.48224       14.0070 ; qtot    0.926
        61           c60bf         1   UNL       c60        61    -0.08785       12.0110 ; qtot    0.838
        62           h61bf         1   UNL       h61        62     0.12536        1.0080 ; qtot    0.964
        63           c62bf         1   UNL       c62        63     0.20301       12.0110 ; qtot    1.167
        64           h63bf         1   UNL       h63        64     0.05626        1.0080 ; qtot    1.223
        65           c64bf         1   UNL       c64        65     0.20301       12.0110 ; qtot    1.426
        66           h65bf         1   UNL       h65        66     0.05626        1.0080 ; qtot    1.482
        67           n66bf         1   UNL       n66        67    -0.48226       14.0070 ; qtot    1.000

[ bonds ]
;       ai        aj funct               r               k
         1         2     1        0.109281   307290.514209
         1         3     1        0.109281   307290.514209
         1         4     1        0.109281   307290.514209
         1         5     1        0.151969   180454.982788
         5         6     1        0.123279   600628.726562
         5         7     1        0.137142   287890.534033
         7         8     1        0.101116   421821.972656
         7         9     1        0.146373   194348.676978
         9        10     1        0.109305   304137.115332
         9        11     1        0.154875   156247.858838
         9        13     1        0.154784   160322.049268
        11        12     1        0.109730   293205.725830
        11        16     1        0.153379   175303.407251
        11        20     1        0.143115   199672.896143
        13        14     1        0.109359   298803.204834
        13        15     1        0.109359   298803.204834
        13        19     1        0.151125   199379.959961
        16        17     1        0.108996   313885.574854
        16        18     1        0.108996   313885.600391
        16        22     1        0.150836   148835.738379
        19        24     1        0.140252   293000.075488
        19        47     1        0.140252   293000.075488
        20        21     1        0.097256   464269.040820
        22        23     1        0.103134   365660.710645
        22        26     1        0.103134   365660.710645
        22        27     1        0.155937    73106.238562
        24        25     1        0.108529   322235.571191
        24        28     1        0.139078   310079.958203
        27        30     1        0.154387   161683.713477
        27        33     1        0.152427   169312.286475
        27        55     1        0.154387   161683.713477
        28        29     1        0.135546   290992.169189
        28        34     1        0.139189   307398.306348
        30        31     1        0.109416   298922.182227
        30        32     1        0.109416   298922.182227
        30        36     1        0.153944   176575.768188
        33        37     1        0.140116   291308.650586
        33        61     1        0.140414   283236.829980
        34        35     1        0.108371   329625.908496
        34        38     1        0.139189   307398.306348
        36        40     1        0.109449   298707.696045
        36        41     1        0.109449   298707.696045
        36        43     1        0.153880   182223.491455
        37        42     1        0.108339   325568.827930
        37        46     1        0.139855   297527.804980
        38        39     1        0.135546   290992.143652
        38        47     1        0.139078   310079.958203
        43        44     1        0.109565   295187.277832
        43        45     1        0.109565   295187.277832
        43        49     1        0.153880   182223.478687
        46        52     1        0.140041   294335.972754
        46        54     1        0.141974   230246.332080
        47        48     1        0.108529   322235.571191
        49        50     1        0.109449   298707.721582
        49        51     1        0.109449   298707.721582
        49        55     1        0.153944   176575.768188
        52        53     1        0.108329   327795.178662
        52        58     1        0.139481   320455.328223
        54        60     1        0.133961   245757.444629
        54        67     1        0.133961   245757.444629
        55        56     1        0.109416   298922.156689
        55        57     1        0.109416   298922.156689
        58        59     1        0.108550   322293.285059
        58        61     1        0.139724   312671.310840
        60        63     1        0.133439   350402.236719
        61        62     1        0.108542   320249.473584
        63        64     1        0.108128   339085.415625
        63        65     1        0.141148   279463.543311
        65        66     1        0.108128   339085.415625
        65        67     1        0.133439   350402.185645

[ angles ]
;       ai        aj        ak funct           theta             cth
         1         5         6     1      121.559692      494.520952
         1         5         7     1      115.538086      521.033387
         2         1         3     1      108.611633      361.230424
         2         1         4     1      108.611633      361.230424
         2         1         5     1      110.304222      512.627784
         3         1         4     1      108.611633      361.230424
         3         1         5     1      110.304222      512.627784
         4         1         5     1      110.304222      512.627784
         5         7         8     1      117.683533      451.298692
         5         7         9     1      122.640366      552.466696
         6         5         7     1      122.450035      640.179772
         7         9        10     1      106.497803      505.172480
         7         9        11     1      110.426743      532.987563
         7         9        13     1      111.197876      573.809846
         8         7         9     1      117.095421      413.878559
         9        11        12     1      108.341751      462.109572
         9        11        16     1      112.884842      561.501023
         9        11        20     1      111.191750      612.905117
         9        13        14     1      108.267471      482.646515
         9        13        15     1      108.267471      482.646515
         9        13        19     1      112.656578      534.840632
        10         9        11     1      107.271194      477.840367
        10         9        13     1      108.351517      455.059031
        11         9        13     1      113.293007      563.278533
        11        16        17     1      111.060204      456.883339
        11        16        18     1      111.060204      456.883339
        11        16        22     1      109.917152      636.085151
        11        20        21     1      110.000771      551.136340
        12        11        16     1      108.906960      478.214965
        12        11        20     1      109.651207      458.729161
        13        19        24     1      120.204666      490.498346
        13        19        47     1      120.204666      490.498346
        14        13        15     1      106.998825      359.051949
        14        13        19     1      109.898193      498.113257
        15        13        19     1      109.898193      498.113257
        16        11        20     1      104.964554      637.700948
        16        22        23     1      107.818253      499.612924
        16        22        26     1      107.818253      499.612924
        16        22        27     1      119.474571      549.234400
        17        16        18     1      109.240089      345.596446
        17        16        22     1      107.771469      547.277875
        18        16        22     1      107.771469      547.277875
        19        24        25     1      121.399818      395.876206
        19        24        28     1      119.171677      687.357857
        19        47        38     1      119.171677      687.357857
        19        47        48     1      121.399818      395.876206
        22        27        30     1      107.319717      660.508779
        22        27        33     1      105.787270      659.501787
        22        27        55     1      107.319717      660.508779
        23        22        26     1      106.733261      396.539341
        23        22        27     1      107.361366      449.835767
        24        19        47     1      119.304344      683.717670
        24        28        29     1      118.697449      556.856206
        24        28        34     1      123.014793      599.300542
        25        24        28     1      119.458008      430.140782
        26        22        27     1      107.361366      449.835767
        27        30        31     1      109.297653      478.794051
        27        30        32     1      109.297653      478.794051
        27        30        36     1      112.353287      593.477953
        27        33        37     1      120.613770      456.057373
        27        33        61     1      120.840622      509.558989
        27        55        49     1      112.353287      593.477953
        27        55        56     1      109.297646      478.793987
        27        55        57     1      109.297646      478.793987
        28        34        35     1      121.810081      421.339609
        28        34        38     1      116.394432      716.641388
        29        28        34     1      118.251686      546.060393
        30        27        33     1      114.056114      602.680059
        30        27        55     1      110.262672      514.309019
        30        36        40     1      109.192032      512.058562
        30        36        41     1      109.192032      512.058562
        30        36        43     1      111.497757      644.440830
        31        30        32     1      106.345482      358.854388
        31        30        36     1      109.594704      502.313345
        32        30        36     1      109.594704      502.313345
        33        27        55     1      114.056129      602.679995
        33        37        42     1      121.737328      398.605357
        33        37        46     1      120.067383      657.939490
        33        61        58     1      120.239212      663.549738
        33        61        62     1      121.180321      409.883534
        34        38        39     1      118.251686      546.060393
        34        38        47     1      123.014793      599.300542
        35        34        38     1      121.810081      421.339641
        36        43        44     1      109.732216      505.339301
        36        43        45     1      109.732216      505.339301
        36        43        49     1      111.340858      582.517809
        37        33        61     1      118.775391      650.957134
        37        46        52     1      120.564430      607.714061
        37        46        54     1      119.327042      481.078217
        38        47        48     1      119.458008      430.140782
        39        38        47     1      118.697449      556.856206
        40        36        41     1      106.261375      362.881718
        40        36        43     1      110.076126      490.303881
        41        36        43     1      110.076126      490.303881
        42        37        46     1      117.889938      447.193187
        43        49        50     1      110.076126      490.303913
        43        49        51     1      110.076126      490.303881
        43        49        55     1      111.497757      644.440830
        44        43        45     1      106.436600      366.270971
        44        43        49     1      109.732216      505.339237
        45        43        49     1      109.732216      505.339237
        46        52        53     1      119.682777      444.700094
        46        52        58     1      118.798080      708.536165
        46        54        60     1      122.216820      539.263883
        46        54        67     1      122.216820      539.263947
        49        55        56     1      109.594704      502.313409
        49        55        57     1      109.594704      502.313409
        50        49        51     1      106.261391      362.881686
        50        49        55     1      109.192032      512.058562
        51        49        55     1      109.192032      512.058562
        52        46        54     1      119.599655      559.884971
        52        58        59     1      119.519676      441.918912
        52        58        61     1      120.613503      720.447503
        53        52        58     1      121.320656      411.472197
        54        60        63     1      103.780655      485.842165
        54        67        65     1      103.780655      485.842229
        56        55        57     1      106.345482      358.854420
        58        61        62     1      118.830200      435.006591
        59        58        61     1      119.740356      431.473212
        60        54        67     1      115.095619      185.334805
        60        63        64     1      120.727737      394.037470
        60        63        65     1      108.713135      294.623099
        63        65        66     1      130.286743      343.611734
        63        65        67     1      108.713135      294.623067
        64        63        65     1      130.286743      343.611734
        66        65        67     1      120.727737      394.037438

[ dihedrals ] ; propers for gromacs 4.5 or higher, use funct 9
;       ai        aj        ak        al funct           phase               k        pn
         1         5         7         8     9        0.000000       -0.984681         1
         1         5         7         8     9      180.000000       10.713816         2
         1         5         7         8     9        0.000000        0.266309         3
         1         5         7         8     9      180.000000        1.049624         4
         1         5         7         9     9        0.000000        2.899699         1
         1         5         7         9     9      180.000000       10.926082         2
         1         5         7         9     9        0.000000        2.211648         3
         1         5         7         9     9      180.000000        0.541693         4
         2         1         5         6     9        0.000000        0.021298         1
         2         1         5         6     9      180.000000        0.079376         2
         2         1         5         6     9        0.000000       -0.551453         3
         2         1         5         6     9      180.000000        0.118633         4
         2         1         5         7     9        0.000000        0.050138         1
         2         1         5         7     9      180.000000        0.087191         2
         2         1         5         7     9        0.000000       -0.625790         3
         2         1         5         7     9      180.000000        0.214023         4
         3         1         5         6     9        0.000000        0.021298         1
         3         1         5         6     9      180.000000        0.079376         2
         3         1         5         6     9        0.000000       -0.551453         3
         3         1         5         6     9      180.000000        0.118633         4
         3         1         5         7     9        0.000000        0.050138         1
         3         1         5         7     9      180.000000        0.087191         2
         3         1         5         7     9        0.000000       -0.625790         3
         3         1         5         7     9      180.000000        0.214023         4
         4         1         5         6     9        0.000000        0.021298         1
         4         1         5         6     9      180.000000        0.079376         2
         4         1         5         6     9        0.000000       -0.551453         3
         4         1         5         6     9      180.000000        0.118633         4
         4         1         5         7     9        0.000000        0.050138         1
         4         1         5         7     9      180.000000        0.087191         2
         4         1         5         7     9        0.000000       -0.625790         3
         4         1         5         7     9      180.000000        0.214023         4
         5         7         9        10     9        0.000000       -0.179301         1
         5         7         9        10     9      180.000000       -0.134417         2
         5         7         9        10     9        0.000000        0.024570         3
         5         7         9        10     9      180.000000        0.224107         4
         5         7         9        11     9        0.000000        5.050317         1
         5         7         9        11     9      180.000000       -0.563328         2
         5         7         9        11     9        0.000000        0.226314         3
         5         7         9        11     9      180.000000        0.154439         4
         5         7         9        13     9        0.000000        0.167201         1
         5         7         9        13     9      180.000000        0.020954         2
         5         7         9        13     9        0.000000        0.412499         3
         5         7         9        13     9      180.000000        0.148208         4
         6         5         7         8     9        0.000000        0.832867         1
         6         5         7         8     9      180.000000       11.780037         2
         6         5         7         8     9        0.000000       -0.375982         3
         6         5         7         8     9      180.000000        0.948326         4
         6         5         7         9     9        0.000000        1.017243         1
         6         5         7         9     9      180.000000        8.664891         2
         6         5         7         9     9        0.000000        1.257682         3
         6         5         7         9     9      180.000000       -2.081175         4
         7         9        11        12     9        0.000000       -0.330931         1
         7         9        11        12     9      180.000000        0.160754         2
         7         9        11        12     9        0.000000        0.605276         3
         7         9        11        12     9      180.000000        0.012970         4
         7         9        11        16     9        0.000000        0.004374         1
         7         9        11        16     9      180.000000        0.355583         2
         7         9        11        16     9        0.000000        0.432313         3
         7         9        11        16     9      180.000000       -0.051368         4
         7         9        11        20     9        0.000000        3.106880         1
         7         9        11        20     9      180.000000       -1.127416         2
         7         9        11        20     9        0.000000        0.329768         3
         7         9        11        20     9      180.000000       -0.362983         4
         7         9        13        14     9        0.000000        0.023705         1
         7         9        13        14     9      180.000000       -0.046295         2
         7         9        13        14     9        0.000000        0.601711         3
         7         9        13        14     9      180.000000       -0.015242         4
         7         9        13        15     9        0.000000        0.023705         1
         7         9        13        15     9      180.000000       -0.046295         2
         7         9        13        15     9        0.000000        0.601711         3
         7         9        13        15     9      180.000000       -0.015242         4
         7         9        13        19     9        0.000000        0.020857         1
         7         9        13        19     9      180.000000       -0.227535         2
         7         9        13        19     9        0.000000        0.602447         3
         7         9        13        19     9      180.000000        0.017764         4
         8         7         9        10     9        0.000000       -0.341458         1
         8         7         9        10     9      180.000000        0.079792         2
         8         7         9        10     9        0.000000        0.711576         3
         8         7         9        10     9      180.000000        0.176783         4
         8         7         9        11     9        0.000000       -1.745272         1
         8         7         9        11     9      180.000000       -1.615863         2
         8         7         9        11     9        0.000000        0.669381         3
         8         7         9        11     9      180.000000        0.033695         4
         8         7         9        13     9        0.000000       -0.797733         1
         8         7         9        13     9      180.000000       -0.748927         2
         8         7         9        13     9        0.000000        0.646438         3
         8         7         9        13     9      180.000000        0.076137         4
         9        11        16        17     9        0.000000       -0.126504         1
         9        11        16        17     9      180.000000       -0.019151         2
         9        11        16        17     9        0.000000        0.628461         3
         9        11        16        17     9      180.000000        0.073642         4
         9        11        16        18     9        0.000000       -0.126504         1
         9        11        16        18     9      180.000000       -0.019151         2
         9        11        16        18     9        0.000000        0.628461         3
         9        11        16        18     9      180.000000        0.073642         4
         9        11        16        22     9        0.000000        1.936346         1
         9        11        16        22     9      180.000000       -1.159781         2
         9        11        16        22     9        0.000000        0.704519         3
         9        11        16        22     9      180.000000       -0.010776         4
         9        11        20        21     9        0.000000        3.235326         1
         9        11        20        21     9      180.000000       -2.294890         2
         9        11        20        21     9        0.000000        1.178564         3
         9        11        20        21     9      180.000000       -0.104336         4
         9        13        19        24     9        0.000000       -0.434990         1
         9        13        19        24     9      180.000000        0.453058         2
         9        13        19        24     9        0.000000        0.234189         3
         9        13        19        24     9      180.000000        0.023247         4
         9        13        19        47     9        0.000000       -0.434991         1
         9        13        19        47     9      180.000000        0.453058         2
         9        13        19        47     9        0.000000        0.234189         3
         9        13        19        47     9      180.000000        0.023247         4
        10         9        11        12     9        0.000000        0.643777         1
        10         9        11        12     9      180.000000       -0.177609         2
        10         9        11        12     9        0.000000        0.674420         3
        10         9        11        12     9      180.000000       -0.134003         4
        10         9        11        16     9        0.000000       -0.936020         1
        10         9        11        16     9      180.000000        0.138600         2
        10         9        11        16     9        0.000000        0.563772         3
        10         9        11        16     9      180.000000        0.010756         4
        10         9        11        20     9        0.000000       -0.418147         1
        10         9        11        20     9      180.000000       -0.069201         2
        10         9        11        20     9        0.000000        0.567563         3
        10         9        11        20     9      180.000000       -0.028416         4
        10         9        13        14     9        0.000000        0.220681         1
        10         9        13        14     9      180.000000        0.105451         2
        10         9        13        14     9        0.000000        0.645369         3
        10         9        13        14     9      180.000000       -0.080367         4
        10         9        13        15     9        0.000000        0.220681         1
        10         9        13        15     9      180.000000        0.105451         2
        10         9        13        15     9        0.000000        0.645369         3
        10         9        13        15     9      180.000000       -0.080367         4
        10         9        13        19     9        0.000000       -0.400935         1
        10         9        13        19     9      180.000000        0.178764         2
        10         9        13        19     9        0.000000        0.717846         3
        10         9        13        19     9      180.000000       -0.040457         4
        11         9        13        14     9        0.000000       -0.477508         1
        11         9        13        14     9      180.000000        0.019137         2
        11         9        13        14     9        0.000000        0.477494         3
        11         9        13        14     9      180.000000        0.046079         4
        11         9        13        15     9        0.000000       -0.477508         1
        11         9        13        15     9      180.000000        0.019137         2
        11         9        13        15     9        0.000000        0.477494         3
        11         9        13        15     9      180.000000        0.046079         4
        11         9        13        19     9        0.000000        1.868184         1
        11         9        13        19     9      180.000000       -0.476962         2
        11         9        13        19     9        0.000000        0.646744         3
        11         9        13        19     9      180.000000        0.008005         4
        11        16        22        23     9        0.000000        1.741430         1
        11        16        22        23     9      180.000000       -0.446185         2
        11        16        22        23     9        0.000000        0.387189         3
        11        16        22        23     9      180.000000       -0.096213         4
        11        16        22        26     9        0.000000        1.741430         1
        11        16        22        26     9      180.000000       -0.446185         2
        11        16        22        26     9        0.000000        0.387189         3
        11        16        22        26     9      180.000000       -0.096213         4
        11        16        22        27     9        0.000000       -2.066330         1
        11        16        22        27     9      180.000000       -0.459156         2
        11        16        22        27     9        0.000000        0.411034         3
        11        16        22        27     9      180.000000        0.042827         4
        12        11         9        13     9        0.000000       -0.468971         1
        12        11         9        13     9      180.000000        0.120166         2
        12        11         9        13     9        0.000000        0.585545         3
        12        11         9        13     9      180.000000        0.057195         4
        12        11        16        17     9        0.000000       -0.087599         1
        12        11        16        17     9      180.000000        0.018618         2
        12        11        16        17     9        0.000000        0.654544         3
        12        11        16        17     9      180.000000       -0.077011         4
        12        11        16        18     9        0.000000       -0.087599         1
        12        11        16        18     9      180.000000        0.018618         2
        12        11        16        18     9        0.000000        0.654544         3
        12        11        16        18     9      180.000000       -0.077011         4
        12        11        16        22     9        0.000000       -0.515792         1
        12        11        16        22     9      180.000000       -0.327778         2
        12        11        16        22     9        0.000000        0.689629         3
        12        11        16        22     9      180.000000        0.083347         4
        12        11        20        21     9        0.000000       -0.307051         1
        12        11        20        21     9      180.000000        0.107826         2
        12        11        20        21     9        0.000000        0.883692         3
        12        11        20        21     9      180.000000        0.026240         4
        13         9        11        16     9        0.000000        1.013016         1
        13         9        11        16     9      180.000000        0.066151         2
        13         9        11        16     9        0.000000        0.619163         3
        13         9        11        16     9      180.000000       -0.069289         4
        13         9        11        20     9        0.000000       -0.841251         1
        13         9        11        20     9      180.000000        0.042010         2
        13         9        11        20     9        0.000000        0.600459         3
        13         9        11        20     9      180.000000       -0.036811         4
        13        19        24        25     9        0.000000       -0.160824         1
        13        19        24        25     9      180.000000       12.658723         2
        13        19        24        25     9        0.000000       -0.529256         3
        13        19        24        25     9      180.000000        0.225383         4
        13        19        24        28     9        0.000000        0.158952         1
        13        19        24        28     9      180.000000       15.991497         2
        13        19        24        28     9        0.000000       -0.281609         3
        13        19        24        28     9      180.000000       -0.244265         4
        13        19        47        38     9        0.000000        0.158953         1
        13        19        47        38     9      180.000000       15.991497         2
        13        19        47        38     9        0.000000       -0.281610         3
        13        19        47        38     9      180.000000       -0.244264         4
        13        19        47        48     9        0.000000       -0.160824         1
        13        19        47        48     9      180.000000       12.658727         2
        13        19        47        48     9        0.000000       -0.529255         3
        13        19        47        48     9      180.000000        0.225383         4
        14        13        19        24     9        0.000000        0.017127         1
        14        13        19        24     9      180.000000        0.005908         2
        14        13        19        24     9        0.000000        0.214914         3
        14        13        19        24     9      180.000000        0.010055         4
        14        13        19        47     9        0.000000        0.017126         1
        14        13        19        47     9      180.000000        0.005907         2
        14        13        19        47     9        0.000000        0.214915         3
        14        13        19        47     9      180.000000        0.010055         4
        15        13        19        24     9        0.000000        0.017127         1
        15        13        19        24     9      180.000000        0.005908         2
        15        13        19        24     9        0.000000        0.214914         3
        15        13        19        24     9      180.000000        0.010055         4
        15        13        19        47     9        0.000000        0.017126         1
        15        13        19        47     9      180.000000        0.005907         2
        15        13        19        47     9        0.000000        0.214915         3
        15        13        19        47     9      180.000000        0.010055         4
        16        11        20        21     9        0.000000       -0.911918         1
        16        11        20        21     9      180.000000       -2.218268         2
        16        11        20        21     9        0.000000        0.861332         3
        16        11        20        21     9      180.000000        0.065271         4
        16        22        27        30     9        0.000000       -0.155147         1
        16        22        27        30     9      180.000000        0.752237         2
        16        22        27        30     9        0.000000        0.856167         3
        16        22        27        30     9      180.000000        0.049010         4
        16        22        27        33     9        0.000000       -1.277119         1
        16        22        27        33     9      180.000000        0.009669         2
        16        22        27        33     9        0.000000        1.289127         3
        16        22        27        33     9      180.000000        0.117735         4
        16        22        27        55     9        0.000000       -0.155148         1
        16        22        27        55     9      180.000000        0.752236         2
        16        22        27        55     9        0.000000        0.856167         3
        16        22        27        55     9      180.000000        0.049009         4
        17        16        11        20     9        0.000000        0.517341         1
        17        16        11        20     9      180.000000       -0.334263         2
        17        16        11        20     9        0.000000        0.615665         3
        17        16        11        20     9      180.000000       -0.010583         4
        17        16        22        23     9        0.000000        0.063202         1
        17        16        22        23     9      180.000000       -0.105366         2
        17        16        22        23     9        0.000000        0.307068         3
        17        16        22        23     9      180.000000        0.101691         4
        17        16        22        26     9        0.000000        0.063202         1
        17        16        22        26     9      180.000000       -0.105366         2
        17        16        22        26     9        0.000000        0.307068         3
        17        16        22        26     9      180.000000        0.101691         4
        17        16        22        27     9        0.000000       -0.266357         1
        17        16        22        27     9      180.000000       -0.013642         2
        17        16        22        27     9        0.000000        0.585130         3
        17        16        22        27     9      180.000000       -0.059646         4
        18        16        11        20     9        0.000000        0.517341         1
        18        16        11        20     9      180.000000       -0.334263         2
        18        16        11        20     9        0.000000        0.615665         3
        18        16        11        20     9      180.000000       -0.010583         4
        18        16        22        23     9        0.000000        0.063202         1
        18        16        22        23     9      180.000000       -0.105366         2
        18        16        22        23     9        0.000000        0.307068         3
        18        16        22        23     9      180.000000        0.101691         4
        18        16        22        26     9        0.000000        0.063202         1
        18        16        22        26     9      180.000000       -0.105366         2
        18        16        22        26     9        0.000000        0.307068         3
        18        16        22        26     9      180.000000        0.101691         4
        18        16        22        27     9        0.000000       -0.266357         1
        18        16        22        27     9      180.000000       -0.013642         2
        18        16        22        27     9        0.000000        0.585130         3
        18        16        22        27     9      180.000000       -0.059646         4
        19        24        28        29     9        0.000000        0.558322         1
        19        24        28        29     9      180.000000       22.600098         2
        19        24        28        29     9        0.000000        0.580146         3
        19        24        28        29     9      180.000000       -0.676260         4
        19        24        28        34     9        0.000000       -0.009833         1
        19        24        28        34     9      180.000000       16.983544         2
        19        24        28        34     9        0.000000       -1.224299         3
        19        24        28        34     9      180.000000       -0.325714         4
        19        47        38        34     9        0.000000       -0.009834         1
        19        47        38        34     9      180.000000       16.983546         2
        19        47        38        34     9        0.000000       -1.224300         3
        19        47        38        34     9      180.000000       -0.325714         4
        19        47        38        39     9        0.000000        0.558321         1
        19        47        38        39     9      180.000000       22.600102         2
        19        47        38        39     9        0.000000        0.580145         3
        19        47        38        39     9      180.000000       -0.676261         4
        20        11        16        22     9        0.000000       11.736840         1
        20        11        16        22     9      180.000000       -2.757430         2
        20        11        16        22     9        0.000000        0.182550         3
        20        11        16        22     9      180.000000        0.345479         4
        22        27        30        31     9        0.000000       -0.227612         1
        22        27        30        31     9      180.000000       -0.302117         2
        22        27        30        31     9        0.000000        0.571452         3
        22        27        30        31     9      180.000000       -0.014198         4
        22        27        30        32     9        0.000000       -0.227612         1
        22        27        30        32     9      180.000000       -0.302117         2
        22        27        30        32     9        0.000000        0.571452         3
        22        27        30        32     9      180.000000       -0.014198         4
        22        27        30        36     9        0.000000        4.877240         1
        22        27        30        36     9      180.000000       -1.259480         2
        22        27        30        36     9        0.000000        0.412781         3
        22        27        30        36     9      180.000000        0.239243         4
        22        27        33        37     9        0.000000        1.524892         1
        22        27        33        37     9      180.000000        0.046725         2
        22        27        33        37     9        0.000000        0.159637         3
        22        27        33        37     9      180.000000        0.057309         4
        22        27        33        61     9        0.000000        0.523369         1
        22        27        33        61     9      180.000000        0.124300         2
        22        27        33        61     9        0.000000        0.211026         3
        22        27        33        61     9      180.000000        0.062961         4
        22        27        55        49     9        0.000000        4.877239         1
        22        27        55        49     9      180.000000       -1.259480         2
        22        27        55        49     9        0.000000        0.412781         3
        22        27        55        49     9      180.000000        0.239243         4
        22        27        55        56     9        0.000000       -0.227611         1
        22        27        55        56     9      180.000000       -0.302116         2
        22        27        55        56     9        0.000000        0.571452         3
        22        27        55        56     9      180.000000       -0.014197         4
        22        27        55        57     9        0.000000       -0.227611         1
        22        27        55        57     9      180.000000       -0.302116         2
        22        27        55        57     9        0.000000        0.571452         3
        22        27        55        57     9      180.000000       -0.014197         4
        23        22        27        30     9        0.000000        0.162778         1
        23        22        27        30     9      180.000000        0.503129         2
        23        22        27        30     9        0.000000        0.510360         3
        23        22        27        30     9      180.000000       -0.057166         4
        23        22        27        33     9        0.000000        2.318461         1
        23        22        27        33     9      180.000000        0.475573         2
        23        22        27        33     9        0.000000        0.585244         3
        23        22        27        33     9      180.000000       -0.227043         4
        23        22        27        55     9        0.000000        0.162778         1
        23        22        27        55     9      180.000000        0.503128         2
        23        22        27        55     9        0.000000        0.510361         3
        23        22        27        55     9      180.000000       -0.057166         4
        24        19        47        38     9        0.000000       -0.205612         1
        24        19        47        38     9      180.000000       19.123311         2
        24        19        47        38     9        0.000000       -1.453325         3
        24        19        47        38     9      180.000000       -0.401234         4
        24        19        47        48     9        0.000000       -0.009058         1
        24        19        47        48     9      180.000000       14.469316         2
        24        19        47        48     9        0.000000       -0.494860         3
        24        19        47        48     9      180.000000        0.044015         4
        24        28        34        35     9        0.000000        0.079111         1
        24        28        34        35     9      180.000000       12.428293         2
        24        28        34        35     9        0.000000       -0.413714         3
        24        28        34        35     9      180.000000        0.183917         4
        24        28        34        38     9        0.000000       -0.218748         1
        24        28        34        38     9      180.000000       17.337806         2
        24        28        34        38     9        0.000000       -1.203635         3
        24        28        34        38     9      180.000000       -0.413087         4
        25        24        19        47     9        0.000000       -0.009057         1
        25        24        19        47     9      180.000000       14.469316         2
        25        24        19        47     9        0.000000       -0.494860         3
        25        24        19        47     9      180.000000        0.044015         4
        25        24        28        29     9        0.000000        0.255465         1
        25        24        28        29     9      180.000000       15.933598         2
        25        24        28        29     9        0.000000        0.317178         3
        25        24        28        29     9      180.000000        0.158738         4
        25        24        28        34     9        0.000000        0.177244         1
        25        24        28        34     9      180.000000       12.878740         2
        25        24        28        34     9        0.000000       -0.471654         3
        25        24        28        34     9      180.000000        0.154551         4
        26        22        27        30     9        0.000000        0.162778         1
        26        22        27        30     9      180.000000        0.503129         2
        26        22        27        30     9        0.000000        0.510360         3
        26        22        27        30     9      180.000000       -0.057166         4
        26        22        27        33     9        0.000000        2.318461         1
        26        22        27        33     9      180.000000        0.475573         2
        26        22        27        33     9        0.000000        0.585244         3
        26        22        27        33     9      180.000000       -0.227043         4
        26        22        27        55     9        0.000000        0.162778         1
        26        22        27        55     9      180.000000        0.503128         2
        26        22        27        55     9        0.000000        0.510361         3
        26        22        27        55     9      180.000000       -0.057166         4
        27        30        36        40     9        0.000000       -0.130090         1
        27        30        36        40     9      180.000000        0.051513         2
        27        30        36        40     9        0.000000        0.270535         3
        27        30        36        40     9      180.000000       -0.016693         4
        27        30        36        41     9        0.000000       -0.130090         1
        27        30        36        41     9      180.000000        0.051513         2
        27        30        36        41     9        0.000000        0.270535         3
        27        30        36        41     9      180.000000       -0.016693         4
        27        30        36        43     9        0.000000        1.850209         1
        27        30        36        43     9      180.000000       -1.858310         2
        27        30        36        43     9        0.000000        0.402185         3
        27        30        36        43     9      180.000000       -0.017385         4
        27        33        37        42     9        0.000000       -0.067853         1
        27        33        37        42     9      180.000000       12.530852         2
        27        33        37        42     9        0.000000       -0.200173         3
        27        33        37        42     9      180.000000        0.127124         4
        27        33        37        46     9        0.000000        0.352111         1
        27        33        37        46     9      180.000000       14.099740         2
        27        33        37        46     9        0.000000        0.139051         3
        27        33        37        46     9      180.000000       -0.259358         4
        27        33        61        58     9        0.000000        0.298990         1
        27        33        61        58     9      180.000000       14.279131         2
        27        33        61        58     9        0.000000        0.026355         3
        27        33        61        58     9      180.000000       -0.206963         4
        27        33        61        62     9        0.000000       -0.026716         1
        27        33        61        62     9      180.000000       12.496796         2
        27        33        61        62     9        0.000000       -0.174983         3
        27        33        61        62     9      180.000000        0.078102         4
        27        55        49        43     9        0.000000        1.850211         1
        27        55        49        43     9      180.000000       -1.858310         2
        27        55        49        43     9        0.000000        0.402185         3
        27        55        49        43     9      180.000000       -0.017386         4
        27        55        49        50     9        0.000000       -0.130088         1
        27        55        49        50     9      180.000000        0.051515         2
        27        55        49        50     9        0.000000        0.270535         3
        27        55        49        50     9      180.000000       -0.016693         4
        27        55        49        51     9        0.000000       -0.130088         1
        27        55        49        51     9      180.000000        0.051515         2
        27        55        49        51     9        0.000000        0.270535         3
        27        55        49        51     9      180.000000       -0.016693         4
        28        24        19        47     9        0.000000       -0.205612         1
        28        24        19        47     9      180.000000       19.123309         2
        28        24        19        47     9        0.000000       -1.453325         3
        28        24        19        47     9      180.000000       -0.401233         4
        28        34        38        39     9        0.000000        0.328224         1
        28        34        38        39     9      180.000000       23.258511         2
        28        34        38        39     9        0.000000        0.635698         3
        28        34        38        39     9      180.000000       -0.760693         4
        28        34        38        47     9        0.000000       -0.218749         1
        28        34        38        47     9      180.000000       17.337810         2
        28        34        38        47     9        0.000000       -1.203635         3
        28        34        38        47     9      180.000000       -0.413087         4
        29        28        34        35     9        0.000000        0.288913         1
        29        28        34        35     9      180.000000       15.093259         2
        29        28        34        35     9        0.000000        0.262813         3
        29        28        34        35     9      180.000000        0.238074         4
        29        28        34        38     9        0.000000        0.328225         1
        29        28        34        38     9      180.000000       23.258509         2
        29        28        34        38     9        0.000000        0.635698         3
        29        28        34        38     9      180.000000       -0.760692         4
        30        27        33        37     9        0.000000       -0.261008         1
        30        27        33        37     9      180.000000        0.336742         2
        30        27        33        37     9        0.000000        0.160489         3
        30        27        33        37     9      180.000000        0.105390         4
        30        27        33        61     9        0.000000       -0.160155         1
        30        27        33        61     9      180.000000        0.156217         2
        30        27        33        61     9        0.000000        0.230943         3
        30        27        33        61     9      180.000000        0.105615         4
        30        27        55        49     9        0.000000        3.734516         1
        30        27        55        49     9      180.000000       -1.537144         2
        30        27        55        49     9        0.000000       -0.018081         3
        30        27        55        49     9      180.000000       -0.068039         4
        30        27        55        56     9        0.000000       -0.081881         1
        30        27        55        56     9      180.000000        0.050773         2
        30        27        55        56     9        0.000000        0.229260         3
        30        27        55        56     9      180.000000        0.021017         4
        30        27        55        57     9        0.000000       -0.081881         1
        30        27        55        57     9      180.000000        0.050773         2
        30        27        55        57     9        0.000000        0.229260         3
        30        27        55        57     9      180.000000        0.021017         4
        30        36        43        44     9        0.000000       -0.033843         1
        30        36        43        44     9      180.000000        0.030999         2
        30        36        43        44     9        0.000000        0.301563         3
        30        36        43        44     9      180.000000       -0.003346         4
        30        36        43        45     9        0.000000       -0.033843         1
        30        36        43        45     9      180.000000        0.030999         2
        30        36        43        45     9        0.000000        0.301563         3
        30        36        43        45     9      180.000000       -0.003346         4
        30        36        43        49     9        0.000000        0.092861         1
        30        36        43        49     9      180.000000       -0.442578         2
        30        36        43        49     9        0.000000        0.283583         3
        30        36        43        49     9      180.000000       -0.020985         4
        31        30        27        33     9        0.000000       -0.022579         1
        31        30        27        33     9      180.000000       -0.022653         2
        31        30        27        33     9        0.000000        0.584098         3
        31        30        27        33     9      180.000000       -0.018431         4
        31        30        27        55     9        0.000000       -0.081881         1
        31        30        27        55     9      180.000000        0.050773         2
        31        30        27        55     9        0.000000        0.229260         3
        31        30        27        55     9      180.000000        0.021017         4
        31        30        36        40     9        0.000000       -0.004377         1
        31        30        36        40     9      180.000000        0.026665         2
        31        30        36        40     9        0.000000        0.377130         3
        31        30        36        40     9      180.000000        0.032123         4
        31        30        36        41     9        0.000000       -0.004377         1
        31        30        36        41     9      180.000000        0.026665         2
        31        30        36        41     9        0.000000        0.377130         3
        31        30        36        41     9      180.000000        0.032123         4
        31        30        36        43     9        0.000000       -0.103203         1
        31        30        36        43     9      180.000000        0.082669         2
        31        30        36        43     9        0.000000        0.373797         3
        31        30        36        43     9      180.000000        0.018453         4
        32        30        27        33     9        0.000000       -0.022579         1
        32        30        27        33     9      180.000000       -0.022653         2
        32        30        27        33     9        0.000000        0.584098         3
        32        30        27        33     9      180.000000       -0.018431         4
        32        30        27        55     9        0.000000       -0.081881         1
        32        30        27        55     9      180.000000        0.050773         2
        32        30        27        55     9        0.000000        0.229260         3
        32        30        27        55     9      180.000000        0.021017         4
        32        30        36        40     9        0.000000       -0.004377         1
        32        30        36        40     9      180.000000        0.026665         2
        32        30        36        40     9        0.000000        0.377130         3
        32        30        36        40     9      180.000000        0.032123         4
        32        30        36        41     9        0.000000       -0.004377         1
        32        30        36        41     9      180.000000        0.026665         2
        32        30        36        41     9        0.000000        0.377130         3
        32        30        36        41     9      180.000000        0.032123         4
        32        30        36        43     9        0.000000       -0.103203         1
        32        30        36        43     9      180.000000        0.082669         2
        32        30        36        43     9        0.000000        0.373797         3
        32        30        36        43     9      180.000000        0.018453         4
        33        27        30        36     9        0.000000       -0.582669         1
        33        27        30        36     9      180.000000        0.052039         2
        33        27        30        36     9        0.000000        0.555002         3
        33        27        30        36     9      180.000000        0.068353         4
        33        27        55        49     9        0.000000       -0.582669         1
        33        27        55        49     9      180.000000        0.052040         2
        33        27        55        49     9        0.000000        0.555001         3
        33        27        55        49     9      180.000000        0.068353         4
        33        27        55        56     9        0.000000       -0.022579         1
        33        27        55        56     9      180.000000       -0.022654         2
        33        27        55        56     9        0.000000        0.584098         3
        33        27        55        56     9      180.000000       -0.018431         4
        33        27        55        57     9        0.000000       -0.022579         1
        33        27        55        57     9      180.000000       -0.022654         2
        33        27        55        57     9        0.000000        0.584098         3
        33        27        55        57     9      180.000000       -0.018431         4
        33        37        46        52     9        0.000000        0.016576         1
        33        37        46        52     9      180.000000       16.943060         2
        33        37        46        52     9        0.000000       -1.204765         3
        33        37        46        52     9      180.000000       -0.420573         4
        33        37        46        54     9        0.000000        0.392382         1
        33        37        46        54     9      180.000000       17.742054         2
        33        37        46        54     9        0.000000        0.292352         3
        33        37        46        54     9      180.000000       -0.572030         4
        33        61        58        52     9        0.000000        0.126784         1
        33        61        58        52     9      180.000000       18.496213         2
        33        61        58        52     9        0.000000       -1.744701         3
        33        61        58        52     9      180.000000       -0.394679         4
        33        61        58        59     9        0.000000        0.015651         1
        33        61        58        59     9      180.000000       15.096835         2
        33        61        58        59     9        0.000000       -0.616846         3
        33        61        58        59     9      180.000000        0.050826         4
        34        38        47        48     9        0.000000        0.177245         1
        34        38        47        48     9      180.000000       12.878742         2
        34        38        47        48     9        0.000000       -0.471655         3
        34        38        47        48     9      180.000000        0.154551         4
        35        34        38        39     9        0.000000        0.288914         1
        35        34        38        39     9      180.000000       15.093259         2
        35        34        38        39     9        0.000000        0.262814         3
        35        34        38        39     9      180.000000        0.238073         4
        35        34        38        47     9        0.000000        0.079111         1
        35        34        38        47     9      180.000000       12.428294         2
        35        34        38        47     9        0.000000       -0.413714         3
        35        34        38        47     9      180.000000        0.183917         4
        36        30        27        55     9        0.000000        3.734519         1
        36        30        27        55     9      180.000000       -1.537144         2
        36        30        27        55     9        0.000000       -0.018081         3
        36        30        27        55     9      180.000000       -0.068038         4
        36        43        49        50     9        0.000000       -0.039273         1
        36        43        49        50     9      180.000000        0.033389         2
        36        43        49        50     9        0.000000        0.272808         3
        36        43        49        50     9      180.000000       -0.003579         4
        36        43        49        51     9        0.000000       -0.039273         1
        36        43        49        51     9      180.000000        0.033389         2
        36        43        49        51     9        0.000000        0.272808         3
        36        43        49        51     9      180.000000       -0.003579         4
        36        43        49        55     9        0.000000        0.092861         1
        36        43        49        55     9      180.000000       -0.442579         2
        36        43        49        55     9        0.000000        0.283583         3
        36        43        49        55     9      180.000000       -0.020985         4
        37        33        27        55     9        0.000000       -0.261008         1
        37        33        27        55     9      180.000000        0.336742         2
        37        33        27        55     9        0.000000        0.160489         3
        37        33        27        55     9      180.000000        0.105389         4
        37        33        61        58     9        0.000000       -0.141684         1
        37        33        61        58     9      180.000000       18.976053         2
        37        33        61        58     9        0.000000       -1.701325         3
        37        33        61        58     9      180.000000       -0.421439         4
        37        33        61        62     9        0.000000        0.072359         1
        37        33        61        62     9      180.000000       14.952017         2
        37        33        61        62     9        0.000000       -0.765072         3
        37        33        61        62     9      180.000000       -0.037190         4
        37        46        52        53     9        0.000000        0.043873         1
        37        46        52        53     9      180.000000       12.914150         2
        37        46        52        53     9        0.000000       -0.515695         3
        37        46        52        53     9      180.000000        0.093102         4
        37        46        52        58     9        0.000000       -0.073706         1
        37        46        52        58     9      180.000000       17.120473         2
        37        46        52        58     9        0.000000       -1.011495         3
        37        46        52        58     9      180.000000       -0.260345         4
        37        46        54        60     9        0.000000        0.469303         1
        37        46        54        60     9      180.000000        3.720541         2
        37        46        54        60     9        0.000000        0.074394         3
        37        46        54        60     9      180.000000        0.062768         4
        37        46        54        67     9        0.000000        0.469302         1
        37        46        54        67     9      180.000000        3.720541         2
        37        46        54        67     9        0.000000        0.074394         3
        37        46        54        67     9      180.000000        0.062768         4
        39        38        47        48     9        0.000000        0.255465         1
        39        38        47        48     9      180.000000       15.933602         2
        39        38        47        48     9        0.000000        0.317179         3
        39        38        47        48     9      180.000000        0.158738         4
        40        36        43        44     9        0.000000       -0.011324         1
        40        36        43        44     9      180.000000        0.007822         2
        40        36        43        44     9        0.000000        0.325915         3
        40        36        43        44     9      180.000000        0.007339         4
        40        36        43        45     9        0.000000       -0.011324         1
        40        36        43        45     9      180.000000        0.007822         2
        40        36        43        45     9        0.000000        0.325915         3
        40        36        43        45     9      180.000000        0.007339         4
        40        36        43        49     9        0.000000       -0.039273         1
        40        36        43        49     9      180.000000        0.033389         2
        40        36        43        49     9        0.000000        0.272808         3
        40        36        43        49     9      180.000000       -0.003579         4
        41        36        43        44     9        0.000000       -0.011324         1
        41        36        43        44     9      180.000000        0.007822         2
        41        36        43        44     9        0.000000        0.325915         3
        41        36        43        44     9      180.000000        0.007339         4
        41        36        43        45     9        0.000000       -0.011324         1
        41        36        43        45     9      180.000000        0.007822         2
        41        36        43        45     9        0.000000        0.325915         3
        41        36        43        45     9      180.000000        0.007339         4
        41        36        43        49     9        0.000000       -0.039273         1
        41        36        43        49     9      180.000000        0.033389         2
        41        36        43        49     9        0.000000        0.272808         3
        41        36        43        49     9      180.000000       -0.003579         4
        42        37        33        61     9        0.000000        0.018699         1
        42        37        33        61     9      180.000000       13.957323         2
        42        37        33        61     9        0.000000       -0.628994         3
        42        37        33        61     9      180.000000        0.089263         4
        42        37        46        52     9        0.000000        0.028901         1
        42        37        46        52     9      180.000000       13.101146         2
        42        37        46        52     9        0.000000       -0.547642         3
        42        37        46        52     9      180.000000        0.088478         4
        42        37        46        54     9        0.000000        0.062746         1
        42        37        46        54     9      180.000000       13.369565         2
        42        37        46        54     9        0.000000        0.017937         3
        42        37        46        54     9      180.000000        0.163756         4
        43        49        55        56     9        0.000000       -0.103203         1
        43        49        55        56     9      180.000000        0.082668         2
        43        49        55        56     9        0.000000        0.373797         3
        43        49        55        56     9      180.000000        0.018454         4
        43        49        55        57     9        0.000000       -0.103203         1
        43        49        55        57     9      180.000000        0.082668         2
        43        49        55        57     9        0.000000        0.373797         3
        43        49        55        57     9      180.000000        0.018454         4
        44        43        49        50     9        0.000000       -0.011325         1
        44        43        49        50     9      180.000000        0.007821         2
        44        43        49        50     9        0.000000        0.325915         3
        44        43        49        50     9      180.000000        0.007339         4
        44        43        49        51     9        0.000000       -0.011325         1
        44        43        49        51     9      180.000000        0.007821         2
        44        43        49        51     9        0.000000        0.325915         3
        44        43        49        51     9      180.000000        0.007339         4
        44        43        49        55     9        0.000000       -0.033843         1
        44        43        49        55     9      180.000000        0.030998         2
        44        43        49        55     9        0.000000        0.301562         3
        44        43        49        55     9      180.000000       -0.003347         4
        45        43        49        50     9        0.000000       -0.011325         1
        45        43        49        50     9      180.000000        0.007821         2
        45        43        49        50     9        0.000000        0.325915         3
        45        43        49        50     9      180.000000        0.007339         4
        45        43        49        51     9        0.000000       -0.011325         1
        45        43        49        51     9      180.000000        0.007821         2
        45        43        49        51     9        0.000000        0.325915         3
        45        43        49        51     9      180.000000        0.007339         4
        45        43        49        55     9        0.000000       -0.033843         1
        45        43        49        55     9      180.000000        0.030998         2
        45        43        49        55     9        0.000000        0.301562         3
        45        43        49        55     9      180.000000       -0.003347         4
        46        37        33        61     9        0.000000       -0.143449         1
        46        37        33        61     9      180.000000       18.410704         2
        46        37        33        61     9        0.000000       -1.600273         3
        46        37        33        61     9      180.000000       -0.388526         4
        46        52        58        59     9        0.000000       -0.069501         1
        46        52        58        59     9      180.000000       14.935149         2
        46        52        58        59     9        0.000000       -0.521673         3
        46        52        58        59     9      180.000000        0.118335         4
        46        52        58        61     9        0.000000       -0.083582         1
        46        52        58        61     9      180.000000       18.737649         2
        46        52        58        61     9        0.000000       -1.454109         3
        46        52        58        61     9      180.000000       -0.391676         4
        46        54        60        63     9        0.000000        0.838547         1
        46        54        60        63     9      180.000000       13.821932         2
        46        54        60        63     9        0.000000        0.567268         3
        46        54        60        63     9      180.000000       -0.392054         4
        46        54        67        65     9        0.000000        0.838546         1
        46        54        67        65     9      180.000000       13.821932         2
        46        54        67        65     9        0.000000        0.567268         3
        46        54        67        65     9      180.000000       -0.392054         4
        50        49        55        56     9        0.000000       -0.004377         1
        50        49        55        56     9      180.000000        0.026664         2
        50        49        55        56     9        0.000000        0.377130         3
        50        49        55        56     9      180.000000        0.032123         4
        50        49        55        57     9        0.000000       -0.004377         1
        50        49        55        57     9      180.000000        0.026664         2
        50        49        55        57     9        0.000000        0.377130         3
        50        49        55        57     9      180.000000        0.032123         4
        51        49        55        56     9        0.000000       -0.004377         1
        51        49        55        56     9      180.000000        0.026664         2
        51        49        55        56     9        0.000000        0.377130         3
        51        49        55        56     9      180.000000        0.032123         4
        51        49        55        57     9        0.000000       -0.004377         1
        51        49        55        57     9      180.000000        0.026664         2
        51        49        55        57     9        0.000000        0.377130         3
        51        49        55        57     9      180.000000        0.032123         4
        52        46        54        60     9        0.000000        0.513532         1
        52        46        54        60     9      180.000000        3.504700         2
        52        46        54        60     9        0.000000        0.086592         3
        52        46        54        60     9      180.000000        0.057615         4
        52        46        54        67     9        0.000000        0.513530         1
        52        46        54        67     9      180.000000        3.504700         2
        52        46        54        67     9        0.000000        0.086592         3
        52        46        54        67     9      180.000000        0.057615         4
        52        58        61        62     9        0.000000        0.096999         1
        52        58        61        62     9      180.000000       14.968391         2
        52        58        61        62     9        0.000000       -0.713152         3
        52        58        61        62     9      180.000000        0.062521         4
        53        52        46        54     9        0.000000        0.036666         1
        53        52        46        54     9      180.000000       13.219512         2
        53        52        46        54     9        0.000000       -0.097302         3
        53        52        46        54     9      180.000000        0.192208         4
        53        52        58        59     9        0.000000       -0.206058         1
        53        52        58        59     9      180.000000       12.073141         2
        53        52        58        59     9        0.000000       -0.721251         3
        53        52        58        59     9      180.000000        0.323989         4
        53        52        58        61     9        0.000000        0.043207         1
        53        52        58        61     9      180.000000       14.425304         2
        53        52        58        61     9        0.000000       -0.633081         3
        53        52        58        61     9      180.000000        0.116212         4
        54        46        52        58     9        0.000000        0.396430         1
        54        46        52        58     9      180.000000       17.268892         2
        54        46        52        58     9        0.000000        0.295995         3
        54        46        52        58     9      180.000000       -0.322903         4
        54        60        63        64     9        0.000000        1.364902         1
        54        60        63        64     9      180.000000       26.684412         2
        54        60        63        64     9        0.000000       -0.058925         3
        54        60        63        64     9      180.000000       -0.081051         4
        54        60        63        65     9        0.000000       -0.072170         1
        54        60        63        65     9      180.000000       41.546962         2
        54        60        63        65     9        0.000000       -6.203438         3
        54        60        63        65     9      180.000000       -0.052443         4
        54        67        65        63     9        0.000000       -0.072168         1
        54        67        65        63     9      180.000000       41.546958         2
        54        67        65        63     9        0.000000       -6.203437         3
        54        67        65        63     9      180.000000       -0.052442         4
        54        67        65        66     9        0.000000        1.364903         1
        54        67        65        66     9      180.000000       26.684406         2
        54        67        65        66     9        0.000000       -0.058924         3
        54        67        65        66     9      180.000000       -0.081051         4
        55        27        33        61     9        0.000000       -0.160155         1
        55        27        33        61     9      180.000000        0.156217         2
        55        27        33        61     9        0.000000        0.230943         3
        55        27        33        61     9      180.000000        0.105614         4
        59        58        61        62     9        0.000000       -0.173373         1
        59        58        61        62     9      180.000000       11.829127         2
        59        58        61        62     9        0.000000       -0.659657         3
        59        58        61        62     9      180.000000        0.261587         4
        60        54        67        65     9        0.000000       -0.328235         1
        60        54        67        65     9      180.000000       33.348005         2
        60        54        67        65     9        0.000000       -5.425171         3
        60        54        67        65     9      180.000000        0.075600         4
        60        63        65        66     9        0.000000        0.383739         1
        60        63        65        66     9      180.000000       15.343448         2
        60        63        65        66     9        0.000000       -0.558925         3
        60        63        65        66     9      180.000000       -0.439953         4
        60        63        65        67     9        0.000000       -0.650612         1
        60        63        65        67     9      180.000000       33.431879         2
        60        63        65        67     9        0.000000       -8.050958         3
        60        63        65        67     9      180.000000       -0.042343         4
        63        60        54        67     9        0.000000       -0.328233         1
        63        60        54        67     9      180.000000       33.348013         2
        63        60        54        67     9        0.000000       -5.425172         3
        63        60        54        67     9      180.000000        0.075600         4
        64        63        65        66     9        0.000000       -0.304766         1
        64        63        65        66     9      180.000000        8.321252         2
        64        63        65        66     9        0.000000       -0.141498         3
        64        63        65        66     9      180.000000        0.273252         4
        64        63        65        67     9        0.000000        0.383740         1
        64        63        65        67     9      180.000000       15.343445         2
        64        63        65        67     9        0.000000       -0.558924         3
        64        63        65        67     9      180.000000       -0.439953         4

[ dihedrals ] ; impropers
;       ai        aj        ak        al funct           phase               k        pn
         5         1         6         7     4      180.000000       27.893333         2
         5         6         7         1     4      180.000000       27.893333         2
         5         7         1         6     4      180.000000       27.893333         2
        28        24        29        34     4      180.000000        2.499926         2
        28        29        34        24     4      180.000000        2.499926         2
        28        34        24        29     4      180.000000        2.499926         2
        38        34        39        47     4      180.000000        2.499922         2
        38        39        47        34     4      180.000000        2.499922         2
        38        47        34        39     4      180.000000        2.499922         2

[ pairs ]
;       ai        aj funct
         1         8     1
         1         9     1
         2         6     1
         2         7     1
         3         6     1
         3         7     1
         4         6     1
         4         7     1
         5        10     1
         5        11     1
         5        13     1
         6         8     1
         6         9     1
         7        12     1
         7        14     1
         7        15     1
         7        16     1
         7        19     1
         7        20     1
         8        10     1
         8        11     1
         8        13     1
         9        17     1
         9        18     1
         9        21     1
         9        22     1
         9        24     1
         9        47     1
        10        12     1
        10        14     1
        10        15     1
        10        16     1
        10        19     1
        10        20     1
        11        14     1
        11        15     1
        11        19     1
        11        23     1
        11        26     1
        11        27     1
        12        13     1
        12        17     1
        12        18     1
        12        21     1
        12        22     1
        13        16     1
        13        20     1
        13        25     1
        13        28     1
        13        38     1
        13        48     1
        14        24     1
        14        47     1
        15        24     1
        15        47     1
        16        21     1
        16        30     1
        16        33     1
        16        55     1
        17        20     1
        17        23     1
        17        26     1
        17        27     1
        18        20     1
        18        23     1
        18        26     1
        18        27     1
        19        29     1
        19        34     1
        19        39     1
        20        22     1
        22        31     1
        22        32     1
        22        36     1
        22        37     1
        22        49     1
        22        56     1
        22        57     1
        22        61     1
        23        30     1
        23        33     1
        23        55     1
        24        35     1
        24        38     1
        24        48     1
        25        29     1
        25        34     1
        25        47     1
        26        30     1
        26        33     1
        26        55     1
        27        40     1
        27        41     1
        27        42     1
        27        43     1
        27        46     1
        27        50     1
        27        51     1
        27        58     1
        27        62     1
        28        39     1
        28        47     1
        29        35     1
        29        38     1
        30        37     1
        30        44     1
        30        45     1
        30        49     1
        30        56     1
        30        57     1
        30        61     1
        31        33     1
        31        40     1
        31        41     1
        31        43     1
        31        55     1
        32        33     1
        32        40     1
        32        41     1
        32        43     1
        32        55     1
        33        36     1
        33        49     1
        33        52     1
        33        54     1
        33        56     1
        33        57     1
        33        59     1
        34        48     1
        35        39     1
        35        47     1
        36        50     1
        36        51     1
        36        55     1
        37        53     1
        37        55     1
        37        58     1
        37        60     1
        37        62     1
        37        67     1
        39        48     1
        40        44     1
        40        45     1
        40        49     1
        41        44     1
        41        45     1
        41        49     1
        42        52     1
        42        54     1
        42        61     1
        43        56     1
        43        57     1
        44        50     1
        44        51     1
        44        55     1
        45        50     1
        45        51     1
        45        55     1
        46        59     1
        46        61     1
        46        63     1
        46        65     1
        50        56     1
        50        57     1
        51        56     1
        51        57     1
        52        60     1
        52        62     1
        52        67     1
        53        54     1
        53        59     1
        53        61     1
        54        58     1
        54        64     1
        54        66     1
        55        61     1
        59        62     1
        60        66     1
        64        66     1
        64        67     1
