; ITP file created by ByteFF-ML, 2025-12-06 08:10:54.544902

[ atomtypes ]
;name           bonded.type        at.num        mass        charge   ptype           sigma         epsilon
 c0bf                                   6      0.0000       0.00000       A     3.39759e-01     4.49643e-01
 h1bf                                   1      0.0000       0.00000       A     2.60016e-01     8.70704e-02
 h2bf                                   1      0.0000       0.00000       A     2.60016e-01     8.70704e-02
 h3bf                                   1      0.0000       0.00000       A     2.60016e-01     8.70704e-02
 c4bf                                   6      0.0000       0.00000       A     3.31571e-01     4.14142e-01
 o5bf                                   8      0.0000       0.00000       A     3.04736e-01     6.12198e-01
 n6bf                                   7      0.0000       0.00000       A     3.26918e-01     4.88910e-01
 h7bf                                   1      0.0000       0.00000       A     1.10581e-01     4.00581e-02
 c8bf                                   6      0.0000       0.00000       A     3.40196e-01     4.52850e-01
 h9bf                                   1      0.0000       0.00000       A     2.42552e-01     8.80025e-02
 c10bf                                  6      0.0000       0.00000       A     3.39753e-01     4.51539e-01
 h11bf                                  1      0.0000       0.00000       A     2.42186e-01     8.70863e-02
 c12bf                                  6      0.0000       0.00000       A     3.39826e-01     4.49268e-01
 h13bf                                  1      0.0000       0.00000       A     2.60038e-01     8.81158e-02
 h14bf                                  1      0.0000       0.00000       A     2.60038e-01     8.81158e-02
 c15bf                                  6      0.0000       0.00000       A     3.39787e-01     4.50885e-01
 h16bf                                  1      0.0000       0.00000       A     1.87782e-01     8.61542e-02
 h17bf                                  1      0.0000       0.00000       A     1.87782e-01     8.61542e-02
 c18bf                                  6      0.0000       0.00000       A     3.31422e-01     4.12179e-01
 o19bf                                  8      0.0000       0.00000       A     3.24609e-01     3.92421e-01
 h20bf                                  1      0.0000       0.00000       A     5.35605e-02     1.98375e-02
 n21bf                                  7      0.0000       0.00000       A     2.67375e-01     7.04506e+00
 h22bf                                  1      0.0000       0.00000       A     1.10868e-01     4.18346e-02
 c23bf                                  6      0.0000       0.00000       A     3.31516e-01     4.12672e-01
 h24bf                                  1      0.0000       0.00000       A     2.62462e-01     6.71642e-02
 h25bf                                  1      0.0000       0.00000       A     1.10868e-01     4.18346e-02
 c26bf                                  6      0.0000       0.00000       A     3.40050e-01     4.49198e-01
 c27bf                                  6      0.0000       0.00000       A     3.31520e-01     4.13508e-01
 f28bf                                  9      0.0000       0.00000       A     3.03421e-01     3.47466e-01
 c29bf                                  6      0.0000       0.00000       A     3.39962e-01     4.51215e-01
 h30bf                                  1      0.0000       0.00000       A     2.59836e-01     8.67256e-02
 h31bf                                  1      0.0000       0.00000       A     2.59836e-01     8.67256e-02
 c32bf                                  6      0.0000       0.00000       A     3.31226e-01     4.14399e-01
 c33bf                                  6      0.0000       0.00000       A     3.31572e-01     4.12292e-01
 h34bf                                  1      0.0000       0.00000       A     2.62456e-01     6.72600e-02
 c35bf                                  6      0.0000       0.00000       A     3.39866e-01     4.50704e-01
 c36bf                                  6      0.0000       0.00000       A     3.31625e-01     4.14697e-01
 c37bf                                  6      0.0000       0.00000       A     3.31520e-01     4.13508e-01
 f38bf                                  9      0.0000       0.00000       A     3.03421e-01     3.47466e-01
 h39bf                                  1      0.0000       0.00000       A     2.60178e-01     8.66937e-02
 h40bf                                  1      0.0000       0.00000       A     2.60178e-01     8.66937e-02
 h41bf                                  1      0.0000       0.00000       A     2.62542e-01     6.77787e-02
 c42bf                                  6      0.0000       0.00000       A     3.39895e-01     4.51375e-01
 h43bf                                  1      0.0000       0.00000       A     2.59998e-01     8.72507e-02
 h44bf                                  1      0.0000       0.00000       A     2.59998e-01     8.72507e-02
 c45bf                                  6      0.0000       0.00000       A     3.31257e-01     4.11203e-01
 c46bf                                  6      0.0000       0.00000       A     3.31516e-01     4.12672e-01
 h47bf                                  1      0.0000       0.00000       A     2.62462e-01     6.71642e-02
 c48bf                                  6      0.0000       0.00000       A     3.39866e-01     4.50704e-01
 h49bf                                  1      0.0000       0.00000       A     2.60178e-01     8.66937e-02
 h50bf                                  1      0.0000       0.00000       A     2.60178e-01     8.66937e-02
 c51bf                                  6      0.0000       0.00000       A     3.31504e-01     4.12212e-01
 h52bf                                  1      0.0000       0.00000       A     2.62503e-01     6.75664e-02
 c53bf                                  6      0.0000       0.00000       A     3.31399e-01     4.10177e-01
 c54bf                                  6      0.0000       0.00000       A     3.39962e-01     4.51215e-01
 h55bf                                  1      0.0000       0.00000       A     2.59836e-01     8.67256e-02
 h56bf                                  1      0.0000       0.00000       A     2.59836e-01     8.67256e-02
 c57bf                                  6      0.0000       0.00000       A     3.31485e-01     4.13591e-01
 h58bf                                  1      0.0000       0.00000       A     2.62506e-01     6.74595e-02
 c59bf                                  6      0.0000       0.00000       A     3.31590e-01     4.10938e-01
 c60bf                                  6      0.0000       0.00000       A     3.31494e-01     4.12983e-01
 h61bf                                  1      0.0000       0.00000       A     2.62654e-01     6.75121e-02
 s62bf                                 16      0.0000       0.00000       A     3.53141e-01     1.18091e+00
 c63bf                                  6      0.0000       0.00000       A     3.31492e-01     4.13210e-01
 c64bf                                  6      0.0000       0.00000       A     3.31472e-01     4.13492e-01
 h65bf                                  1      0.0000       0.00000       A     2.54027e-01     6.64396e-02
 h66bf                                  1      0.0000       0.00000       A     2.53955e-01     6.65274e-02
 h67bf                                  1      0.0000       0.00000       A     2.62614e-01     6.77883e-02

[ moleculetype ]
;name             nrexcl
 22252_22_0_ligand       3

[ atoms ]
;       nr            type      resi   res      atom      cgnr      charge          mass ; qtot
         1            c0bf         1   UNL        c0         1    -0.17635       12.0110 ; qtot   -0.176
         2            h1bf         1   UNL        h1         2     0.06225        1.0080 ; qtot   -0.114
         3            h2bf         1   UNL        h2         3     0.06225        1.0080 ; qtot   -0.052
         4            h3bf         1   UNL        h3         4     0.06225        1.0080 ; qtot    0.010
         5            c4bf         1   UNL        c4         5     0.60223       12.0110 ; qtot    0.613
         6            o5bf         1   UNL        o5         6    -0.61219       15.9990 ; qtot    0.000
         7            n6bf         1   UNL        n6         7    -0.51471       14.0070 ; qtot   -0.514
         8            h7bf         1   UNL        h7         8     0.32227        1.0080 ; qtot   -0.192
         9            c8bf         1   UNL        c8         9     0.10285       12.0110 ; qtot   -0.089
        10            h9bf         1   UNL        h9        10     0.08510        1.0080 ; qtot   -0.004
        11           c10bf         1   UNL       c10        11     0.15086       12.0110 ; qtot    0.147
        12           h11bf         1   UNL       h11        12     0.07889        1.0080 ; qtot    0.226
        13           c12bf         1   UNL       c12        13    -0.03751       12.0110 ; qtot    0.188
        14           h13bf         1   UNL       h13        14     0.06639        1.0080 ; qtot    0.255
        15           h14bf         1   UNL       h14        15     0.06639        1.0080 ; qtot    0.321
        16           c15bf         1   UNL       c15        16     0.11168       12.0110 ; qtot    0.433
        17           h16bf         1   UNL       h16        17     0.11120        1.0080 ; qtot    0.544
        18           h17bf         1   UNL       h17        18     0.11120        1.0080 ; qtot    0.655
        19           c18bf         1   UNL       c18        19    -0.03374       12.0110 ; qtot    0.621
        20           o19bf         1   UNL       o19        20    -0.69061       15.9990 ; qtot   -0.069
        21           h20bf         1   UNL       h20        21     0.49888        1.0080 ; qtot    0.430
        22           n21bf         1   UNL       n21        22    -0.82786       14.0070 ; qtot   -0.398
        23           h22bf         1   UNL       h22        23     0.51482        1.0080 ; qtot    0.117
        24           c23bf         1   UNL       c23        24    -0.15563       12.0110 ; qtot   -0.039
        25           h24bf         1   UNL       h24        25     0.13725        1.0080 ; qtot    0.098
        26           h25bf         1   UNL       h25        26     0.51482        1.0080 ; qtot    0.613
        27           c26bf         1   UNL       c26        27     0.21375       12.0110 ; qtot    0.827
        28           c27bf         1   UNL       c27        28     0.18913       12.0110 ; qtot    1.016
        29           f28bf         1   UNL       f28        29    -0.17421       18.9980 ; qtot    0.842
        30           c29bf         1   UNL       c29        30    -0.08783       12.0110 ; qtot    0.754
        31           h30bf         1   UNL       h30        31     0.07147        1.0080 ; qtot    0.825
        32           h31bf         1   UNL       h31        32     0.07147        1.0080 ; qtot    0.897
        33           c32bf         1   UNL       c32        33    -0.15468       12.0110 ; qtot    0.742
        34           c33bf         1   UNL       c33        34    -0.18801       12.0110 ; qtot    0.554
        35           h34bf         1   UNL       h34        35     0.15358        1.0080 ; qtot    0.708
        36           c35bf         1   UNL       c35        36    -0.07132       12.0110 ; qtot    0.636
        37           c36bf         1   UNL       c36        37    -0.07391       12.0110 ; qtot    0.562
        38           c37bf         1   UNL       c37        38     0.18913       12.0110 ; qtot    0.752
        39           f38bf         1   UNL       f38        39    -0.17421       18.9980 ; qtot    0.577
        40           h39bf         1   UNL       h39        40     0.05675        1.0080 ; qtot    0.634
        41           h40bf         1   UNL       h40        41     0.05675        1.0080 ; qtot    0.691
        42           h41bf         1   UNL       h41        42     0.12662        1.0080 ; qtot    0.817
        43           c42bf         1   UNL       c42        43    -0.08473       12.0110 ; qtot    0.733
        44           h43bf         1   UNL       h43        44     0.04473        1.0080 ; qtot    0.777
        45           h44bf         1   UNL       h44        45     0.04473        1.0080 ; qtot    0.822
        46           c45bf         1   UNL       c45        46     0.01396       12.0110 ; qtot    0.836
        47           c46bf         1   UNL       c46        47    -0.15563       12.0110 ; qtot    0.681
        48           h47bf         1   UNL       h47        48     0.13725        1.0080 ; qtot    0.818
        49           c48bf         1   UNL       c48        49    -0.07132       12.0110 ; qtot    0.746
        50           h49bf         1   UNL       h49        50     0.05675        1.0080 ; qtot    0.803
        51           h50bf         1   UNL       h50        51     0.05675        1.0080 ; qtot    0.860
        52           c51bf         1   UNL       c51        52    -0.09538       12.0110 ; qtot    0.765
        53           h52bf         1   UNL       h52        53     0.11623        1.0080 ; qtot    0.881
        54           c53bf         1   UNL       c53        54    -0.06944       12.0110 ; qtot    0.811
        55           c54bf         1   UNL       c54        55    -0.08783       12.0110 ; qtot    0.724
        56           h55bf         1   UNL       h55        56     0.07147        1.0080 ; qtot    0.795
        57           h56bf         1   UNL       h56        57     0.07147        1.0080 ; qtot    0.866
        58           c57bf         1   UNL       c57        58    -0.07959       12.0110 ; qtot    0.787
        59           h58bf         1   UNL       h58        59     0.12687        1.0080 ; qtot    0.914
        60           c59bf         1   UNL       c59        60    -0.22316       12.0110 ; qtot    0.691
        61           c60bf         1   UNL       c60        61    -0.08410       12.0110 ; qtot    0.606
        62           h61bf         1   UNL       h61        62     0.12481        1.0080 ; qtot    0.731
        63           s62bf         1   UNL       s62        63     0.17974       32.0670 ; qtot    0.911
        64           c63bf         1   UNL       c63        64    -0.22843       12.0110 ; qtot    0.683
        65           c64bf         1   UNL       c64        65    -0.12074       12.0110 ; qtot    0.562
        66           h65bf         1   UNL       h65        66     0.15107        1.0080 ; qtot    0.713
        67           h66bf         1   UNL       h66        67     0.14980        1.0080 ; qtot    0.863
        68           h67bf         1   UNL       h67        68     0.13726        1.0080 ; qtot    1.000

[ bonds ]
;       ai        aj funct               r               k
         1         2     1        0.109281   307290.514209
         1         3     1        0.109281   307290.514209
         1         4     1        0.109281   307290.514209
         1         5     1        0.151969   180454.982788
         5         6     1        0.123279   600628.726562
         5         7     1        0.137142   287890.534033
         7         8     1        0.101116   421821.972656
         7         9     1        0.146373   194348.676978
         9        10     1        0.109305   304137.115332
         9        11     1        0.154875   156247.858838
         9        13     1        0.154784   160322.049268
        11        12     1        0.109730   293205.725830
        11        16     1        0.153379   175303.407251
        11        20     1        0.143115   199672.896143
        13        14     1        0.109359   298803.204834
        13        15     1        0.109359   298803.204834
        13        19     1        0.151125   199379.959961
        16        17     1        0.108996   313885.574854
        16        18     1        0.108996   313885.600391
        16        22     1        0.150836   148835.738379
        19        24     1        0.140252   293000.075488
        19        47     1        0.140252   293000.075488
        20        21     1        0.097256   464269.040820
        22        23     1        0.103134   365660.710645
        22        26     1        0.103134   365660.710645
        22        27     1        0.155939    73110.707556
        24        25     1        0.108529   322235.571191
        24        28     1        0.139078   310079.958203
        27        30     1        0.154389   161666.309937
        27        33     1        0.152425   168962.734521
        27        55     1        0.154389   161666.322705
        28        29     1        0.135546   290992.169189
        28        34     1        0.139189   307398.306348
        30        31     1        0.109416   298922.182227
        30        32     1        0.109416   298922.182227
        30        36     1        0.153944   176575.768188
        33        37     1        0.140239   285662.038184
        33        61     1        0.140440   282399.621387
        34        35     1        0.108371   329625.908496
        34        38     1        0.139189   307398.306348
        36        40     1        0.109449   298707.696045
        36        41     1        0.109449   298707.696045
        36        43     1        0.153880   182223.491455
        37        42     1        0.108518   319179.136719
        37        46     1        0.140476   285709.511670
        38        39     1        0.135546   290992.143652
        38        47     1        0.139078   310079.958203
        43        44     1        0.109565   295187.277832
        43        45     1        0.109565   295187.277832
        43        49     1        0.153880   182223.478687
        46        52     1        0.140699   283681.405518
        46        54     1        0.147510   224697.680029
        47        48     1        0.108529   322235.571191
        49        50     1        0.109449   298707.721582
        49        51     1        0.109449   298707.721582
        49        55     1        0.153944   176575.768188
        52        53     1        0.108582   318727.870459
        52        58     1        0.139510   317268.399121
        54        60     1        0.137886   356622.514746
        54        65     1        0.144056   236072.470361
        55        56     1        0.109416   298922.156689
        55        57     1        0.109416   298922.156689
        58        59     1        0.108585   321280.406689
        58        61     1        0.139664   313825.664795
        60        63     1        0.173032   171537.156055
        60        66     1        0.108157   338814.977637
        61        62     1        0.108560   319919.738428
        63        64     1        0.173414   167203.112769
        64        65     1        0.136962   389617.890137
        64        67     1        0.108210   338855.658252
        65        68     1        0.108389   326950.947363

[ angles ]
;       ai        aj        ak funct           theta             cth
         1         5         6     1      121.559692      494.520952
         1         5         7     1      115.538086      521.033387
         2         1         3     1      108.611633      361.230424
         2         1         4     1      108.611633      361.230424
         2         1         5     1      110.304222      512.627784
         3         1         4     1      108.611633      361.230424
         3         1         5     1      110.304222      512.627784
         4         1         5     1      110.304222      512.627784
         5         7         8     1      117.683533      451.298692
         5         7         9     1      122.640366      552.466696
         6         5         7     1      122.450035      640.179772
         7         9        10     1      106.497803      505.172480
         7         9        11     1      110.426743      532.987563
         7         9        13     1      111.197876      573.809846
         8         7         9     1      117.095421      413.878559
         9        11        12     1      108.341751      462.109572
         9        11        16     1      112.884842      561.501023
         9        11        20     1      111.191750      612.905117
         9        13        14     1      108.267471      482.646515
         9        13        15     1      108.267471      482.646515
         9        13        19     1      112.656578      534.840632
        10         9        11     1      107.271194      477.840367
        10         9        13     1      108.351517      455.059031
        11         9        13     1      113.293007      563.278533
        11        16        17     1      111.060204      456.883339
        11        16        18     1      111.060204      456.883339
        11        16        22     1      109.917152      636.085151
        11        20        21     1      110.000771      551.136340
        12        11        16     1      108.906960      478.214965
        12        11        20     1      109.651207      458.729161
        13        19        24     1      120.204666      490.498346
        13        19        47     1      120.204666      490.498346
        14        13        15     1      106.998825      359.051949
        14        13        19     1      109.898193      498.113257
        15        13        19     1      109.898193      498.113257
        16        11        20     1      104.964554      637.700948
        16        22        23     1      107.818253      499.612924
        16        22        26     1      107.818253      499.612924
        16        22        27     1      119.482651      549.050852
        17        16        18     1      109.240089      345.596446
        17        16        22     1      107.771469      547.277875
        18        16        22     1      107.771469      547.277875
        19        24        25     1      121.399818      395.876206
        19        24        28     1      119.171677      687.357857
        19        47        38     1      119.171677      687.357857
        19        47        48     1      121.399818      395.876206
        22        27        30     1      107.324478      660.720099
        22        27        33     1      105.687096      660.607288
        22        27        55     1      107.324478      660.720099
        23        22        26     1      106.733261      396.539341
        23        22        27     1      107.362228      449.735055
        24        19        47     1      119.304344      683.717670
        24        28        29     1      118.697449      556.856206
        24        28        34     1      123.014793      599.300542
        25        24        28     1      119.458008      430.140782
        26        22        27     1      107.362228      449.735055
        27        30        31     1      109.296852      478.809916
        27        30        32     1      109.296852      478.809916
        27        30        36     1      112.350487      593.607171
        27        33        37     1      120.706932      456.247879
        27        33        61     1      120.794044      510.361429
        27        55        49     1      112.350487      593.607171
        27        55        56     1      109.296852      478.809916
        27        55        57     1      109.296852      478.809916
        28        34        35     1      121.810081      421.339609
        28        34        38     1      116.394432      716.641388
        29        28        34     1      118.251686      546.060393
        30        27        33     1      114.071815      602.349800
        30        27        55     1      110.257828      514.188867
        30        36        40     1      109.192032      512.058562
        30        36        41     1      109.192032      512.058562
        30        36        43     1      111.497757      644.440830
        31        30        32     1      106.345482      358.854388
        31        30        36     1      109.594704      502.313345
        32        30        36     1      109.594704      502.313345
        33        27        55     1      114.071815      602.349800
        33        37        42     1      120.504044      405.938050
        33        37        46     1      121.631432      663.572721
        33        61        58     1      120.067284      670.486383
        33        61        62     1      121.203262      407.329887
        34        38        39     1      118.251686      546.060393
        34        38        47     1      123.014793      599.300542
        35        34        38     1      121.810081      421.339641
        36        43        44     1      109.732216      505.339301
        36        43        45     1      109.732216      505.339301
        36        43        49     1      111.340858      582.517809
        37        33        61     1      118.710594      647.761229
        37        46        52     1      118.051926      669.959042
        37        46        54     1      120.932945      407.559337
        38        47        48     1      119.458008      430.140782
        39        38        47     1      118.697449      556.856206
        40        36        41     1      106.261375      362.881718
        40        36        43     1      110.076126      490.303881
        41        36        43     1      110.076126      490.303881
        42        37        46     1      118.296837      435.661969
        43        49        50     1      110.076126      490.303913
        43        49        51     1      110.076126      490.303913
        43        49        55     1      111.497765      644.440830
        44        43        45     1      106.436600      366.271003
        44        43        49     1      109.732216      505.339301
        45        43        49     1      109.732216      505.339301
        46        52        53     1      119.715233      435.192277
        46        52        58     1      120.587234      710.321337
        46        54        60     1      124.303757      473.932647
        46        54        65     1      124.238281      509.739154
        49        55        56     1      109.594704      502.313409
        49        55        57     1      109.594704      502.313409
        50        49        51     1      106.261375      362.881718
        50        49        55     1      109.192032      512.058562
        51        49        55     1      109.192032      512.058562
        52        46        54     1      120.937622      502.787697
        52        58        59     1      119.726990      440.285143
        52        58        61     1      120.414719      719.164008
        53        52        58     1      119.697617      430.132067
        54        60        63     1      112.350418      167.360000
        54        60        66     1      127.784378      378.257260
        54        65        64     1      113.113083      348.335557
        54        65        68     1      123.889481      405.347920
        56        55        57     1      106.345482      358.854420
        58        61        62     1      118.843140      434.614117
        59        58        61     1      119.745377      430.667868
        60        54        65     1      111.233376      333.352137
        60        63        64     1       91.474319      297.813227
        63        60        66     1      119.937485      365.143125
        63        64        65     1      111.664330      167.360000
        63        64        67     1      120.159134      371.451110
        64        65        68     1      123.168472      397.758035
        65        64        67     1      128.227036      389.623732

[ dihedrals ] ; propers for gromacs 4.5 or higher, use funct 9
;       ai        aj        ak        al funct           phase               k        pn
         1         5         7         8     9        0.000000       -0.984681         1
         1         5         7         8     9      180.000000       10.713816         2
         1         5         7         8     9        0.000000        0.266309         3
         1         5         7         8     9      180.000000        1.049624         4
         1         5         7         9     9        0.000000        2.899699         1
         1         5         7         9     9      180.000000       10.926082         2
         1         5         7         9     9        0.000000        2.211648         3
         1         5         7         9     9      180.000000        0.541693         4
         2         1         5         6     9        0.000000        0.021298         1
         2         1         5         6     9      180.000000        0.079376         2
         2         1         5         6     9        0.000000       -0.551453         3
         2         1         5         6     9      180.000000        0.118633         4
         2         1         5         7     9        0.000000        0.050138         1
         2         1         5         7     9      180.000000        0.087191         2
         2         1         5         7     9        0.000000       -0.625790         3
         2         1         5         7     9      180.000000        0.214023         4
         3         1         5         6     9        0.000000        0.021298         1
         3         1         5         6     9      180.000000        0.079376         2
         3         1         5         6     9        0.000000       -0.551453         3
         3         1         5         6     9      180.000000        0.118633         4
         3         1         5         7     9        0.000000        0.050138         1
         3         1         5         7     9      180.000000        0.087191         2
         3         1         5         7     9        0.000000       -0.625790         3
         3         1         5         7     9      180.000000        0.214023         4
         4         1         5         6     9        0.000000        0.021298         1
         4         1         5         6     9      180.000000        0.079376         2
         4         1         5         6     9        0.000000       -0.551453         3
         4         1         5         6     9      180.000000        0.118633         4
         4         1         5         7     9        0.000000        0.050138         1
         4         1         5         7     9      180.000000        0.087191         2
         4         1         5         7     9        0.000000       -0.625790         3
         4         1         5         7     9      180.000000        0.214023         4
         5         7         9        10     9        0.000000       -0.179301         1
         5         7         9        10     9      180.000000       -0.134417         2
         5         7         9        10     9        0.000000        0.024570         3
         5         7         9        10     9      180.000000        0.224107         4
         5         7         9        11     9        0.000000        5.050317         1
         5         7         9        11     9      180.000000       -0.563328         2
         5         7         9        11     9        0.000000        0.226314         3
         5         7         9        11     9      180.000000        0.154439         4
         5         7         9        13     9        0.000000        0.167201         1
         5         7         9        13     9      180.000000        0.020954         2
         5         7         9        13     9        0.000000        0.412499         3
         5         7         9        13     9      180.000000        0.148208         4
         6         5         7         8     9        0.000000        0.832867         1
         6         5         7         8     9      180.000000       11.780037         2
         6         5         7         8     9        0.000000       -0.375982         3
         6         5         7         8     9      180.000000        0.948326         4
         6         5         7         9     9        0.000000        1.017243         1
         6         5         7         9     9      180.000000        8.664891         2
         6         5         7         9     9        0.000000        1.257682         3
         6         5         7         9     9      180.000000       -2.081175         4
         7         9        11        12     9        0.000000       -0.330931         1
         7         9        11        12     9      180.000000        0.160754         2
         7         9        11        12     9        0.000000        0.605276         3
         7         9        11        12     9      180.000000        0.012970         4
         7         9        11        16     9        0.000000        0.004374         1
         7         9        11        16     9      180.000000        0.355583         2
         7         9        11        16     9        0.000000        0.432313         3
         7         9        11        16     9      180.000000       -0.051368         4
         7         9        11        20     9        0.000000        3.106880         1
         7         9        11        20     9      180.000000       -1.127416         2
         7         9        11        20     9        0.000000        0.329768         3
         7         9        11        20     9      180.000000       -0.362983         4
         7         9        13        14     9        0.000000        0.023705         1
         7         9        13        14     9      180.000000       -0.046295         2
         7         9        13        14     9        0.000000        0.601711         3
         7         9        13        14     9      180.000000       -0.015242         4
         7         9        13        15     9        0.000000        0.023705         1
         7         9        13        15     9      180.000000       -0.046295         2
         7         9        13        15     9        0.000000        0.601711         3
         7         9        13        15     9      180.000000       -0.015242         4
         7         9        13        19     9        0.000000        0.020857         1
         7         9        13        19     9      180.000000       -0.227535         2
         7         9        13        19     9        0.000000        0.602447         3
         7         9        13        19     9      180.000000        0.017764         4
         8         7         9        10     9        0.000000       -0.341458         1
         8         7         9        10     9      180.000000        0.079792         2
         8         7         9        10     9        0.000000        0.711576         3
         8         7         9        10     9      180.000000        0.176783         4
         8         7         9        11     9        0.000000       -1.745272         1
         8         7         9        11     9      180.000000       -1.615863         2
         8         7         9        11     9        0.000000        0.669381         3
         8         7         9        11     9      180.000000        0.033695         4
         8         7         9        13     9        0.000000       -0.797733         1
         8         7         9        13     9      180.000000       -0.748927         2
         8         7         9        13     9        0.000000        0.646438         3
         8         7         9        13     9      180.000000        0.076137         4
         9        11        16        17     9        0.000000       -0.126504         1
         9        11        16        17     9      180.000000       -0.019151         2
         9        11        16        17     9        0.000000        0.628461         3
         9        11        16        17     9      180.000000        0.073642         4
         9        11        16        18     9        0.000000       -0.126504         1
         9        11        16        18     9      180.000000       -0.019151         2
         9        11        16        18     9        0.000000        0.628461         3
         9        11        16        18     9      180.000000        0.073642         4
         9        11        16        22     9        0.000000        1.936346         1
         9        11        16        22     9      180.000000       -1.159781         2
         9        11        16        22     9        0.000000        0.704519         3
         9        11        16        22     9      180.000000       -0.010776         4
         9        11        20        21     9        0.000000        3.235326         1
         9        11        20        21     9      180.000000       -2.294890         2
         9        11        20        21     9        0.000000        1.178564         3
         9        11        20        21     9      180.000000       -0.104336         4
         9        13        19        24     9        0.000000       -0.434990         1
         9        13        19        24     9      180.000000        0.453058         2
         9        13        19        24     9        0.000000        0.234189         3
         9        13        19        24     9      180.000000        0.023247         4
         9        13        19        47     9        0.000000       -0.434991         1
         9        13        19        47     9      180.000000        0.453058         2
         9        13        19        47     9        0.000000        0.234189         3
         9        13        19        47     9      180.000000        0.023247         4
        10         9        11        12     9        0.000000        0.643777         1
        10         9        11        12     9      180.000000       -0.177609         2
        10         9        11        12     9        0.000000        0.674420         3
        10         9        11        12     9      180.000000       -0.134003         4
        10         9        11        16     9        0.000000       -0.936020         1
        10         9        11        16     9      180.000000        0.138600         2
        10         9        11        16     9        0.000000        0.563772         3
        10         9        11        16     9      180.000000        0.010756         4
        10         9        11        20     9        0.000000       -0.418147         1
        10         9        11        20     9      180.000000       -0.069201         2
        10         9        11        20     9        0.000000        0.567563         3
        10         9        11        20     9      180.000000       -0.028416         4
        10         9        13        14     9        0.000000        0.220681         1
        10         9        13        14     9      180.000000        0.105451         2
        10         9        13        14     9        0.000000        0.645369         3
        10         9        13        14     9      180.000000       -0.080367         4
        10         9        13        15     9        0.000000        0.220681         1
        10         9        13        15     9      180.000000        0.105451         2
        10         9        13        15     9        0.000000        0.645369         3
        10         9        13        15     9      180.000000       -0.080367         4
        10         9        13        19     9        0.000000       -0.400935         1
        10         9        13        19     9      180.000000        0.178764         2
        10         9        13        19     9        0.000000        0.717846         3
        10         9        13        19     9      180.000000       -0.040457         4
        11         9        13        14     9        0.000000       -0.477508         1
        11         9        13        14     9      180.000000        0.019137         2
        11         9        13        14     9        0.000000        0.477494         3
        11         9        13        14     9      180.000000        0.046079         4
        11         9        13        15     9        0.000000       -0.477508         1
        11         9        13        15     9      180.000000        0.019137         2
        11         9        13        15     9        0.000000        0.477494         3
        11         9        13        15     9      180.000000        0.046079         4
        11         9        13        19     9        0.000000        1.868184         1
        11         9        13        19     9      180.000000       -0.476962         2
        11         9        13        19     9        0.000000        0.646744         3
        11         9        13        19     9      180.000000        0.008005         4
        11        16        22        23     9        0.000000        1.741430         1
        11        16        22        23     9      180.000000       -0.446185         2
        11        16        22        23     9        0.000000        0.387189         3
        11        16        22        23     9      180.000000       -0.096213         4
        11        16        22        26     9        0.000000        1.741430         1
        11        16        22        26     9      180.000000       -0.446185         2
        11        16        22        26     9        0.000000        0.387189         3
        11        16        22        26     9      180.000000       -0.096213         4
        11        16        22        27     9        0.000000       -2.062504         1
        11        16        22        27     9      180.000000       -0.453246         2
        11        16        22        27     9        0.000000        0.411765         3
        11        16        22        27     9      180.000000        0.042835         4
        12        11         9        13     9        0.000000       -0.468971         1
        12        11         9        13     9      180.000000        0.120166         2
        12        11         9        13     9        0.000000        0.585545         3
        12        11         9        13     9      180.000000        0.057195         4
        12        11        16        17     9        0.000000       -0.087599         1
        12        11        16        17     9      180.000000        0.018618         2
        12        11        16        17     9        0.000000        0.654544         3
        12        11        16        17     9      180.000000       -0.077011         4
        12        11        16        18     9        0.000000       -0.087599         1
        12        11        16        18     9      180.000000        0.018618         2
        12        11        16        18     9        0.000000        0.654544         3
        12        11        16        18     9      180.000000       -0.077011         4
        12        11        16        22     9        0.000000       -0.515792         1
        12        11        16        22     9      180.000000       -0.327778         2
        12        11        16        22     9        0.000000        0.689629         3
        12        11        16        22     9      180.000000        0.083347         4
        12        11        20        21     9        0.000000       -0.307051         1
        12        11        20        21     9      180.000000        0.107826         2
        12        11        20        21     9        0.000000        0.883692         3
        12        11        20        21     9      180.000000        0.026240         4
        13         9        11        16     9        0.000000        1.013016         1
        13         9        11        16     9      180.000000        0.066151         2
        13         9        11        16     9        0.000000        0.619163         3
        13         9        11        16     9      180.000000       -0.069289         4
        13         9        11        20     9        0.000000       -0.841251         1
        13         9        11        20     9      180.000000        0.042010         2
        13         9        11        20     9        0.000000        0.600459         3
        13         9        11        20     9      180.000000       -0.036811         4
        13        19        24        25     9        0.000000       -0.160824         1
        13        19        24        25     9      180.000000       12.658723         2
        13        19        24        25     9        0.000000       -0.529256         3
        13        19        24        25     9      180.000000        0.225383         4
        13        19        24        28     9        0.000000        0.158952         1
        13        19        24        28     9      180.000000       15.991497         2
        13        19        24        28     9        0.000000       -0.281609         3
        13        19        24        28     9      180.000000       -0.244265         4
        13        19        47        38     9        0.000000        0.158953         1
        13        19        47        38     9      180.000000       15.991497         2
        13        19        47        38     9        0.000000       -0.281610         3
        13        19        47        38     9      180.000000       -0.244264         4
        13        19        47        48     9        0.000000       -0.160824         1
        13        19        47        48     9      180.000000       12.658727         2
        13        19        47        48     9        0.000000       -0.529255         3
        13        19        47        48     9      180.000000        0.225383         4
        14        13        19        24     9        0.000000        0.017127         1
        14        13        19        24     9      180.000000        0.005908         2
        14        13        19        24     9        0.000000        0.214914         3
        14        13        19        24     9      180.000000        0.010055         4
        14        13        19        47     9        0.000000        0.017126         1
        14        13        19        47     9      180.000000        0.005907         2
        14        13        19        47     9        0.000000        0.214915         3
        14        13        19        47     9      180.000000        0.010055         4
        15        13        19        24     9        0.000000        0.017127         1
        15        13        19        24     9      180.000000        0.005908         2
        15        13        19        24     9        0.000000        0.214914         3
        15        13        19        24     9      180.000000        0.010055         4
        15        13        19        47     9        0.000000        0.017126         1
        15        13        19        47     9      180.000000        0.005907         2
        15        13        19        47     9        0.000000        0.214915         3
        15        13        19        47     9      180.000000        0.010055         4
        16        11        20        21     9        0.000000       -0.911918         1
        16        11        20        21     9      180.000000       -2.218268         2
        16        11        20        21     9        0.000000        0.861332         3
        16        11        20        21     9      180.000000        0.065271         4
        16        22        27        30     9        0.000000       -0.154860         1
        16        22        27        30     9      180.000000        0.751120         2
        16        22        27        30     9        0.000000        0.853993         3
        16        22        27        30     9      180.000000        0.049086         4
        16        22        27        33     9        0.000000       -1.439868         1
        16        22        27        33     9      180.000000        0.022001         2
        16        22        27        33     9        0.000000        1.296238         3
        16        22        27        33     9      180.000000        0.114849         4
        16        22        27        55     9        0.000000       -0.154859         1
        16        22        27        55     9      180.000000        0.751120         2
        16        22        27        55     9        0.000000        0.853993         3
        16        22        27        55     9      180.000000        0.049087         4
        17        16        11        20     9        0.000000        0.517341         1
        17        16        11        20     9      180.000000       -0.334263         2
        17        16        11        20     9        0.000000        0.615665         3
        17        16        11        20     9      180.000000       -0.010583         4
        17        16        22        23     9        0.000000        0.063202         1
        17        16        22        23     9      180.000000       -0.105366         2
        17        16        22        23     9        0.000000        0.307068         3
        17        16        22        23     9      180.000000        0.101691         4
        17        16        22        26     9        0.000000        0.063202         1
        17        16        22        26     9      180.000000       -0.105366         2
        17        16        22        26     9        0.000000        0.307068         3
        17        16        22        26     9      180.000000        0.101691         4
        17        16        22        27     9        0.000000       -0.265507         1
        17        16        22        27     9      180.000000       -0.012239         2
        17        16        22        27     9        0.000000        0.586175         3
        17        16        22        27     9      180.000000       -0.058766         4
        18        16        11        20     9        0.000000        0.517341         1
        18        16        11        20     9      180.000000       -0.334263         2
        18        16        11        20     9        0.000000        0.615665         3
        18        16        11        20     9      180.000000       -0.010583         4
        18        16        22        23     9        0.000000        0.063202         1
        18        16        22        23     9      180.000000       -0.105366         2
        18        16        22        23     9        0.000000        0.307068         3
        18        16        22        23     9      180.000000        0.101691         4
        18        16        22        26     9        0.000000        0.063202         1
        18        16        22        26     9      180.000000       -0.105366         2
        18        16        22        26     9        0.000000        0.307068         3
        18        16        22        26     9      180.000000        0.101691         4
        18        16        22        27     9        0.000000       -0.265507         1
        18        16        22        27     9      180.000000       -0.012239         2
        18        16        22        27     9        0.000000        0.586175         3
        18        16        22        27     9      180.000000       -0.058766         4
        19        24        28        29     9        0.000000        0.558322         1
        19        24        28        29     9      180.000000       22.600098         2
        19        24        28        29     9        0.000000        0.580146         3
        19        24        28        29     9      180.000000       -0.676260         4
        19        24        28        34     9        0.000000       -0.009833         1
        19        24        28        34     9      180.000000       16.983544         2
        19        24        28        34     9        0.000000       -1.224299         3
        19        24        28        34     9      180.000000       -0.325714         4
        19        47        38        34     9        0.000000       -0.009834         1
        19        47        38        34     9      180.000000       16.983546         2
        19        47        38        34     9        0.000000       -1.224300         3
        19        47        38        34     9      180.000000       -0.325714         4
        19        47        38        39     9        0.000000        0.558321         1
        19        47        38        39     9      180.000000       22.600102         2
        19        47        38        39     9        0.000000        0.580145         3
        19        47        38        39     9      180.000000       -0.676261         4
        20        11        16        22     9        0.000000       11.736840         1
        20        11        16        22     9      180.000000       -2.757430         2
        20        11        16        22     9        0.000000        0.182550         3
        20        11        16        22     9      180.000000        0.345479         4
        22        27        30        31     9        0.000000       -0.236663         1
        22        27        30        31     9      180.000000       -0.301532         2
        22        27        30        31     9        0.000000        0.570472         3
        22        27        30        31     9      180.000000       -0.013890         4
        22        27        30        32     9        0.000000       -0.236663         1
        22        27        30        32     9      180.000000       -0.301532         2
        22        27        30        32     9        0.000000        0.570472         3
        22        27        30        32     9      180.000000       -0.013890         4
        22        27        30        36     9        0.000000        4.859717         1
        22        27        30        36     9      180.000000       -1.253904         2
        22        27        30        36     9        0.000000        0.411171         3
        22        27        30        36     9      180.000000        0.243306         4
        22        27        33        37     9        0.000000        1.905798         1
        22        27        33        37     9      180.000000        0.026585         2
        22        27        33        37     9        0.000000        0.192903         3
        22        27        33        37     9      180.000000        0.054738         4
        22        27        33        61     9        0.000000        0.350005         1
        22        27        33        61     9      180.000000        0.085503         2
        22        27        33        61     9        0.000000        0.221293         3
        22        27        33        61     9      180.000000        0.072506         4
        22        27        55        49     9        0.000000        4.859715         1
        22        27        55        49     9      180.000000       -1.253905         2
        22        27        55        49     9        0.000000        0.411171         3
        22        27        55        49     9      180.000000        0.243306         4
        22        27        55        56     9        0.000000       -0.236663         1
        22        27        55        56     9      180.000000       -0.301532         2
        22        27        55        56     9        0.000000        0.570472         3
        22        27        55        56     9      180.000000       -0.013891         4
        22        27        55        57     9        0.000000       -0.236663         1
        22        27        55        57     9      180.000000       -0.301532         2
        22        27        55        57     9        0.000000        0.570472         3
        22        27        55        57     9      180.000000       -0.013891         4
        23        22        27        30     9        0.000000        0.165410         1
        23        22        27        30     9      180.000000        0.502520         2
        23        22        27        30     9        0.000000        0.510242         3
        23        22        27        30     9      180.000000       -0.056410         4
        23        22        27        33     9        0.000000        2.493881         1
        23        22        27        33     9      180.000000        0.450334         2
        23        22        27        33     9        0.000000        0.588131         3
        23        22        27        33     9      180.000000       -0.227512         4
        23        22        27        55     9        0.000000        0.165411         1
        23        22        27        55     9      180.000000        0.502521         2
        23        22        27        55     9        0.000000        0.510242         3
        23        22        27        55     9      180.000000       -0.056410         4
        24        19        47        38     9        0.000000       -0.205612         1
        24        19        47        38     9      180.000000       19.123311         2
        24        19        47        38     9        0.000000       -1.453325         3
        24        19        47        38     9      180.000000       -0.401234         4
        24        19        47        48     9        0.000000       -0.009058         1
        24        19        47        48     9      180.000000       14.469316         2
        24        19        47        48     9        0.000000       -0.494860         3
        24        19        47        48     9      180.000000        0.044015         4
        24        28        34        35     9        0.000000        0.079111         1
        24        28        34        35     9      180.000000       12.428293         2
        24        28        34        35     9        0.000000       -0.413714         3
        24        28        34        35     9      180.000000        0.183917         4
        24        28        34        38     9        0.000000       -0.218748         1
        24        28        34        38     9      180.000000       17.337806         2
        24        28        34        38     9        0.000000       -1.203635         3
        24        28        34        38     9      180.000000       -0.413087         4
        25        24        19        47     9        0.000000       -0.009057         1
        25        24        19        47     9      180.000000       14.469316         2
        25        24        19        47     9        0.000000       -0.494860         3
        25        24        19        47     9      180.000000        0.044015         4
        25        24        28        29     9        0.000000        0.255465         1
        25        24        28        29     9      180.000000       15.933598         2
        25        24        28        29     9        0.000000        0.317178         3
        25        24        28        29     9      180.000000        0.158738         4
        25        24        28        34     9        0.000000        0.177244         1
        25        24        28        34     9      180.000000       12.878740         2
        25        24        28        34     9        0.000000       -0.471654         3
        25        24        28        34     9      180.000000        0.154551         4
        26        22        27        30     9        0.000000        0.165410         1
        26        22        27        30     9      180.000000        0.502520         2
        26        22        27        30     9        0.000000        0.510242         3
        26        22        27        30     9      180.000000       -0.056410         4
        26        22        27        33     9        0.000000        2.493881         1
        26        22        27        33     9      180.000000        0.450334         2
        26        22        27        33     9        0.000000        0.588131         3
        26        22        27        33     9      180.000000       -0.227512         4
        26        22        27        55     9        0.000000        0.165411         1
        26        22        27        55     9      180.000000        0.502521         2
        26        22        27        55     9        0.000000        0.510242         3
        26        22        27        55     9      180.000000       -0.056410         4
        27        30        36        40     9        0.000000       -0.129462         1
        27        30        36        40     9      180.000000        0.050850         2
        27        30        36        40     9        0.000000        0.270219         3
        27        30        36        40     9      180.000000       -0.016600         4
        27        30        36        41     9        0.000000       -0.129462         1
        27        30        36        41     9      180.000000        0.050850         2
        27        30        36        41     9        0.000000        0.270219         3
        27        30        36        41     9      180.000000       -0.016600         4
        27        30        36        43     9        0.000000        1.849828         1
        27        30        36        43     9      180.000000       -1.860638         2
        27        30        36        43     9        0.000000        0.401875         3
        27        30        36        43     9      180.000000       -0.017280         4
        27        33        37        42     9        0.000000        0.013863         1
        27        33        37        42     9      180.000000       12.345247         2
        27        33        37        42     9        0.000000       -0.098807         3
        27        33        37        42     9      180.000000        0.068347         4
        27        33        37        46     9        0.000000        0.458275         1
        27        33        37        46     9      180.000000       14.255391         2
        27        33        37        46     9        0.000000        0.192054         3
        27        33        37        46     9      180.000000       -0.322730         4
        27        33        61        58     9        0.000000        0.301577         1
        27        33        61        58     9      180.000000       14.046665         2
        27        33        61        58     9        0.000000        0.061482         3
        27        33        61        58     9      180.000000       -0.181625         4
        27        33        61        62     9        0.000000       -0.005482         1
        27        33        61        62     9      180.000000       12.418776         2
        27        33        61        62     9        0.000000       -0.129024         3
        27        33        61        62     9      180.000000        0.067849         4
        27        55        49        43     9        0.000000        1.849830         1
        27        55        49        43     9      180.000000       -1.860638         2
        27        55        49        43     9        0.000000        0.401875         3
        27        55        49        43     9      180.000000       -0.017280         4
        27        55        49        50     9        0.000000       -0.129463         1
        27        55        49        50     9      180.000000        0.050849         2
        27        55        49        50     9        0.000000        0.270219         3
        27        55        49        50     9      180.000000       -0.016601         4
        27        55        49        51     9        0.000000       -0.129463         1
        27        55        49        51     9      180.000000        0.050849         2
        27        55        49        51     9        0.000000        0.270219         3
        27        55        49        51     9      180.000000       -0.016601         4
        28        24        19        47     9        0.000000       -0.205612         1
        28        24        19        47     9      180.000000       19.123309         2
        28        24        19        47     9        0.000000       -1.453325         3
        28        24        19        47     9      180.000000       -0.401233         4
        28        34        38        39     9        0.000000        0.328224         1
        28        34        38        39     9      180.000000       23.258511         2
        28        34        38        39     9        0.000000        0.635698         3
        28        34        38        39     9      180.000000       -0.760693         4
        28        34        38        47     9        0.000000       -0.218749         1
        28        34        38        47     9      180.000000       17.337810         2
        28        34        38        47     9        0.000000       -1.203635         3
        28        34        38        47     9      180.000000       -0.413087         4
        29        28        34        35     9        0.000000        0.288913         1
        29        28        34        35     9      180.000000       15.093259         2
        29        28        34        35     9        0.000000        0.262813         3
        29        28        34        35     9      180.000000        0.238074         4
        29        28        34        38     9        0.000000        0.328225         1
        29        28        34        38     9      180.000000       23.258509         2
        29        28        34        38     9        0.000000        0.635698         3
        29        28        34        38     9      180.000000       -0.760692         4
        30        27        33        37     9        0.000000       -0.246185         1
        30        27        33        37     9      180.000000        0.363851         2
        30        27        33        37     9        0.000000        0.199715         3
        30        27        33        37     9      180.000000        0.097710         4
        30        27        33        61     9        0.000000       -0.188818         1
        30        27        33        61     9      180.000000        0.189967         2
        30        27        33        61     9        0.000000        0.250246         3
        30        27        33        61     9      180.000000        0.109869         4
        30        27        55        49     9        0.000000        3.723236         1
        30        27        55        49     9      180.000000       -1.541009         2
        30        27        55        49     9        0.000000       -0.017240         3
        30        27        55        49     9      180.000000       -0.066731         4
        30        27        55        56     9        0.000000       -0.079691         1
        30        27        55        56     9      180.000000        0.049930         2
        30        27        55        56     9        0.000000        0.230502         3
        30        27        55        56     9      180.000000        0.020615         4
        30        27        55        57     9        0.000000       -0.079691         1
        30        27        55        57     9      180.000000        0.049930         2
        30        27        55        57     9        0.000000        0.230502         3
        30        27        55        57     9      180.000000        0.020615         4
        30        36        43        44     9        0.000000       -0.033843         1
        30        36        43        44     9      180.000000        0.030999         2
        30        36        43        44     9        0.000000        0.301563         3
        30        36        43        44     9      180.000000       -0.003346         4
        30        36        43        45     9        0.000000       -0.033843         1
        30        36        43        45     9      180.000000        0.030999         2
        30        36        43        45     9        0.000000        0.301563         3
        30        36        43        45     9      180.000000       -0.003346         4
        30        36        43        49     9        0.000000        0.092861         1
        30        36        43        49     9      180.000000       -0.442578         2
        30        36        43        49     9        0.000000        0.283583         3
        30        36        43        49     9      180.000000       -0.020985         4
        31        30        27        33     9        0.000000       -0.015162         1
        31        30        27        33     9      180.000000       -0.024362         2
        31        30        27        33     9        0.000000        0.583010         3
        31        30        27        33     9      180.000000       -0.018683         4
        31        30        27        55     9        0.000000       -0.079691         1
        31        30        27        55     9      180.000000        0.049930         2
        31        30        27        55     9        0.000000        0.230501         3
        31        30        27        55     9      180.000000        0.020615         4
        31        30        36        40     9        0.000000       -0.004377         1
        31        30        36        40     9      180.000000        0.026665         2
        31        30        36        40     9        0.000000        0.377130         3
        31        30        36        40     9      180.000000        0.032123         4
        31        30        36        41     9        0.000000       -0.004377         1
        31        30        36        41     9      180.000000        0.026665         2
        31        30        36        41     9        0.000000        0.377130         3
        31        30        36        41     9      180.000000        0.032123         4
        31        30        36        43     9        0.000000       -0.103203         1
        31        30        36        43     9      180.000000        0.082669         2
        31        30        36        43     9        0.000000        0.373797         3
        31        30        36        43     9      180.000000        0.018453         4
        32        30        27        33     9        0.000000       -0.015162         1
        32        30        27        33     9      180.000000       -0.024362         2
        32        30        27        33     9        0.000000        0.583010         3
        32        30        27        33     9      180.000000       -0.018683         4
        32        30        27        55     9        0.000000       -0.079691         1
        32        30        27        55     9      180.000000        0.049930         2
        32        30        27        55     9        0.000000        0.230501         3
        32        30        27        55     9      180.000000        0.020615         4
        32        30        36        40     9        0.000000       -0.004377         1
        32        30        36        40     9      180.000000        0.026665         2
        32        30        36        40     9        0.000000        0.377130         3
        32        30        36        40     9      180.000000        0.032123         4
        32        30        36        41     9        0.000000       -0.004377         1
        32        30        36        41     9      180.000000        0.026665         2
        32        30        36        41     9        0.000000        0.377130         3
        32        30        36        41     9      180.000000        0.032123         4
        32        30        36        43     9        0.000000       -0.103203         1
        32        30        36        43     9      180.000000        0.082669         2
        32        30        36        43     9        0.000000        0.373797         3
        32        30        36        43     9      180.000000        0.018453         4
        33        27        30        36     9        0.000000       -0.683685         1
        33        27        30        36     9      180.000000        0.036845         2
        33        27        30        36     9        0.000000        0.535914         3
        33        27        30        36     9      180.000000        0.070665         4
        33        27        55        49     9        0.000000       -0.683686         1
        33        27        55        49     9      180.000000        0.036844         2
        33        27        55        49     9        0.000000        0.535914         3
        33        27        55        49     9      180.000000        0.070665         4
        33        27        55        56     9        0.000000       -0.015163         1
        33        27        55        56     9      180.000000       -0.024362         2
        33        27        55        56     9        0.000000        0.583010         3
        33        27        55        56     9      180.000000       -0.018683         4
        33        27        55        57     9        0.000000       -0.015163         1
        33        27        55        57     9      180.000000       -0.024362         2
        33        27        55        57     9        0.000000        0.583010         3
        33        27        55        57     9      180.000000       -0.018683         4
        33        37        46        52     9        0.000000       -0.000079         1
        33        37        46        52     9      180.000000       18.199612         2
        33        37        46        52     9        0.000000       -1.349847         3
        33        37        46        52     9      180.000000       -0.522287         4
        33        37        46        54     9        0.000000        0.401082         1
        33        37        46        54     9      180.000000       16.267177         2
        33        37        46        54     9        0.000000        0.119245         3
        33        37        46        54     9      180.000000       -0.459357         4
        33        61        58        52     9        0.000000        0.118266         1
        33        61        58        52     9      180.000000       18.689912         2
        33        61        58        52     9        0.000000       -1.614420         3
        33        61        58        52     9      180.000000       -0.442150         4
        33        61        58        59     9        0.000000        0.010633         1
        33        61        58        59     9      180.000000       15.089960         2
        33        61        58        59     9        0.000000       -0.603763         3
        33        61        58        59     9      180.000000        0.038890         4
        34        38        47        48     9        0.000000        0.177245         1
        34        38        47        48     9      180.000000       12.878742         2
        34        38        47        48     9        0.000000       -0.471655         3
        34        38        47        48     9      180.000000        0.154551         4
        35        34        38        39     9        0.000000        0.288914         1
        35        34        38        39     9      180.000000       15.093259         2
        35        34        38        39     9        0.000000        0.262814         3
        35        34        38        39     9      180.000000        0.238073         4
        35        34        38        47     9        0.000000        0.079111         1
        35        34        38        47     9      180.000000       12.428294         2
        35        34        38        47     9        0.000000       -0.413714         3
        35        34        38        47     9      180.000000        0.183917         4
        36        30        27        55     9        0.000000        3.723237         1
        36        30        27        55     9      180.000000       -1.541009         2
        36        30        27        55     9        0.000000       -0.017241         3
        36        30        27        55     9      180.000000       -0.066731         4
        36        43        49        50     9        0.000000       -0.039273         1
        36        43        49        50     9      180.000000        0.033389         2
        36        43        49        50     9        0.000000        0.272808         3
        36        43        49        50     9      180.000000       -0.003579         4
        36        43        49        51     9        0.000000       -0.039273         1
        36        43        49        51     9      180.000000        0.033389         2
        36        43        49        51     9        0.000000        0.272808         3
        36        43        49        51     9      180.000000       -0.003579         4
        36        43        49        55     9        0.000000        0.092861         1
        36        43        49        55     9      180.000000       -0.442579         2
        36        43        49        55     9        0.000000        0.283583         3
        36        43        49        55     9      180.000000       -0.020985         4
        37        33        27        55     9        0.000000       -0.246185         1
        37        33        27        55     9      180.000000        0.363852         2
        37        33        27        55     9        0.000000        0.199715         3
        37        33        27        55     9      180.000000        0.097710         4
        37        33        61        58     9        0.000000       -0.106322         1
        37        33        61        58     9      180.000000       18.961970         2
        37        33        61        58     9        0.000000       -1.570343         3
        37        33        61        58     9      180.000000       -0.396164         4
        37        33        61        62     9        0.000000        0.069624         1
        37        33        61        62     9      180.000000       14.575643         2
        37        33        61        62     9        0.000000       -0.677201         3
        37        33        61        62     9      180.000000        0.007522         4
        37        46        52        53     9        0.000000       -0.136111         1
        37        46        52        53     9      180.000000       13.724590         2
        37        46        52        53     9        0.000000       -0.552918         3
        37        46        52        53     9      180.000000        0.092423         4
        37        46        52        58     9        0.000000       -0.143838         1
        37        46        52        58     9      180.000000       17.845017         2
        37        46        52        58     9        0.000000       -1.102181         3
        37        46        52        58     9      180.000000       -0.254718         4
        37        46        54        60     9        0.000000        0.096822         1
        37        46        54        60     9      180.000000        2.726074         2
        37        46        54        60     9        0.000000        0.091699         3
        37        46        54        60     9      180.000000       -0.244677         4
        37        46        54        65     9        0.000000       -0.114357         1
        37        46        54        65     9      180.000000        2.848365         2
        37        46        54        65     9        0.000000       -0.094226         3
        37        46        54        65     9      180.000000       -0.183955         4
        39        38        47        48     9        0.000000        0.255465         1
        39        38        47        48     9      180.000000       15.933602         2
        39        38        47        48     9        0.000000        0.317179         3
        39        38        47        48     9      180.000000        0.158738         4
        40        36        43        44     9        0.000000       -0.011324         1
        40        36        43        44     9      180.000000        0.007822         2
        40        36        43        44     9        0.000000        0.325915         3
        40        36        43        44     9      180.000000        0.007339         4
        40        36        43        45     9        0.000000       -0.011324         1
        40        36        43        45     9      180.000000        0.007822         2
        40        36        43        45     9        0.000000        0.325915         3
        40        36        43        45     9      180.000000        0.007339         4
        40        36        43        49     9        0.000000       -0.039273         1
        40        36        43        49     9      180.000000        0.033389         2
        40        36        43        49     9        0.000000        0.272808         3
        40        36        43        49     9      180.000000       -0.003579         4
        41        36        43        44     9        0.000000       -0.011324         1
        41        36        43        44     9      180.000000        0.007822         2
        41        36        43        44     9        0.000000        0.325915         3
        41        36        43        44     9      180.000000        0.007339         4
        41        36        43        45     9        0.000000       -0.011324         1
        41        36        43        45     9      180.000000        0.007822         2
        41        36        43        45     9        0.000000        0.325915         3
        41        36        43        45     9      180.000000        0.007339         4
        41        36        43        49     9        0.000000       -0.039273         1
        41        36        43        49     9      180.000000        0.033389         2
        41        36        43        49     9        0.000000        0.272808         3
        41        36        43        49     9      180.000000       -0.003579         4
        42        37        33        61     9        0.000000        0.173053         1
        42        37        33        61     9      180.000000       13.835593         2
        42        37        33        61     9        0.000000       -0.633109         3
        42        37        33        61     9      180.000000        0.046454         4
        42        37        46        52     9        0.000000       -0.047481         1
        42        37        46        52     9      180.000000       13.541739         2
        42        37        46        52     9        0.000000       -0.454285         3
        42        37        46        52     9      180.000000        0.080382         4
        42        37        46        54     9        0.000000        0.059358         1
        42        37        46        54     9      180.000000       13.133327         2
        42        37        46        54     9        0.000000       -0.063072         3
        42        37        46        54     9      180.000000        0.131020         4
        43        49        55        56     9        0.000000       -0.103203         1
        43        49        55        56     9      180.000000        0.082668         2
        43        49        55        56     9        0.000000        0.373797         3
        43        49        55        56     9      180.000000        0.018454         4
        43        49        55        57     9        0.000000       -0.103203         1
        43        49        55        57     9      180.000000        0.082668         2
        43        49        55        57     9        0.000000        0.373797         3
        43        49        55        57     9      180.000000        0.018454         4
        44        43        49        50     9        0.000000       -0.011325         1
        44        43        49        50     9      180.000000        0.007821         2
        44        43        49        50     9        0.000000        0.325915         3
        44        43        49        50     9      180.000000        0.007339         4
        44        43        49        51     9        0.000000       -0.011325         1
        44        43        49        51     9      180.000000        0.007821         2
        44        43        49        51     9        0.000000        0.325915         3
        44        43        49        51     9      180.000000        0.007339         4
        44        43        49        55     9        0.000000       -0.033843         1
        44        43        49        55     9      180.000000        0.030998         2
        44        43        49        55     9        0.000000        0.301562         3
        44        43        49        55     9      180.000000       -0.003347         4
        45        43        49        50     9        0.000000       -0.011325         1
        45        43        49        50     9      180.000000        0.007821         2
        45        43        49        50     9        0.000000        0.325915         3
        45        43        49        50     9      180.000000        0.007339         4
        45        43        49        51     9        0.000000       -0.011325         1
        45        43        49        51     9      180.000000        0.007821         2
        45        43        49        51     9        0.000000        0.325915         3
        45        43        49        51     9      180.000000        0.007339         4
        45        43        49        55     9        0.000000       -0.033843         1
        45        43        49        55     9      180.000000        0.030998         2
        45        43        49        55     9        0.000000        0.301562         3
        45        43        49        55     9      180.000000       -0.003347         4
        46        37        33        61     9        0.000000       -0.044509         1
        46        37        33        61     9      180.000000       18.458761         2
        46        37        33        61     9        0.000000       -1.428847         3
        46        37        33        61     9      180.000000       -0.397959         4
        46        52        58        59     9        0.000000       -0.064646         1
        46        52        58        59     9      180.000000       14.776216         2
        46        52        58        59     9        0.000000       -0.588789         3
        46        52        58        59     9      180.000000        0.106141         4
        46        52        58        61     9        0.000000       -0.035375         1
        46        52        58        61     9      180.000000       18.656099         2
        46        52        58        61     9        0.000000       -1.503312         3
        46        52        58        61     9      180.000000       -0.355658         4
        46        54        60        63     9        0.000000        0.407022         1
        46        54        60        63     9      180.000000       19.446662         2
        46        54        60        63     9        0.000000        0.262897         3
        46        54        60        63     9      180.000000       -1.271431         4
        46        54        60        66     9        0.000000        0.075262         1
        46        54        60        66     9      180.000000       13.638327         2
        46        54        60        66     9        0.000000       -0.016029         3
        46        54        60        66     9      180.000000        0.005401         4
        46        54        65        64     9        0.000000        0.624289         1
        46        54        65        64     9      180.000000       14.346574         2
        46        54        65        64     9        0.000000        0.077377         3
        46        54        65        64     9      180.000000       -0.768217         4
        46        54        65        68     9        0.000000       -0.056290         1
        46        54        65        68     9      180.000000       11.499769         2
        46        54        65        68     9        0.000000       -0.106170         3
        46        54        65        68     9      180.000000       -0.045075         4
        50        49        55        56     9        0.000000       -0.004377         1
        50        49        55        56     9      180.000000        0.026664         2
        50        49        55        56     9        0.000000        0.377130         3
        50        49        55        56     9      180.000000        0.032123         4
        50        49        55        57     9        0.000000       -0.004377         1
        50        49        55        57     9      180.000000        0.026664         2
        50        49        55        57     9        0.000000        0.377130         3
        50        49        55        57     9      180.000000        0.032123         4
        51        49        55        56     9        0.000000       -0.004377         1
        51        49        55        56     9      180.000000        0.026664         2
        51        49        55        56     9        0.000000        0.377130         3
        51        49        55        56     9      180.000000        0.032123         4
        51        49        55        57     9        0.000000       -0.004377         1
        51        49        55        57     9      180.000000        0.026664         2
        51        49        55        57     9        0.000000        0.377130         3
        51        49        55        57     9      180.000000        0.032123         4
        52        46        54        60     9        0.000000        0.151010         1
        52        46        54        60     9      180.000000        2.527551         2
        52        46        54        60     9        0.000000        0.185562         3
        52        46        54        60     9      180.000000       -0.250022         4
        52        46        54        65     9        0.000000       -0.095758         1
        52        46        54        65     9      180.000000        2.675448         2
        52        46        54        65     9        0.000000       -0.043168         3
        52        46        54        65     9      180.000000       -0.177303         4
        52        58        61        62     9        0.000000        0.071962         1
        52        58        61        62     9      180.000000       14.791171         2
        52        58        61        62     9        0.000000       -0.629879         3
        52        58        61        62     9      180.000000        0.058487         4
        53        52        46        54     9        0.000000        0.113752         1
        53        52        46        54     9      180.000000       13.257757         2
        53        52        46        54     9        0.000000       -0.113710         3
        53        52        46        54     9      180.000000        0.162095         4
        53        52        58        59     9        0.000000       -0.175223         1
        53        52        58        59     9      180.000000       11.966053         2
        53        52        58        59     9        0.000000       -0.691713         3
        53        52        58        59     9      180.000000        0.301892         4
        53        52        58        61     9        0.000000        0.088714         1
        53        52        58        61     9      180.000000       14.534436         2
        53        52        58        61     9        0.000000       -0.702487         3
        53        52        58        61     9      180.000000        0.135373         4
        54        46        52        58     9        0.000000        0.284786         1
        54        46        52        58     9      180.000000       15.892900         2
        54        46        52        58     9        0.000000       -0.000431         3
        54        46        52        58     9      180.000000       -0.294434         4
        54        60        63        64     9        0.000000       -0.416763         1
        54        60        63        64     9      180.000000       26.595682         2
        54        60        63        64     9        0.000000       -4.737156         3
        54        60        63        64     9      180.000000       -0.122939         4
        54        65        64        63     9        0.000000       -0.136926         1
        54        65        64        63     9      180.000000       26.542196         2
        54        65        64        63     9        0.000000       -5.124766         3
        54        65        64        63     9      180.000000       -0.653823         4
        54        65        64        67     9        0.000000        0.426322         1
        54        65        64        67     9      180.000000       15.785400         2
        54        65        64        67     9        0.000000       -0.100422         3
        54        65        64        67     9      180.000000       -0.403002         4
        55        27        33        61     9        0.000000       -0.188818         1
        55        27        33        61     9      180.000000        0.189967         2
        55        27        33        61     9        0.000000        0.250247         3
        55        27        33        61     9      180.000000        0.109869         4
        59        58        61        62     9        0.000000       -0.161419         1
        59        58        61        62     9      180.000000       11.816167         2
        59        58        61        62     9        0.000000       -0.666228         3
        59        58        61        62     9      180.000000        0.257896         4
        60        54        65        64     9        0.000000       -0.240156         1
        60        54        65        64     9      180.000000       22.278570         2
        60        54        65        64     9        0.000000       -4.786566         3
        60        54        65        64     9      180.000000       -0.379580         4
        60        54        65        68     9        0.000000        0.361568         1
        60        54        65        68     9      180.000000       12.035020         2
        60        54        65        68     9        0.000000       -0.455794         3
        60        54        65        68     9      180.000000       -0.324755         4
        60        63        64        65     9        0.000000       -0.603716         1
        60        63        64        65     9      180.000000       27.433649         2
        60        63        64        65     9        0.000000       -5.302850         3
        60        63        64        65     9      180.000000        0.027319         4
        60        63        64        67     9        0.000000        0.414631         1
        60        63        64        67     9      180.000000       11.325581         2
        60        63        64        67     9        0.000000        0.821549         3
        60        63        64        67     9      180.000000       -0.174565         4
        63        60        54        65     9        0.000000       -0.141974         1
        63        60        54        65     9      180.000000       27.401721         2
        63        60        54        65     9        0.000000       -5.074177         3
        63        60        54        65     9      180.000000       -0.621951         4
        63        64        65        68     9        0.000000        0.284406         1
        63        64        65        68     9      180.000000       16.702620         2
        63        64        65        68     9        0.000000       -0.204018         3
        63        64        65        68     9      180.000000       -0.489497         4
        64        63        60        66     9        0.000000        0.386137         1
        64        63        60        66     9      180.000000       11.978197         2
        64        63        60        66     9        0.000000        0.914539         3
        64        63        60        66     9      180.000000       -0.295633         4
        65        54        60        66     9        0.000000        0.282444         1
        65        54        60        66     9      180.000000       15.797197         2
        65        54        60        66     9        0.000000       -0.246855         3
        65        54        60        66     9      180.000000       -0.359160         4
        67        64        65        68     9        0.000000       -0.113151         1
        67        64        65        68     9      180.000000       12.230077         2
        67        64        65        68     9        0.000000       -0.649550         3
        67        64        65        68     9      180.000000        0.116040         4

[ dihedrals ] ; impropers
;       ai        aj        ak        al funct           phase               k        pn
         5         1         6         7     4      180.000000       27.893333         2
         5         6         7         1     4      180.000000       27.893333         2
         5         7         1         6     4      180.000000       27.893333         2
        28        24        29        34     4      180.000000        2.499926         2
        28        29        34        24     4      180.000000        2.499926         2
        28        34        24        29     4      180.000000        2.499926         2
        38        34        39        47     4      180.000000        2.499922         2
        38        39        47        34     4      180.000000        2.499922         2
        38        47        34        39     4      180.000000        2.499922         2

[ pairs ]
;       ai        aj funct
         1         8     1
         1         9     1
         2         6     1
         2         7     1
         3         6     1
         3         7     1
         4         6     1
         4         7     1
         5        10     1
         5        11     1
         5        13     1
         6         8     1
         6         9     1
         7        12     1
         7        14     1
         7        15     1
         7        16     1
         7        19     1
         7        20     1
         8        10     1
         8        11     1
         8        13     1
         9        17     1
         9        18     1
         9        21     1
         9        22     1
         9        24     1
         9        47     1
        10        12     1
        10        14     1
        10        15     1
        10        16     1
        10        19     1
        10        20     1
        11        14     1
        11        15     1
        11        19     1
        11        23     1
        11        26     1
        11        27     1
        12        13     1
        12        17     1
        12        18     1
        12        21     1
        12        22     1
        13        16     1
        13        20     1
        13        25     1
        13        28     1
        13        38     1
        13        48     1
        14        24     1
        14        47     1
        15        24     1
        15        47     1
        16        21     1
        16        30     1
        16        33     1
        16        55     1
        17        20     1
        17        23     1
        17        26     1
        17        27     1
        18        20     1
        18        23     1
        18        26     1
        18        27     1
        19        29     1
        19        34     1
        19        39     1
        20        22     1
        22        31     1
        22        32     1
        22        36     1
        22        37     1
        22        49     1
        22        56     1
        22        57     1
        22        61     1
        23        30     1
        23        33     1
        23        55     1
        24        35     1
        24        38     1
        24        48     1
        25        29     1
        25        34     1
        25        47     1
        26        30     1
        26        33     1
        26        55     1
        27        40     1
        27        41     1
        27        42     1
        27        43     1
        27        46     1
        27        50     1
        27        51     1
        27        58     1
        27        62     1
        28        39     1
        28        47     1
        29        35     1
        29        38     1
        30        37     1
        30        44     1
        30        45     1
        30        49     1
        30        56     1
        30        57     1
        30        61     1
        31        33     1
        31        40     1
        31        41     1
        31        43     1
        31        55     1
        32        33     1
        32        40     1
        32        41     1
        32        43     1
        32        55     1
        33        36     1
        33        49     1
        33        52     1
        33        54     1
        33        56     1
        33        57     1
        33        59     1
        34        48     1
        35        39     1
        35        47     1
        36        50     1
        36        51     1
        36        55     1
        37        53     1
        37        55     1
        37        58     1
        37        60     1
        37        62     1
        37        65     1
        39        48     1
        40        44     1
        40        45     1
        40        49     1
        41        44     1
        41        45     1
        41        49     1
        42        52     1
        42        54     1
        42        61     1
        43        56     1
        43        57     1
        44        50     1
        44        51     1
        44        55     1
        45        50     1
        45        51     1
        45        55     1
        46        59     1
        46        61     1
        46        63     1
        46        64     1
        46        66     1
        46        68     1
        50        56     1
        50        57     1
        51        56     1
        51        57     1
        52        60     1
        52        62     1
        52        65     1
        53        54     1
        53        59     1
        53        61     1
        54        58     1
        54        67     1
        55        61     1
        59        62     1
        60        67     1
        60        68     1
        63        68     1
        64        66     1
        65        66     1
        67        68     1
