clashed crystal waters from janssen_bace/bace_ciordia_retro
    6
  167SOL     OW  499   2.621   2.184   1.449
  167SOL    HW1  500   2.637   2.130   1.366
  167SOL    HW2  501   2.543   2.147   1.499
  303SOL     OW  907   2.857   2.289   1.371
  303SOL    HW1  908   2.773   2.328   1.334
  303SOL    HW2  909   2.835   2.218   1.438
    6.3149    6.3149    6.3149
