Generated by PDBParser
954
    1SOL     OW    1   2.167   2.535   2.154
    1SOL    HW1    2   2.126   2.488   2.232
    1SOL    HW2    3   2.153   2.634   2.163
    2SOL     OW    4   1.874   0.685   1.729
    2SOL    HW1    5   1.815   0.752   1.684
    2SOL    HW2    6   1.898   0.613   1.664
    3SOL     OW    7   1.674   0.910   1.939
    3SOL    HW1    8   1.577   0.928   1.925
    3SOL    HW2    9   1.725   0.933   1.856
    4SOL     OW   10   1.732   0.199   2.015
    4SOL    HW1   11   1.804   0.251   1.968
    4SOL    HW2   12   1.654   0.259   2.033
    5SOL     OW   13   3.166   3.310   0.324
    5SOL    HW1   14   3.253   3.345   0.290
    5SOL    HW2   15   3.091   3.350   0.272
    6SOL     OW   16   2.909   1.175   2.808
    6SOL    HW1   17   2.963   1.248   2.765
    6SOL    HW2   18   2.893   1.103   2.741
    7SOL     OW   19   1.926   0.340   1.889
    7SOL    HW1   20   1.914   0.349   1.790
    7SOL    HW2   21   2.013   0.382   1.916
    8SOL     OW   22   0.737   2.343   0.854
    8SOL    HW1   23   0.755   2.383   0.944
    8SOL    HW2   24   0.709   2.248   0.864
    9SOL     OW   25   0.589   2.559   1.534
    9SOL    HW1   26   0.594   2.473   1.584
    9SOL    HW2   27   0.621   2.634   1.592
   10SOL     OW   28   1.451   4.108   2.518
   10SOL    HW1   29   1.371   4.104   2.577
   10SOL    HW2   30   1.424   4.137   2.426
   11SOL     OW   31   2.743   2.624   3.120
   11SOL    HW1   32   2.660   2.618   3.064
   11SOL    HW2   33   2.801   2.544   3.101
   12SOL     OW   34   2.057   0.254   1.406
   12SOL    HW1   35   2.142   0.285   1.447
   12SOL    HW2   36   2.057   0.154   1.401
   13SOL     OW   37   1.514   3.424   2.715
   13SOL    HW1   38   1.575   3.414   2.794
   13SOL    HW2   39   1.432   3.369   2.728
   14SOL     OW   40   1.497   1.809   1.306
   14SOL    HW1   41   1.541   1.884   1.356
   14SOL    HW2   42   1.536   1.722   1.336
   15SOL     OW   43   0.999   0.829   1.767
   15SOL    HW1   44   0.952   0.857   1.850
   15SOL    HW2   45   1.091   0.797   1.789
   16SOL     OW   46   0.644   1.976   0.592
   16SOL    HW1   47   0.685   2.033   0.521
   16SOL    HW2   48   0.654   2.022   0.681
   17SOL     OW   49   2.116   0.896   1.220
   17SOL    HW1   50   2.092   0.993   1.223
   17SOL    HW2   51   2.123   0.861   1.314
   18SOL     OW   52   1.891   0.367   1.605
   18SOL    HW1   53   1.919   0.275   1.578
   18SOL    HW2   54   1.809   0.393   1.553
   19SOL     OW   55   2.351   2.812   2.326
   19SOL    HW1   56   2.253   2.800   2.309
   19SOL    HW2   57   2.403   2.773   2.251
   20SOL     OW   58   2.559   2.382   0.691
   20SOL    HW1   59   2.527   2.395   0.598
   20SOL    HW2   60   2.634   2.316   0.692
   21SOL     OW   61   0.176   3.141   2.255
   21SOL    HW1   62   0.140   3.228   2.288
   21SOL    HW2   63   0.270   3.130   2.288
   22SOL     OW   64   1.389   0.962   1.896
   22SOL    HW1   65   1.403   0.992   1.802
   22SOL    HW2   66   1.328   0.882   1.897
   23SOL     OW   67   3.349   1.837   1.570
   23SOL    HW1   68   3.282   1.827   1.496
   23SOL    HW2   69   3.411   1.758   1.569
   24SOL     OW   70   1.539   4.207   1.220
   24SOL    HW1   71   1.520   4.128   1.161
   24SOL    HW2   72   1.585   4.175   1.303
   25SOL     OW   73   0.579   2.357   0.624
   25SOL    HW1   74   0.635   2.352   0.707
   25SOL    HW2   75   0.631   2.399   0.550
   26SOL     OW   76   4.874   2.861   1.974
   26SOL    HW1   77   4.783   2.903   1.970
   26SOL    HW2   78   4.894   2.817   1.887
   27SOL     OW   79   2.786   4.449   0.145
   27SOL    HW1   80   2.732   4.488   0.070
   27SOL    HW2   81   2.798   4.519   0.216
   28SOL     OW   82   1.662   0.417   1.474
   28SOL    HW1   83   1.574   0.369   1.480
   28SOL    HW2   84   1.646   0.516   1.477
   29SOL     OW   85   1.035   2.980  -0.035
   29SOL    HW1   86   1.010   2.970   0.061
   29SOL    HW2   87   0.955   3.005  -0.088
   30SOL     OW   88   1.206   2.899  -0.226
   30SOL    HW1   89   1.165   2.896  -0.317
   30SOL    HW2   90   1.138   2.930  -0.159
   31SOL     OW   91   1.537   3.697   2.728
   31SOL    HW1   92   1.548   3.754   2.647
   31SOL    HW2   93   1.600   3.619   2.724
   32SOL     OW   94   3.377   1.210   1.149
   32SOL    HW1   95   3.389   1.161   1.235
   32SOL    HW2   96   3.288   1.188   1.110
   33SOL     OW   97   2.897   4.285  -0.050
   33SOL    HW1   98   2.838   4.310  -0.127
   33SOL    HW2   99   2.869   4.337   0.031
   34SOL     OW  100   2.606   1.860   1.613
   34SOL    HW1  101   2.534   1.911   1.566
   34SOL    HW2  102   2.567   1.778   1.655
   35SOL     OW  103   1.846   3.944   2.488
   35SOL    HW1  104   1.883   3.883   2.418
   35SOL    HW2  105   1.891   4.033   2.482
   36SOL     OW  106   0.408   1.844   0.488
   36SOL    HW1  107   0.422   1.823   0.585
   36SOL    HW2  108   0.459   1.926   0.463
   37SOL     OW  109   1.489   4.114   1.902
   37SOL    HW1  110   1.415   4.114   1.969
   37SOL    HW2  111   1.485   4.030   1.848
   38SOL     OW  112   2.551   3.125   0.109
   38SOL    HW1  113   2.606   3.074   0.176
   38SOL    HW2  114   2.597   3.211   0.087
   39SOL     OW  115   3.063   1.383   2.686
   39SOL    HW1  116   3.031   1.472   2.655
   39SOL    HW2  117   3.159   1.391   2.715
   40SOL     OW  118   2.405   2.941  -0.049
   40SOL    HW1  119   2.456   3.006   0.007
   40SOL    HW2  120   2.463   2.862  -0.071
   41SOL     OW  121   0.710   3.791   0.705
   41SOL    HW1  122   0.763   3.747   0.632
   41SOL    HW2  123   0.728   3.889   0.706
   42SOL     OW  124   3.205   1.545   2.423
   42SOL    HW1  125   3.129   1.571   2.482
   42SOL    HW2  126   3.177   1.552   2.327
   43SOL     OW  127   2.544  -1.111   2.372
   43SOL    HW1  128   2.552  -1.067   2.284
   43SOL    HW2  129   2.625  -1.092   2.428
   44SOL     OW  130   0.516   1.201  -0.001
   44SOL    HW1  131   0.483   1.116   0.041
   44SOL    HW2  132   0.616   1.199  -0.005
   45SOL     OW  133   1.515   4.397   2.186
   45SOL    HW1  134   1.603   4.366   2.220
   45SOL    HW2  135   1.445   4.328   2.207
   46SOL     OW  136   1.432   2.165   0.633
   46SOL    HW1  137   1.437   2.250   0.685
   46SOL    HW2  138   1.414   2.186   0.537
   47SOL     OW  139   4.016   2.856   1.265
   47SOL    HW1  140   4.031   2.830   1.170
   47SOL    HW2  141   4.084   2.811   1.323
   48SOL     OW  142   2.669   2.629   3.410
   48SOL    HW1  143   2.571   2.631   3.430
   48SOL    HW2  144   2.683   2.627   3.311
   49SOL     OW  145   1.325   2.475   0.011
   49SOL    HW1  146   1.336   2.535  -0.068
   49SOL    HW2  147   1.241   2.499   0.061
   50SOL     OW  148   0.822   1.883  -0.122
   50SOL    HW1  149   0.894   1.905  -0.056
   50SOL    HW2  150   0.797   1.966  -0.172
   51SOL     OW  151   2.603   4.276   1.695
   51SOL    HW1  152   2.646   4.186   1.692
   51SOL    HW2  153   2.657   4.336   1.754
   52SOL     OW  154   1.297  -0.020   2.452
   52SOL    HW1  155   1.302   0.022   2.361
   52SOL    HW2  156   1.243   0.039   2.512
   53SOL     OW  157   1.354   2.646  -0.212
   53SOL    HW1  158   1.356   2.599  -0.300
   53SOL    HW2  159   1.303   2.732  -0.220
   54SOL     OW  160   3.308   0.817   0.545
   54SOL    HW1  161   3.376   0.880   0.510
   54SOL    HW2  162   3.309   0.733   0.491
   55SOL     OW  163   0.945   2.198   2.895
   55SOL    HW1  164   0.886   2.143   2.836
   55SOL    HW2  165   1.037   2.159   2.896
   56SOL     OW  166   1.733   0.883   1.039
   56SOL    HW1  167   1.800   0.837   0.981
   56SOL    HW2  168   1.641   0.866   1.004
   57SOL     OW  169   2.037   4.617   1.477
   57SOL    HW1  170   2.004   4.585   1.388
   57SOL    HW2  171   1.967   4.674   1.520
   58SOL     OW  172   1.024   0.237   1.638
   58SOL    HW1  173   1.122   0.220   1.634
   58SOL    HW2  174   0.992   0.270   1.549
   59SOL     OW  175   0.319   1.388   1.493
   59SOL    HW1  176   0.302   1.323   1.419
   59SOL    HW2  177   0.232   1.429   1.521
   60SOL     OW  178   1.040   4.579   1.924
   60SOL    HW1  179   0.987   4.600   2.006
   60SOL    HW2  180   1.090   4.661   1.895
   61SOL     OW  181   0.791   1.115   2.211
   61SOL    HW1  182   0.698   1.132   2.243
   61SOL    HW2  183   0.813   1.179   2.137
   62SOL     OW  184   3.461   1.482   2.480
   62SOL    HW1  185   3.366   1.505   2.459
   62SOL    HW2  186   3.471   1.469   2.579
   63SOL     OW  187   1.386  -0.288   1.204
   63SOL    HW1  188   1.291  -0.260   1.197
   63SOL    HW2  189   1.409  -0.303   1.300
   64SOL     OW  190   3.276  -0.446   1.514
   64SOL    HW1  191   3.348  -0.501   1.472
   64SOL    HW2  192   3.300  -0.349   1.507
   65SOL     OW  193   0.321   3.794   1.286
   65SOL    HW1  194   0.225   3.808   1.262
   65SOL    HW2  195   0.330   3.713   1.344
   66SOL     OW  196   1.360  -0.168   1.741
   66SOL    HW1  197   1.423  -0.245   1.734
   66SOL    HW2  198   1.272  -0.193   1.698
   67SOL     OW  199   0.598   1.136   2.674
   67SOL    HW1  200   0.600   1.154   2.773
   67SOL    HW2  201   0.569   1.042   2.658
   68SOL     OW  202   1.893   1.927   0.551
   68SOL    HW1  203   1.798   1.952   0.534
   68SOL    HW2  204   1.954   1.976   0.489
   69SOL     OW  205   3.762   2.782   1.343
   69SOL    HW1  206   3.708   2.863   1.319
   69SOL    HW2  207   3.857   2.798   1.319
   70SOL     OW  208   2.367   0.701   3.027
   70SOL    HW1  209   2.356   0.743   3.117
   70SOL    HW2  210   2.350   0.603   3.033
   71SOL     OW  211   2.632   2.126   0.801
   71SOL    HW1  212   2.612   2.034   0.836
   71SOL    HW2  213   2.684   2.118   0.716
   72SOL     OW  214   1.938  -0.598   2.785
   72SOL    HW1  215   1.923  -0.691   2.817
   72SOL    HW2  216   1.852  -0.547   2.788
   73SOL     OW  217   0.140   1.855   0.599
   73SOL    HW1  218   0.086   1.931   0.562
   73SOL    HW2  219   0.198   1.818   0.526
   74SOL     OW  220   3.107   3.558   1.504
   74SOL    HW1  221   3.087   3.516   1.415
   74SOL    HW2  222   3.029   3.543   1.565
   75SOL     OW  223   0.103   2.461   2.706
   75SOL    HW1  224   0.177   2.475   2.640
   75SOL    HW2  225   0.017   2.495   2.668
   76SOL     OW  226   2.551  -0.349   1.556
   76SOL    HW1  227   2.479  -0.280   1.545
   76SOL    HW2  228   2.514  -0.439   1.537
   77SOL     OW  229   4.180   4.277   0.691
   77SOL    HW1  230   4.249   4.209   0.716
   77SOL    HW2  231   4.090   4.233   0.685
   78SOL     OW  232   3.621   0.051   2.064
   78SOL    HW1  233   3.606   0.046   1.965
   78SOL    HW2  234   3.560  -0.013   2.110
   79SOL     OW  235   3.858   0.852   1.548
   79SOL    HW1  236   3.799   0.854   1.629
   79SOL    HW2  237   3.824   0.917   1.480
   80SOL     OW  238   2.111   4.477  -0.167
   80SOL    HW1  239   2.077   4.425  -0.088
   80SOL    HW2  240   2.042   4.543  -0.195
   81SOL     OW  241   0.190   2.109   2.474
   81SOL    HW1  242   0.179   2.200   2.434
   81SOL    HW2  243   0.263   2.060   2.425
   82SOL     OW  244   2.715   4.949   0.576
   82SOL    HW1  245   2.629   4.898   0.587
   82SOL    HW2  246   2.712   5.031   0.633
   83SOL     OW  247   3.013   2.489   2.752
   83SOL    HW1  248   3.073   2.546   2.696
   83SOL    HW2  249   3.065   2.411   2.788
   84SOL     OW  250   3.093   2.243   1.584
   84SOL    HW1  251   3.089   2.144   1.600
   84SOL    HW2  252   3.184   2.277   1.605
   85SOL     OW  253   0.395   0.104  -0.391
   85SOL    HW1  254   0.393   0.169  -0.467
   85SOL    HW2  255   0.372   0.152  -0.306
   86SOL     OW  256   1.498   4.171   0.052
   86SOL    HW1  257   1.558   4.097   0.082
   86SOL    HW2  258   1.525   4.200  -0.040
   87SOL     OW  259   3.266   3.917  -0.692
   87SOL    HW1  260   3.280   4.015  -0.676
   87SOL    HW2  261   3.206   3.905  -0.771
   88SOL     OW  262   1.568  -0.270   2.237
   88SOL    HW1  263   1.636  -0.216   2.286
   88SOL    HW2  264   1.558  -0.233   2.144
   89SOL     OW  265   3.318  -0.425   2.481
   89SOL    HW1  266   3.344  -0.521   2.470
   89SOL    HW2  267   3.317  -0.402   2.579
   90SOL     OW  268   1.845   1.844   0.802
   90SOL    HW1  269   1.863   1.875   0.708
   90SOL    HW2  270   1.916   1.879   0.862
   91SOL     OW  271   2.937   2.725   0.731
   91SOL    HW1  272   2.839   2.723   0.746
   91SOL    HW2  273   2.961   2.802   0.671
   92SOL     OW  274   0.818   2.891   3.011
   92SOL    HW1  275   0.852   2.931   2.926
   92SOL    HW2  276   0.858   2.800   3.024
   93SOL     OW  277   1.389   2.002   3.437
   93SOL    HW1  278   1.386   2.084   3.494
   93SOL    HW2  279   1.418   1.924   3.493
   94SOL     OW  280   2.104   2.075   0.618
   94SOL    HW1  281   2.123   2.073   0.716
   94SOL    HW2  282   2.184   2.041   0.568
   95SOL     OW  283   0.764   0.882   1.428
   95SOL    HW1  284   0.724   0.806   1.378
   95SOL    HW2  285   0.747   0.871   1.526
   96SOL     OW  286   2.317   3.000  -0.323
   96SOL    HW1  287   2.347   2.980  -0.230
   96SOL    HW2  288   2.365   2.940  -0.387
   97SOL     OW  289   2.901   4.064  -0.390
   97SOL    HW1  290   2.988   4.086  -0.347
   97SOL    HW2  291   2.917   4.003  -0.468
   98SOL     OW  292   3.922   0.046   1.786
   98SOL    HW1  293   4.008   0.080   1.751
   98SOL    HW2  294   3.916   0.064   1.885
   99SOL     OW  295   1.092   2.892  -0.478
   99SOL    HW1  296   1.118   2.958  -0.548
   99SOL    HW2  297   1.100   2.799  -0.515
  100SOL     OW  298   3.140   4.056   1.960
  100SOL    HW1  299   3.190   3.978   1.921
  100SOL    HW2  300   3.116   4.036   2.054
  101SOL     OW  301   2.823   0.043   2.716
  101SOL    HW1  302   2.868  -0.046   2.714
  101SOL    HW2  303   2.785   0.065   2.627
  102SOL     OW  304   0.909   0.349   0.779
  102SOL    HW1  305   0.872   0.441   0.764
  102SOL    HW2  306   0.886   0.291   0.701
  103SOL     OW  307   0.850   1.268   3.045
  103SOL    HW1  308   0.761   1.238   3.012
  103SOL    HW2  309   0.871   1.222   3.131
  104SOL     OW  310   0.705   1.460   2.059
  104SOL    HW1  311   0.631   1.412   2.012
  104SOL    HW2  312   0.683   1.469   2.156
  105SOL     OW  313   1.633   1.998   0.503
  105SOL    HW1  314   1.603   1.905   0.480
  105SOL    HW2  315   1.569   2.064   0.464
  106SOL     OW  316   4.161   2.847   1.803
  106SOL    HW1  317   4.147   2.748   1.805
  106SOL    HW2  318   4.130   2.884   1.715
  107SOL     OW  319   2.658   3.812  -0.464
  107SOL    HW1  320   2.668   3.713  -0.457
  107SOL    HW2  321   2.734   3.850  -0.517
  108SOL     OW  322   0.197   4.310   1.898
  108SOL    HW1  323   0.192   4.254   1.815
  108SOL    HW2  324   0.134   4.388   1.889
  109SOL     OW  325  -0.503   2.858   2.145
  109SOL    HW1  326  -0.493   2.763   2.174
  109SOL    HW2  327  -0.585   2.898   2.186
  110SOL     OW  328   1.359   2.520  -0.449
  110SOL    HW1  329   1.277   2.555  -0.494
  110SOL    HW2  330   1.432   2.510  -0.517
  111SOL     OW  331   2.362   4.872   0.852
  111SOL    HW1  332   2.419   4.790   0.846
  111SOL    HW2  333   2.347   4.895   0.948
  112SOL     OW  334   2.157   0.820   0.942
  112SOL    HW1  335   2.143   0.846   1.038
  112SOL    HW2  336   2.157   0.903   0.885
  113SOL     OW  337   3.504   4.489   1.665
  113SOL    HW1  338   3.602   4.500   1.678
  113SOL    HW2  339   3.482   4.498   1.568
  114SOL     OW  340   1.862   2.161   0.023
  114SOL    HW1  341   1.905   2.079  -0.016
  114SOL    HW2  342   1.792   2.133   0.088
  115SOL     OW  343   2.634   4.560  -0.070
  115SOL    HW1  344   2.542   4.579  -0.104
  115SOL    HW2  345   2.685   4.645  -0.061
  116SOL     OW  346   0.416   2.841  -0.132
  116SOL    HW1  347   0.504   2.888  -0.137
  116SOL    HW2  348   0.422   2.752  -0.177
  117SOL     OW  349   2.317  -1.270   1.941
  117SOL    HW1  350   2.393  -1.236   1.884
  117SOL    HW2  351   2.347  -1.277   2.036
  118SOL     OW  352   0.770   1.795   2.959
  118SOL    HW1  353   0.686   1.753   2.994
  118SOL    HW2  354   0.746   1.865   2.891
  119SOL     OW  355   0.171   3.647   1.577
  119SOL    HW1  356   0.266   3.625   1.600
  119SOL    HW2  357   0.122   3.674   1.659
  120SOL     OW  358   1.543   1.720   0.435
  120SOL    HW1  359   1.573   1.678   0.349
  120SOL    HW2  360   1.540   1.650   0.507
  121SOL     OW  361   0.459   1.773   0.824
  121SOL    HW1  362   0.360   1.784   0.841
  121SOL    HW2  363   0.500   1.863   0.810
  122SOL     OW  364   0.507   4.438   0.750
  122SOL    HW1  365   0.539   4.344   0.737
  122SOL    HW2  366   0.432   4.456   0.685
  123SOL     OW  367   1.373   4.203   1.399
  123SOL    HW1  368   1.419   4.283   1.437
  123SOL    HW2  369   1.279   4.227   1.374
  124SOL     OW  370   2.045   0.159   3.404
  124SOL    HW1  371   1.950   0.148   3.374
  124SOL    HW2  372   2.049   0.221   3.482
  125SOL     OW  373   3.934   0.304   2.253
  125SOL    HW1  374   3.836   0.292   2.240
  125SOL    HW2  375   3.984   0.265   2.176
  126SOL     OW  376   3.671   0.272   2.217
  126SOL    HW1  377   3.653   0.191   2.161
  126SOL    HW2  378   3.597   0.338   2.206
  127SOL     OW  379   0.978   0.613   2.430
  127SOL    HW1  380   1.065   0.564   2.433
  127SOL    HW2  381   0.919   0.579   2.504
  128SOL     OW  382   1.156   0.562   0.761
  128SOL    HW1  383   1.109   0.634   0.813
  128SOL    HW2  384   1.240   0.536   0.809
  129SOL     OW  385   0.818   0.195   2.964
  129SOL    HW1  386   0.918   0.190   2.959
  129SOL    HW2  387   0.790   0.291   2.974
  130SOL     OW  388   0.572   3.574  -0.123
  130SOL    HW1  389   0.671   3.562  -0.123
  130SOL    HW2  390   0.548   3.661  -0.164
  131SOL     OW  391   1.955   4.322   2.040
  131SOL    HW1  392   1.896   4.318   2.120
  131SOL    HW2  393   1.914   4.270   1.965
  132SOL     OW  394   1.706   3.075   3.411
  132SOL    HW1  395   1.787   3.017   3.414
  132SOL    HW2  396   1.692   3.108   3.318
  133SOL     OW  397   3.013   2.498   1.499
  133SOL    HW1  398   2.947   2.554   1.550
  133SOL    HW2  399   3.027   2.411   1.547
  134SOL     OW  400   0.162   2.018   1.762
  134SOL    HW1  401   0.180   2.034   1.859
  134SOL    HW2  402   0.248   1.994   1.716
  135SOL     OW  403   0.158   1.773   3.058
  135SOL    HW1  404   0.098   1.809   2.987
  135SOL    HW2  405   0.250   1.759   3.020
  136SOL     OW  406   0.971   0.431   1.832
  136SOL    HW1  407   0.990   0.361   1.763
  136SOL    HW2  408   1.050   0.491   1.842
  137SOL     OW  409   1.889  -0.810   1.998
  137SOL    HW1  410   1.801  -0.846   1.967
  137SOL    HW2  411   1.954  -0.813   1.923
  138SOL     OW  412   2.159   3.988  -0.387
  138SOL    HW1  413   2.156   4.088  -0.388
  138SOL    HW2  414   2.067   3.952  -0.370
  139SOL     OW  415   2.373   4.615  -0.168
  139SOL    HW1  416   2.284   4.568  -0.168
  139SOL    HW2  417   2.364   4.703  -0.121
  140SOL     OW  418   2.226   3.812   2.724
  140SOL    HW1  419   2.131   3.842   2.729
  140SOL    HW2  420   2.245   3.747   2.798
  141SOL     OW  421   2.863  -0.081   3.041
  141SOL    HW1  422   2.852  -0.045   2.948
  141SOL    HW2  423   2.931  -0.154   3.040
  142SOL     OW  424   0.355   1.405   0.206
  142SOL    HW1  425   0.404   1.344   0.144
  142SOL    HW2  426   0.327   1.488   0.157
  143SOL     OW  427   1.505   4.432   1.506
  143SOL    HW1  428   1.528   4.400   1.598
  143SOL    HW2  429   1.541   4.524   1.493
  144SOL     OW  430   0.395   2.256  -0.663
  144SOL    HW1  431   0.353   2.233  -0.575
  144SOL    HW2  432   0.380   2.180  -0.728
  145SOL     OW  433   0.914   1.572   3.059
  145SOL    HW1  434   0.864   1.651   3.024
  145SOL    HW2  435   0.865   1.488   3.037
  146SOL     OW  436   3.334   0.323   0.696
  146SOL    HW1  437   3.342   0.287   0.789
  146SOL    HW2  438   3.334   0.247   0.631
  147SOL     OW  439   3.288   3.593   1.697
  147SOL    HW1  440   3.220   3.580   1.625
  147SOL    HW2  441   3.255   3.552   1.782
  148SOL     OW  442   2.311   2.524   0.199
  148SOL    HW1  443   2.389   2.514   0.136
  148SOL    HW2  444   2.230   2.548   0.147
  149SOL     OW  445   1.896   0.770   0.896
  149SOL    HW1  446   1.993   0.789   0.913
  149SOL    HW2  447   1.884   0.737   0.802
  150SOL     OW  448   0.837   0.927   2.056
  150SOL    HW1  449   0.866   0.977   2.138
  150SOL    HW2  450   0.745   0.890   2.071
  151SOL     OW  451   2.302  -0.884   0.694
  151SOL    HW1  452   2.277  -0.972   0.734
  151SOL    HW2  453   2.341  -0.825   0.764
  152SOL     OW  454   3.702   1.061   1.397
  152SOL    HW1  455   3.602   1.061   1.401
  152SOL    HW2  456   3.731   1.018   1.311
  153SOL     OW  457   0.941   2.573   3.082
  153SOL    HW1  458   1.026   2.581   3.135
  153SOL    HW2  459   0.959   2.525   2.997
  154SOL     OW  460   3.418   2.842   1.198
  154SOL    HW1  461   3.391   2.793   1.281
  154SOL    HW2  462   3.478   2.918   1.223
  155SOL     OW  463   2.747   2.420   2.771
  155SOL    HW1  464   2.844   2.445   2.764
  155SOL    HW2  465   2.692   2.503   2.773
  156SOL     OW  466   2.953   1.714   3.170
  156SOL    HW1  467   2.937   1.812   3.171
  156SOL    HW2  468   2.892   1.669   3.234
  157SOL     OW  469   1.541  -0.390   1.721
  157SOL    HW1  470   1.616  -0.326   1.734
  157SOL    HW2  471   1.556  -0.442   1.636
  158SOL     OW  472   2.384   4.842   1.407
  158SOL    HW1  473   2.445   4.820   1.331
  158SOL    HW2  474   2.389   4.940   1.427
  159SOL     OW  475   0.400   4.024   0.581
  159SOL    HW1  476   0.469   4.079   0.628
  159SOL    HW2  477   0.326   4.002   0.645
  160SOL     OW  478   0.134   2.104   2.725
  160SOL    HW1  479   0.076   2.030   2.761
  160SOL    HW2  480   0.146   2.092   2.627
  161SOL     OW  481   0.520   1.111   1.231
  161SOL    HW1  482   0.597   1.147   1.283
  161SOL    HW2  483   0.550   1.091   1.137
  162SOL     OW  484  -0.353   3.580   2.213
  162SOL    HW1  485  -0.375   3.517   2.138
  162SOL    HW2  486  -0.324   3.668   2.175
  163SOL     OW  487   0.160   3.523   0.456
  163SOL    HW1  488   0.070   3.481   0.460
  163SOL    HW2  489   0.162   3.591   0.384
  164SOL     OW  490  -0.006   2.987   1.734
  164SOL    HW1  491  -0.043   3.025   1.818
  164SOL    HW2  492   0.066   2.922   1.756
  165SOL     OW  493   1.785   1.293   3.383
  165SOL    HW1  494   1.808   1.340   3.298
  165SOL    HW2  495   1.762   1.360   3.453
  166SOL     OW  496   0.364   2.652   2.835
  166SOL    HW1  497   0.368   2.671   2.737
  166SOL    HW2  498   0.299   2.714   2.879
  167SOL     OW  499   2.621   2.184   1.449
  167SOL    HW1  500   2.637   2.130   1.366
  167SOL    HW2  501   2.543   2.147   1.499
  168SOL     OW  502   3.725   1.518   0.588
  168SOL    HW1  503   3.664   1.596   0.603
  168SOL    HW2  504   3.680   1.452   0.528
  169SOL     OW  505   2.689   5.166   0.736
  169SOL    HW1  506   2.652   5.138   0.825
  169SOL    HW2  507   2.627   5.232   0.693
  170SOL     OW  508   2.731   4.355  -0.268
  170SOL    HW1  509   2.768   4.401  -0.348
  170SOL    HW2  510   2.654   4.296  -0.295
  171SOL     OW  511   1.557  -0.449   2.505
  171SOL    HW1  512   1.560  -0.394   2.422
  171SOL    HW2  513   1.473  -0.504   2.506
  172SOL     OW  514   0.120   1.401   0.400
  172SOL    HW1  515   0.197   1.402   0.336
  172SOL    HW2  516   0.062   1.480   0.383
  173SOL     OW  517   0.713   0.845   1.722
  173SOL    HW1  518   0.667   0.873   1.807
  173SOL    HW2  519   0.678   0.755   1.695
  174SOL     OW  520   0.389   0.285  -0.602
  174SOL    HW1  521   0.398   0.305  -0.700
  174SOL    HW2  522   0.302   0.323  -0.569
  175SOL     OW  523   1.326   3.650  -0.321
  175SOL    HW1  524   1.346   3.583  -0.250
  175SOL    HW2  525   1.335   3.606  -0.411
  176SOL     OW  526   0.432   4.250   2.120
  176SOL    HW1  527   0.415   4.155   2.144
  176SOL    HW2  528   0.365   4.280   2.051
  177SOL     OW  529   2.112   4.970   0.783
  177SOL    HW1  530   2.202   4.935   0.808
  177SOL    HW2  531   2.045   4.940   0.851
  178SOL     OW  532   2.174   3.451   2.880
  178SOL    HW1  533   2.218   3.406   2.803
  178SOL    HW2  534   2.240   3.465   2.953
  179SOL     OW  535   0.184   1.804   0.870
  179SOL    HW1  536   0.169   1.822   0.773
  179SOL    HW2  537   0.097   1.782   0.914
  180SOL     OW  538   3.740   1.278   2.710
  180SOL    HW1  539   3.656   1.225   2.698
  180SOL    HW2  540   3.756   1.295   2.807
  181SOL     OW  541   3.357   0.219   0.963
  181SOL    HW1  542   3.278   0.159   0.977
  181SOL    HW2  543   3.438   0.177   1.005
  182SOL     OW  544   4.055   1.204   1.170
  182SOL    HW1  545   4.126   1.169   1.231
  182SOL    HW2  546   4.007   1.127   1.128
  183SOL     OW  547   0.908   2.039   3.132
  183SOL    HW1  548   0.992   2.012   3.179
  183SOL    HW2  549   0.871   1.960   3.082
  184SOL     OW  550   0.501   2.519   3.068
  184SOL    HW1  551   0.476   2.567   3.152
  184SOL    HW2  552   0.600   2.523   3.055
  185SOL     OW  553   0.421   0.352  -0.930
  185SOL    HW1  554   0.475   0.298  -0.995
  185SOL    HW2  555   0.382   0.431  -0.977
  186SOL     OW  556   3.739   1.849   2.682
  186SOL    HW1  557   3.803   1.838   2.606
  186SOL    HW2  558   3.704   1.760   2.709
  187SOL     OW  559   2.073   1.010   3.641
  187SOL    HW1  560   1.991   1.051   3.600
  187SOL    HW2  561   2.055   0.992   3.738
  188SOL     OW  562   1.127  -0.027   3.328
  188SOL    HW1  563   1.210   0.013   3.290
  188SOL    HW2  564   1.080   0.041   3.385
  189SOL     OW  565   2.005   3.205  -0.508
  189SOL    HW1  566   1.919   3.240  -0.546
  189SOL    HW2  567   2.072   3.196  -0.581
  190SOL     OW  568   0.502   1.168   2.311
  190SOL    HW1  569   0.465   1.249   2.265
  190SOL    HW2  570   0.503   1.182   2.409
  191SOL     OW  571   0.869   4.588   0.839
  191SOL    HW1  572   0.843   4.632   0.753
  191SOL    HW2  573   0.919   4.654   0.895
  192SOL     OW  574   1.637   1.904  -0.348
  192SOL    HW1  575   1.671   1.993  -0.317
  192SOL    HW2  576   1.544   1.890  -0.315
  193SOL     OW  577   1.768   0.244   0.479
  193SOL    HW1  578   1.669   0.253   0.480
  193SOL    HW2  579   1.807   0.305   0.410
  194SOL     OW  580   0.669   4.343   1.486
  194SOL    HW1  581   0.727   4.388   1.554
  194SOL    HW2  582   0.724   4.316   1.407
  195SOL     OW  583   0.601   1.414   0.366
  195SOL    HW1  584   0.690   1.407   0.322
  195SOL    HW2  585   0.529   1.409   0.296
  196SOL     OW  586   4.052   0.284   1.163
  196SOL    HW1  587   4.010   0.230   1.236
  196SOL    HW2  588   4.064   0.378   1.195
  197SOL     OW  589   1.113   2.624  -0.584
  197SOL    HW1  590   1.085   2.623  -0.680
  197SOL    HW2  591   1.054   2.562  -0.531
  198SOL     OW  592   2.344   5.131   0.447
  198SOL    HW1  593   2.332   5.042   0.402
  198SOL    HW2  594   2.274   5.142   0.518
  199SOL     OW  595   0.913   4.559   0.456
  199SOL    HW1  596   0.943   4.465   0.476
  199SOL    HW2  597   0.987   4.609   0.410
  200SOL     OW  598   1.706   2.593  -0.378
  200SOL    HW1  599   1.684   2.589  -0.281
  200SOL    HW2  600   1.771   2.667  -0.395
  201SOL     OW  601   1.573   4.339   1.772
  201SOL    HW1  602   1.543   4.256   1.820
  201SOL    HW2  603   1.546   4.420   1.825
  202SOL     OW  604   0.527   1.672   3.060
  202SOL    HW1  605   0.550   1.591   3.113
  202SOL    HW2  606   0.468   1.647   2.984
  203SOL     OW  607   0.965   0.898   3.093
  203SOL    HW1  608   1.062   0.918   3.084
  203SOL    HW2  609   0.944   0.812   3.047
  204SOL     OW  610   3.503   0.674   0.296
  204SOL    HW1  611   3.421   0.619   0.284
  204SOL    HW2  612   3.574   0.643   0.231
  205SOL     OW  613   2.471   2.419   0.433
  205SOL    HW1  614   2.418   2.453   0.356
  205SOL    HW2  615   2.544   2.359   0.399
  206SOL     OW  616   2.047   4.390   2.374
  206SOL    HW1  617   1.990   4.452   2.321
  206SOL    HW2  618   2.111   4.443   2.430
  207SOL     OW  619   0.641   0.649   1.276
  207SOL    HW1  620   0.646   0.569   1.216
  207SOL    HW2  621   0.570   0.711   1.243
  208SOL     OW  622   0.595   0.443  -0.711
  208SOL    HW1  623   0.584   0.449  -0.810
  208SOL    HW2  624   0.684   0.401  -0.689
  209SOL     OW  625   2.693   3.029   2.168
  209SOL    HW1  626   2.598   3.043   2.139
  209SOL    HW2  627   2.694   2.986   2.259
  210SOL     OW  628   2.109   1.544   0.434
  210SOL    HW1  629   2.187   1.549   0.496
  210SOL    HW2  630   2.026   1.525   0.485
  211SOL     OW  631   1.060   0.888   2.379
  211SOL    HW1  632   1.032   0.794   2.397
  211SOL    HW2  633   1.019   0.949   2.447
  212SOL     OW  634   2.603   0.603   3.348
  212SOL    HW1  635   2.527   0.665   3.330
  212SOL    HW2  636   2.654   0.587   3.263
  213SOL     OW  637   2.804   2.719   0.333
  213SOL    HW1  638   2.779   2.646   0.269
  213SOL    HW2  639   2.894   2.701   0.371
  214SOL     OW  640  -0.217   3.057   1.549
  214SOL    HW1  641  -0.144   3.033   1.613
  214SOL    HW2  642  -0.275   2.977   1.533
  215SOL     OW  643   0.017   2.002   1.333
  215SOL    HW1  644   0.102   1.950   1.343
  215SOL    HW2  645   0.026   2.064   1.254
  216SOL     OW  646   0.819   0.613   0.714
  216SOL    HW1  647   0.886   0.659   0.774
  216SOL    HW2  648   0.726   0.638   0.744
  217SOL     OW  649   1.760   1.209   0.859
  217SOL    HW1  650   1.766   1.289   0.919
  217SOL    HW2  651   1.689   1.224   0.790
  218SOL     OW  652   1.952   4.869   0.424
  218SOL    HW1  653   1.921   4.778   0.453
  218SOL    HW2  654   2.046   4.862   0.390
  219SOL     OW  655   3.183   2.651   2.592
  219SOL    HW1  656   3.268   2.667   2.641
  219SOL    HW2  657   3.138   2.738   2.573
  220SOL     OW  658   1.895   4.646  -0.212
  220SOL    HW1  659   1.828   4.634  -0.139
  220SOL    HW2  660   1.853   4.623  -0.299
  221SOL     OW  661   2.233  -1.129   0.807
  221SOL    HW1  662   2.146  -1.092   0.839
  221SOL    HW2  663   2.240  -1.225   0.832
  222SOL     OW  664   1.862   4.608   0.507
  222SOL    HW1  665   1.921   4.538   0.467
  222SOL    HW2  666   1.829   4.577   0.596
  223SOL     OW  667   2.517   1.883   0.766
  223SOL    HW1  668   2.445   1.890   0.696
  223SOL    HW2  669   2.476   1.853   0.852
  224SOL     OW  670   1.841  -0.027   0.420
  224SOL    HW1  671   1.816   0.068   0.441
  224SOL    HW2  672   1.798  -0.088   0.486
  225SOL     OW  673   1.128   4.038   0.048
  225SOL    HW1  674   1.054   4.037   0.115
  225SOL    HW2  675   1.208   4.082   0.088
  226SOL     OW  676   1.160   1.959   3.272
  226SOL    HW1  677   1.240   1.974   3.330
  226SOL    HW2  678   1.103   1.887   3.312
  227SOL     OW  679   0.346   3.881   1.007
  227SOL    HW1  680   0.337   3.852   1.102
  227SOL    HW2  681   0.387   3.808   0.953
  228SOL     OW  682   1.992   1.914  -0.095
  228SOL    HW1  683   2.082   1.938  -0.132
  228SOL    HW2  684   1.934   1.878  -0.168
  229SOL     OW  685   1.703  -1.092   2.121
  229SOL    HW1  686   1.634  -1.089   2.193
  229SOL    HW2  687   1.712  -1.186   2.087
  230SOL     OW  688   4.167   0.216   0.706
  230SOL    HW1  689   4.203   0.239   0.797
  230SOL    HW2  690   4.202   0.282   0.639
  231SOL     OW  691   2.827   2.431   0.616
  231SOL    HW1  692   2.886   2.359   0.653
  231SOL    HW2  693   2.856   2.520   0.652
  232SOL     OW  694   0.426   4.036   1.432
  232SOL    HW1  695   0.503   4.074   1.382
  232SOL    HW2  696   0.455   4.009   1.524
  233SOL     OW  697   1.663   0.755   3.577
  233SOL    HW1  698   1.755   0.768   3.540
  233SOL    HW2  699   1.660   0.789   3.671
  234SOL     OW  700   0.668   0.090   2.731
  234SOL    HW1  701   0.718   0.125   2.809
  234SOL    HW2  702   0.641   0.166   2.671
  235SOL     OW  703   1.595   0.465   3.576
  235SOL    HW1  704   1.617   0.562   3.576
  235SOL    HW2  705   1.657   0.416   3.637
  236SOL     OW  706   0.918   0.302   2.081
  236SOL    HW1  707   0.937   0.347   1.994
  236SOL    HW2  708   0.988   0.233   2.098
  237SOL     OW  709   1.889   1.570   0.802
  237SOL    HW1  710   1.850   1.524   0.882
  237SOL    HW2  711   1.974   1.617   0.828
  238SOL     OW  712   0.863   1.392   0.237
  238SOL    HW1  713   0.873   1.300   0.199
  238SOL    HW2  714   0.935   1.408   0.305
  239SOL     OW  715  -0.218   0.100   0.755
  239SOL    HW1  716  -0.251   0.189   0.724
  239SOL    HW2  717  -0.263   0.076   0.840
  240SOL     OW  718   1.510   0.919   0.651
  240SOL    HW1  719   1.502   0.885   0.745
  240SOL    HW2  720   1.536   1.016   0.653
  241SOL     OW  721   1.954   1.104   0.601
  241SOL    HW1  722   1.897   1.135   0.677
  241SOL    HW2  723   2.026   1.171   0.584
  242SOL     OW  724   4.270   0.280   0.964
  242SOL    HW1  725   4.196   0.281   1.031
  242SOL    HW2  726   4.313   0.370   0.960
  243SOL     OW  727  -0.034   1.888   2.830
  243SOL    HW1  728  -0.120   1.920   2.871
  243SOL    HW2  729  -0.054   1.816   2.763
  244SOL     OW  730   0.825   2.938  -0.402
  244SOL    HW1  731   0.819   2.978  -0.310
  244SOL    HW2  732   0.808   2.839  -0.396
  245SOL     OW  733   2.126   0.496  -0.360
  245SOL    HW1  734   2.201   0.451  -0.312
  245SOL    HW2  735   2.076   0.555  -0.296
  246SOL     OW  736   3.732  -0.135   0.676
  246SOL    HW1  737   3.746  -0.045   0.718
  246SOL    HW2  738   3.789  -0.203   0.722
  247SOL     OW  739   2.320   1.210   3.612
  247SOL    HW1  740   2.309   1.309   3.624
  247SOL    HW2  741   2.359   1.192   3.521
  248SOL     OW  742   3.473   0.886   0.116
  248SOL    HW1  743   3.502   0.790   0.110
  248SOL    HW2  744   3.531   0.942   0.057
  249SOL     OW  745   2.999   1.424   0.666
  249SOL    HW1  746   3.004   1.364   0.586
  249SOL    HW2  747   3.081   1.412   0.722
  250SOL     OW  748   0.017   2.244   1.046
  250SOL    HW1  749  -0.017   2.270   0.956
  250SOL    HW2  750   0.017   2.324   1.107
  251SOL     OW  751   0.864   4.492   1.712
  251SOL    HW1  752   0.872   4.530   1.620
  251SOL    HW2  753   0.896   4.559   1.779
  252SOL     OW  754   3.355  -0.529   0.861
  252SOL    HW1  755   3.376  -0.466   0.786
  252SOL    HW2  756   3.323  -0.615   0.823
  253SOL     OW  757   0.462   3.713   0.788
  253SOL    HW1  758   0.468   3.630   0.844
  253SOL    HW2  759   0.494   3.693   0.695
  254SOL     OW  760   0.760   4.000   2.786
  254SOL    HW1  761   0.688   4.043   2.731
  254SOL    HW2  762   0.820   4.071   2.823
  255SOL     OW  763   2.779  -1.090   1.386
  255SOL    HW1  764   2.687  -1.072   1.351
  255SOL    HW2  765   2.780  -1.175   1.437
  256SOL     OW  766   0.853   0.570   2.183
  256SOL    HW1  767   0.920   0.606   2.119
  256SOL    HW2  768   0.849   0.470   2.174
  257SOL     OW  769   2.527  -1.175   1.784
  257SOL    HW1  770   2.610  -1.138   1.827
  257SOL    HW2  771   2.552  -1.222   1.700
  258SOL     OW  772   1.584   2.479  -0.604
  258SOL    HW1  773   1.593   2.381  -0.624
  258SOL    HW2  774   1.665   2.510  -0.554
  259SOL     OW  775   2.151   4.280  -0.392
  259SOL    HW1  776   2.138   4.345  -0.317
  259SOL    HW2  777   2.078   4.291  -0.459
  260SOL     OW  778   3.500   0.995   0.445
  260SOL    HW1  779   3.484   1.059   0.520
  260SOL    HW2  780   3.568   1.033   0.382
  261SOL     OW  781   3.416   0.227   0.350
  261SOL    HW1  782   3.459   0.287   0.282
  261SOL    HW2  783   3.406   0.135   0.312
  262SOL     OW  784   2.589   2.744  -0.090
  262SOL    HW1  785   2.662   2.812  -0.077
  262SOL    HW2  786   2.598   2.672  -0.022
  263SOL     OW  787  -0.361   3.692   0.831
  263SOL    HW1  788  -0.418   3.646   0.898
  263SOL    HW2  789  -0.328   3.778   0.869
  264SOL     OW  790   3.417  -0.344   0.642
  264SOL    HW1  791   3.370  -0.256   0.634
  264SOL    HW2  792   3.516  -0.328   0.651
  265SOL     OW  793   0.916   1.062   0.576
  265SOL    HW1  794   0.845   1.072   0.645
  265SOL    HW2  795   1.004   1.042   0.621
  266SOL     OW  796   3.205   1.655   3.100
  266SOL    HW1  797   3.184   1.565   3.138
  266SOL    HW2  798   3.125   1.715   3.108
  267SOL     OW  799   1.204   2.296  -0.378
  267SOL    HW1  800   1.259   2.376  -0.403
  267SOL    HW2  801   1.252   2.244  -0.306
  268SOL     OW  802   1.999   1.402   0.200
  268SOL    HW1  803   2.036   1.450   0.279
  268SOL    HW2  804   1.899   1.402   0.206
  269SOL     OW  805   0.605   1.186   2.955
  269SOL    HW1  806   0.536   1.256   2.974
  269SOL    HW2  807   0.579   1.101   3.001
  270SOL     OW  808   1.773   4.307   2.288
  270SOL    HW1  809   1.851   4.249   2.312
  270SOL    HW2  810   1.737   4.351   2.370
  271SOL     OW  811   0.263   1.173   1.245
  271SOL    HW1  812   0.200   1.101   1.276
  271SOL    HW2  813   0.350   1.131   1.217
  272SOL     OW  814   2.709   2.980   0.300
  272SOL    HW1  815   2.743   2.887   0.312
  272SOL    HW2  816   2.750   3.040   0.369
  273SOL     OW  817   0.097   1.990  -0.181
  273SOL    HW1  818   0.144   1.985  -0.093
  273SOL    HW2  819   0.092   1.898  -0.221
  274SOL     OW  820   0.431   3.016   2.293
  274SOL    HW1  821   0.488   2.944   2.252
  274SOL    HW2  822   0.447   3.019   2.392
  275SOL     OW  823   1.312   3.746   2.871
  275SOL    HW1  824   1.313   3.823   2.935
  275SOL    HW2  825   1.406   3.720   2.849
  276SOL     OW  826   0.161   2.349   2.370
  276SOL    HW1  827   0.218   2.407   2.428
  276SOL    HW2  828   0.135   2.399   2.287
  277SOL     OW  829   0.214   2.066   2.043
  277SOL    HW1  830   0.313   2.050   2.043
  277SOL    HW2  831   0.170   2.002   2.105
  278SOL     OW  832   0.060   2.347   0.112
  278SOL    HW1  833   0.074   2.322   0.016
  278SOL    HW2  834   0.089   2.442   0.126
  279SOL     OW  835   0.694   2.047  -0.301
  279SOL    HW1  836   0.768   2.106  -0.335
  279SOL    HW2  837   0.667   1.984  -0.374
  280SOL     OW  838   3.990   4.625   0.966
  280SOL    HW1  839   3.969   4.611   1.063
  280SOL    HW2  840   4.040   4.711   0.955
  281SOL     OW  841  -0.137   0.000   0.000
  281SOL    HW1  842  -0.052   0.035   0.040
  281SOL    HW2  843  -0.182  -0.061   0.065
  282SOL     OW  844   1.187   3.816   2.654
  282SOL    HW1  845   1.217   3.766   2.573
  282SOL    HW2  846   1.238   3.785   2.734
  283SOL     OW  847   0.071   2.943   1.079
  283SOL    HW1  848  -0.008   2.997   1.048
  283SOL    HW2  849   0.137   3.004   1.123
  284SOL     OW  850   0.923   3.809   2.611
  284SOL    HW1  851   1.022   3.812   2.627
  284SOL    HW2  852   0.878   3.874   2.672
  285SOL     OW  853   0.432   0.027   0.044
  285SOL    HW1  854   0.337   0.050   0.067
  285SOL    HW2  855   0.439  -0.070   0.023
  286SOL     OW  856   1.977   3.797  -0.350
  286SOL    HW1  857   1.911   3.795  -0.274
  286SOL    HW2  858   2.014   3.705  -0.364
  287SOL     OW  859   2.273   5.061   0.087
  287SOL    HW1  860   2.225   4.981   0.054
  287SOL    HW2  861   2.279   5.130   0.014
  288SOL     OW  862   0.680   1.496  -0.258
  288SOL    HW1  863   0.587   1.484  -0.224
  288SOL    HW2  864   0.715   1.585  -0.228
  289SOL     OW  865   2.672   3.252   1.984
  289SOL    HW1  866   2.679   3.175   2.048
  289SOL    HW2  867   2.673   3.217   1.890
  290SOL     OW  868   3.712   1.791   1.861
  290SOL    HW1  869   3.674   1.727   1.928
  290SOL    HW2  870   3.683   1.765   1.769
  291SOL     OW  871   2.284   4.682   1.049
  291SOL    HW1  872   2.367   4.714   1.096
  291SOL    HW2  873   2.287   4.582   1.041
  292SOL     OW  874   3.278   1.712   2.679
  292SOL    HW1  875   3.184   1.685   2.655
  292SOL    HW2  876   3.275   1.788   2.744
  293SOL     OW  877   1.194   2.983   3.326
  293SOL    HW1  878   1.272   2.926   3.301
  293SOL    HW2  879   1.120   2.968   3.261
  294SOL     OW  880   0.540   2.944   2.532
  294SOL    HW1  881   0.565   2.982   2.621
  294SOL    HW2  882   0.480   2.865   2.545
  295SOL     OW  883   1.567   3.853   2.503
  295SOL    HW1  884   1.525   3.944   2.508
  295SOL    HW2  885   1.666   3.862   2.497
  296SOL     OW  886   1.781   3.743   2.884
  296SOL    HW1  887   1.844   3.799   2.831
  296SOL    HW2  888   1.831   3.667   2.925
  297SOL     OW  889   1.954   3.896   2.739
  297SOL    HW1  890   1.969   3.983   2.786
  297SOL    HW2  891   1.915   3.913   2.648
  298SOL     OW  892   0.566   0.702  -0.598
  298SOL    HW1  893   0.590   0.757  -0.677
  298SOL    HW2  894   0.546   0.608  -0.628
  299SOL     OW  895  -0.307   4.156   1.387
  299SOL    HW1  896  -0.290   4.155   1.289
  299SOL    HW2  897  -0.221   4.172   1.436
  300SOL     OW  898   3.554   4.131   1.737
  300SOL    HW1  899   3.604   4.217   1.740
  300SOL    HW2  900   3.600   4.067   1.675
  301SOL     OW  901   2.986   1.419   3.444
  301SOL    HW1  902   2.910   1.476   3.412
  301SOL    HW2  903   3.041   1.389   3.365
  302SOL     OW  904   2.043   3.186   3.487
  302SOL    HW1  905   2.006   3.173   3.395
  302SOL    HW2  906   2.122   3.126   3.500
  303SOL     OW  907   2.857   2.289   1.371
  303SOL    HW1  908   2.773   2.328   1.334
  303SOL    HW2  909   2.835   2.218   1.438
  304SOL     OW  910   3.520   3.720   1.621
  304SOL    HW1  911   3.435   3.674   1.649
  304SOL    HW2  912   3.504   3.769   1.536
  305SOL     OW  913   2.210   3.244   1.734
  305SOL    HW1  914   2.236   3.191   1.653
  305SOL    HW2  915   2.113   3.268   1.729
  306SOL     OW  916   2.722   5.233   0.120
  306SOL    HW1  917   2.660   5.156   0.135
  306SOL    HW2  918   2.684   5.315   0.164
  307SOL     OW  919   3.215   4.970   0.688
  307SOL    HW1  920   3.130   4.972   0.635
  307SOL    HW2  921   3.271   4.893   0.659
  308SOL     OW  922   2.686   3.539  -0.445
  308SOL    HW1  923   2.615   3.502  -0.386
  308SOL    HW2  924   2.776   3.517  -0.407
  309SOL     OW  925   1.584   1.192   0.651
  309SOL    HW1  926   1.634   1.176   0.566
  309SOL    HW2  927   1.533   1.278   0.643
  310SOL     OW  928   0.257   2.182  -0.375
  310SOL    HW1  929   0.206   2.121  -0.314
  310SOL    HW2  930   0.348   2.198  -0.338
  311SOL     OW  931   0.094   0.557   0.390
  311SOL    HW1  932   0.056   0.529   0.302
  311SOL    HW2  933   0.057   0.646   0.416
  312SOL     OW  934  -0.085   2.322   0.779
  312SOL    HW1  935  -0.151   2.396   0.794
  312SOL    HW2  936  -0.115   2.266   0.702
  313SOL     OW  937  -0.071   2.700   1.823
  313SOL    HW1  938   0.012   2.747   1.855
  313SOL    HW2  939  -0.128   2.676   1.902
  314SOL     OW  940   0.185   4.161   1.677
  314SOL    HW1  941   0.096   4.115   1.677
  314SOL    HW2  942   0.229   4.148   1.588
  315SOL     OW  943   3.126   2.727   0.969
  315SOL    HW1  944   3.064   2.726   0.891
  315SOL    HW2  945   3.209   2.777   0.945
  316SOL     OW  946   3.012   1.872   3.432
  316SOL    HW1  947   2.977   1.908   3.345
  316SOL    HW2  948   2.938   1.871   3.500
  317SOL     OW  949   0.452   3.366  -0.269
  317SOL    HW1  950   0.521   3.294  -0.263
  317SOL    HW2  951   0.484   3.447  -0.219
  318SOL     OW  952   3.386   3.562  -0.556
  318SOL    HW1  953   3.472   3.544  -0.508
  318SOL    HW2  954   3.386   3.656  -0.590
    6.3149    6.3149    6.3149
