; ITP file created by ByteFF-joint-25, 2026-02-17 09:10:51.895016

[ atomtypes ]
;name           bonded.type        at.num        mass        charge   ptype           sigma         epsilon
 c0bf                                   6      0.0000       0.00000       A     3.31518e-01     4.13297e-01    ;  uncertainty sigma = 0.000003, epsilon = 0.000503
 c1bf                                   6      0.0000       0.00000       A     3.31522e-01     4.13372e-01    ;  uncertainty sigma = 0.000005, epsilon = 0.000703
 c2bf                                   6      0.0000       0.00000       A     3.31548e-01     4.13070e-01    ;  uncertainty sigma = 0.000008, epsilon = 0.000554
 c3bf                                   6      0.0000       0.00000       A     3.31521e-01     4.13401e-01    ;  uncertainty sigma = 0.000006, epsilon = 0.000727
 c4bf                                   6      0.0000       0.00000       A     3.31519e-01     4.13215e-01    ;  uncertainty sigma = 0.000005, epsilon = 0.000603
 c5bf                                   6      0.0000       0.00000       A     3.31519e-01     4.13349e-01    ;  uncertainty sigma = 0.000004, epsilon = 0.000536
 c6bf                                   6      0.0000       0.00000       A     3.39766e-01     4.50950e-01    ;  uncertainty sigma = 0.000009, epsilon = 0.001232
 c7bf                                   6      0.0000       0.00000       A     3.31531e-01     4.13203e-01    ;  uncertainty sigma = 0.000028, epsilon = 0.001483
 n8bf                                   7      0.0000       0.00000       A     3.26977e-01     4.89929e-01    ;  uncertainty sigma = 0.000038, epsilon = 0.001227
 c9bf                                   6      0.0000       0.00000       A     3.31566e-01     4.12139e-01    ;  uncertainty sigma = 0.000019, epsilon = 0.000481
 o10bf                                  8      0.0000       0.00000       A     3.04854e-01     6.12416e-01    ;  uncertainty sigma = 0.000011, epsilon = 0.001606
 n11bf                                  7      0.0000       0.00000       A     3.38402e-01     3.92745e-01    ;  uncertainty sigma = 0.000021, epsilon = 0.001055
 c12bf                                  6      0.0000       0.00000       A     3.31495e-01     4.13843e-01    ;  uncertainty sigma = 0.000024, epsilon = 0.001862
 c13bf                                  6      0.0000       0.00000       A     3.31496e-01     4.13013e-01    ;  uncertainty sigma = 0.000032, epsilon = 0.002367
 c14bf                                  6      0.0000       0.00000       A     3.31518e-01     4.13443e-01    ;  uncertainty sigma = 0.000027, epsilon = 0.001034
 c15bf                                  6      0.0000       0.00000       A     3.31542e-01     4.13066e-01    ;  uncertainty sigma = 0.000013, epsilon = 0.002464
 n16bf                                  7      0.0000       0.00000       A     3.36843e-01     4.68873e-01    ;  uncertainty sigma = 0.000068, epsilon = 0.003219
 c17bf                                  6      0.0000       0.00000       A     3.47912e-01     6.68669e-01    ;  uncertainty sigma = 0.000017, epsilon = 0.001390
 o18bf                                  8      0.0000       0.00000       A     3.15569e-01     3.03059e-01    ;  uncertainty sigma = 0.000053, epsilon = 0.002176
 c19bf                                  6      0.0000       0.00000       A     3.39764e-01     4.50318e-01    ;  uncertainty sigma = 0.000014, epsilon = 0.000877
 c20bf                                  6      0.0000       0.00000       A     3.39775e-01     4.50959e-01    ;  uncertainty sigma = 0.000006, epsilon = 0.000493
 n21bf                                  7      0.0000       0.00000       A     3.27325e-01     4.59401e-01    ;  uncertainty sigma = 0.000040, epsilon = 0.001413
 h22bf                                  1      0.0000       0.00000       A     2.62558e-01     6.70322e-02    ;  uncertainty sigma = 0.000010, epsilon = 0.000442
 c23bf                                  6      0.0000       0.00000       A     3.39772e-01     4.50875e-01    ;  uncertainty sigma = 0.000003, epsilon = 0.000521
 h24bf                                  1      0.0000       0.00000       A     2.62548e-01     6.68678e-02    ;  uncertainty sigma = 0.000027, epsilon = 0.000692
 h25bf                                  1      0.0000       0.00000       A     2.60092e-01     8.72167e-02    ;  uncertainty sigma = 0.000019, epsilon = 0.000622
 h26bf                                  1      0.0000       0.00000       A     2.60092e-01     8.72167e-02    ;  uncertainty sigma = 0.000019, epsilon = 0.000622
 h27bf                                  1      0.0000       0.00000       A     1.10687e-01     4.15498e-02    ;  uncertainty sigma = 0.000117, epsilon = 0.001414
 h28bf                                  1      0.0000       0.00000       A     1.10684e-01     4.11855e-02    ;  uncertainty sigma = 0.000050, epsilon = 0.000660
 h29bf                                  1      0.0000       0.00000       A     1.10684e-01     4.11855e-02    ;  uncertainty sigma = 0.000050, epsilon = 0.000660
 h30bf                                  1      0.0000       0.00000       A     2.42228e-01     8.67631e-02    ;  uncertainty sigma = 0.000026, epsilon = 0.000627
 h31bf                                  1      0.0000       0.00000       A     2.42228e-01     8.67631e-02    ;  uncertainty sigma = 0.000026, epsilon = 0.000627
 h32bf                                  1      0.0000       0.00000       A     2.60025e-01     8.66249e-02    ;  uncertainty sigma = 0.000011, epsilon = 0.000873
 h33bf                                  1      0.0000       0.00000       A     2.60025e-01     8.66249e-02    ;  uncertainty sigma = 0.000011, epsilon = 0.000873
 h34bf                                  1      0.0000       0.00000       A     2.60025e-01     8.66249e-02    ;  uncertainty sigma = 0.000011, epsilon = 0.000873
 h35bf                                  1      0.0000       0.00000       A     2.62558e-01     6.70322e-02    ;  uncertainty sigma = 0.000010, epsilon = 0.000442
 h36bf                                  1      0.0000       0.00000       A     2.62563e-01     6.70888e-02    ;  uncertainty sigma = 0.000008, epsilon = 0.000441
 h37bf                                  1      0.0000       0.00000       A     2.60030e-01     8.67018e-02    ;  uncertainty sigma = 0.000007, epsilon = 0.000472
 h38bf                                  1      0.0000       0.00000       A     2.60030e-01     8.67018e-02    ;  uncertainty sigma = 0.000007, epsilon = 0.000472
 h39bf                                  1      0.0000       0.00000       A     2.60030e-01     8.67018e-02    ;  uncertainty sigma = 0.000007, epsilon = 0.000472
 h40bf                                  1      0.0000       0.00000       A     2.62562e-01     6.71043e-02    ;  uncertainty sigma = 0.000010, epsilon = 0.000445

[ moleculetype ]
;name             nrexcl
 MOL                   3

[ atoms ]
;       nr            type      resi   res      atom      cgnr      charge          mass ; qtot
         1            c0bf         1   UNL        c0         1    -0.13238       12.0110 ; qtot   -0.132
         2            c1bf         1   UNL        c1         2    -0.11888       12.0110 ; qtot   -0.251
         3            c2bf         1   UNL        c2         3    -0.09338       12.0110 ; qtot   -0.345
         4            c3bf         1   UNL        c3         4    -0.06162       12.0110 ; qtot   -0.406
         5            c4bf         1   UNL        c4         5    -0.13079       12.0110 ; qtot   -0.537
         6            c5bf         1   UNL        c5         6    -0.12429       12.0110 ; qtot   -0.661
         7            c6bf         1   UNL        c6         7    -0.10954       12.0110 ; qtot   -0.771
         8            c7bf         1   UNL        c7         8     0.68545       12.0110 ; qtot   -0.085
         9            n8bf         1   UNL        n8         9    -0.56609       14.0070 ; qtot   -0.652
        10            c9bf         1   UNL        c9        10     0.61630       12.0110 ; qtot   -0.035
        11           o10bf         1   UNL       o10        11    -0.55926       15.9990 ; qtot   -0.594
        12           n11bf         1   UNL       n11        12    -0.81283       14.0070 ; qtot   -1.407
        13           c12bf         1   UNL       c12        13     0.74893       12.0110 ; qtot   -0.658
        14           c13bf         1   UNL       c13        14    -0.27562       12.0110 ; qtot   -0.934
        15           c14bf         1   UNL       c14        15     0.29241       12.0110 ; qtot   -0.642
        16           c15bf         1   UNL       c15        16    -0.37328       12.0110 ; qtot   -1.015
        17           n16bf         1   UNL       n16        17    -0.84340       14.0070 ; qtot   -1.858
        18           c17bf         1   UNL       c17        18     0.25799       12.0110 ; qtot   -1.600
        19           o18bf         1   UNL       o18        19    -0.43968       15.9990 ; qtot   -2.040
        20           c19bf         1   UNL       c19        20     0.14806       12.0110 ; qtot   -1.892
        21           c20bf         1   UNL       c20        21    -0.10946       12.0110 ; qtot   -2.001
        22           n21bf         1   UNL       n21        22    -0.37938       14.0070 ; qtot   -2.381
        23           h22bf         1   UNL       h22        23     0.13224        1.0080 ; qtot   -2.248
        24           c23bf         1   UNL       c23        24    -0.05164       12.0110 ; qtot   -2.300
        25           h24bf         1   UNL       h24        25     0.17105        1.0080 ; qtot   -2.129
        26           h25bf         1   UNL       h25        26     0.07858        1.0080 ; qtot   -2.051
        27           h26bf         1   UNL       h26        27     0.07858        1.0080 ; qtot   -1.972
        28           h27bf         1   UNL       h27        28     0.34304        1.0080 ; qtot   -1.629
        29           h28bf         1   UNL       h28        29     0.42823        1.0080 ; qtot   -1.201
        30           h29bf         1   UNL       h29        30     0.42823        1.0080 ; qtot   -0.772
        31           h30bf         1   UNL       h30        31     0.05417        1.0080 ; qtot   -0.718
        32           h31bf         1   UNL       h31        32     0.05417        1.0080 ; qtot   -0.664
        33           h32bf         1   UNL       h32        33     0.04638        1.0080 ; qtot   -0.618
        34           h33bf         1   UNL       h33        34     0.04638        1.0080 ; qtot   -0.571
        35           h34bf         1   UNL       h34        35     0.04638        1.0080 ; qtot   -0.525
        36           h35bf         1   UNL       h35        36     0.13078        1.0080 ; qtot   -0.394
        37           h36bf         1   UNL       h36        37     0.12885        1.0080 ; qtot   -0.265
        38           h37bf         1   UNL       h37        38     0.04345        1.0080 ; qtot   -0.222
        39           h38bf         1   UNL       h38        39     0.04345        1.0080 ; qtot   -0.178
        40           h39bf         1   UNL       h39        40     0.04345        1.0080 ; qtot   -0.135
        41           h40bf         1   UNL       h40        41     0.13497        1.0080 ; qtot    0.000

[ bonds ]
;       ai        aj funct               r               k
         1         2     1        0.139612   371507.457373    ;  uncertainty r = 0.000018, k = 3.965658
         1         6     1        0.139476   376348.501660    ;  uncertainty r = 0.000016, k = 1.811375
         1        23     1        0.108841   333844.026074    ;  uncertainty r = 0.000012, k = 0.951405
         2         3     1        0.140060   351337.456738    ;  uncertainty r = 0.000035, k = 4.056981
         2        41     1        0.108832   333502.339551    ;  uncertainty r = 0.000027, k = 1.724674
         3         4     1        0.141034   338292.692676    ;  uncertainty r = 0.000037, k = 3.852733
         3         7     1        0.151406   230574.330713    ;  uncertainty r = 0.000060, k = 7.101755
         4         5     1        0.140120   350175.824707    ;  uncertainty r = 0.000018, k = 1.868124
         4        24     1        0.151188   236617.713184    ;  uncertainty r = 0.000051, k = 3.673521
         5         6     1        0.139680   371834.945264    ;  uncertainty r = 0.000023, k = 3.401545
         5        37     1        0.108869   334703.937158    ;  uncertainty r = 0.000013, k = 0.749869
         6        36     1        0.108829   334275.858594    ;  uncertainty r = 0.000009, k = 0.960255
         7         8     1        0.152890   201063.098071    ;  uncertainty r = 0.000099, k = 12.674959
         7        26     1        0.109529   312865.290723    ;  uncertainty r = 0.000047, k = 1.760660
         7        27     1        0.109529   312865.290723    ;  uncertainty r = 0.000047, k = 1.760660
         8         9     1        0.139101   381814.975293    ;  uncertainty r = 0.000124, k = 19.068739
         8        11     1        0.123395   717813.414063    ;  uncertainty r = 0.000120, k = 13.767127
         9        10     1        0.141552   453112.388477    ;  uncertainty r = 0.000171, k = 16.995177
         9        28     1        0.102183   460638.685352    ;  uncertainty r = 0.000033, k = 7.805120
        10        12     1        0.136164   462092.717285    ;  uncertainty r = 0.000237, k = 23.302980
        10        16     1        0.140146   393200.644434    ;  uncertainty r = 0.000118, k = 23.611463
        12        13     1        0.133170   365720.569629    ;  uncertainty r = 0.000147, k = 12.046313
        13        14     1        0.141968   371541.574951    ;  uncertainty r = 0.000143, k = 9.618441
        13        19     1        0.134001   309467.322949    ;  uncertainty r = 0.000208, k = 19.064272
        14        15     1        0.142732   398004.430078    ;  uncertainty r = 0.000133, k = 15.342148
        14        18     1        0.142633   330721.450488    ;  uncertainty r = 0.000093, k = 10.220795
        15        16     1        0.141328   422706.092920    ;  uncertainty r = 0.000138, k = 7.904458
        15        17     1        0.139026   371108.056982    ;  uncertainty r = 0.000153, k = 27.823547
        16        25     1        0.108832   343723.618652    ;  uncertainty r = 0.000047, k = 2.764878
        17        29     1        0.101300   420077.839160    ;  uncertainty r = 0.000037, k = 2.878755
        17        30     1        0.101300   420077.839160    ;  uncertainty r = 0.000037, k = 2.878755
        18        22     1        0.116793  1128378.016016    ;  uncertainty r = 0.000033, k = 2.941856
        19        20     1        0.143415   236826.453516    ;  uncertainty r = 0.000091, k = 8.064395
        20        21     1        0.152626   226341.248389    ;  uncertainty r = 0.000055, k = 5.899825
        20        31     1        0.109456   307655.133057    ;  uncertainty r = 0.000021, k = 1.559626
        20        32     1        0.109456   307655.133057    ;  uncertainty r = 0.000021, k = 1.559626
        21        33     1        0.109562   311419.864795    ;  uncertainty r = 0.000014, k = 1.901802
        21        34     1        0.109562   311419.864795    ;  uncertainty r = 0.000014, k = 1.901802
        21        35     1        0.109562   311419.864795    ;  uncertainty r = 0.000014, k = 1.901802
        24        38     1        0.109521   308755.910156    ;  uncertainty r = 0.000010, k = 0.968157
        24        39     1        0.109521   308755.910156    ;  uncertainty r = 0.000010, k = 0.968136
        24        40     1        0.109521   308755.910156    ;  uncertainty r = 0.000010, k = 0.968144

[ angles ]
;       ai        aj        ak funct           theta             cth
         1         2         3     1      121.549377      511.629187    ;  uncertainty theta = 0.001937, k = 0.057658
         1         2        41     1      120.076210      294.206557    ;  uncertainty theta = 0.001946, k = 0.028968
         1         6         5     1      118.152634      517.886449    ;  uncertainty theta = 0.001316, k = 0.026147
         1         6        36     1      120.839828      289.086814    ;  uncertainty theta = 0.001370, k = 0.029924
         2         1         6     1      118.116562      512.800893    ;  uncertainty theta = 0.000571, k = 0.021365
         2         1        23     1      120.516884      286.466355    ;  uncertainty theta = 0.001156, k = 0.030208
         2         3         4     1      122.129776      464.195890    ;  uncertainty theta = 0.002808, k = 0.114251
         2         3         7     1      119.642372      417.002003    ;  uncertainty theta = 0.003016, k = 0.129314
         3         2        41     1      118.050980      266.440457    ;  uncertainty theta = 0.001559, k = 0.066597
         3         4         5     1      121.108871      465.347326    ;  uncertainty theta = 0.004223, k = 0.066948
         3         4        24     1      118.665199      396.559547    ;  uncertainty theta = 0.002713, k = 0.020975
         3         7         8     1      112.081238      500.714084    ;  uncertainty theta = 0.003615, k = 0.120563
         3         7        26     1      108.549095      397.866823    ;  uncertainty theta = 0.002932, k = 0.095992
         3         7        27     1      108.549095      397.866823    ;  uncertainty theta = 0.002932, k = 0.095992
         4         3         7     1      118.969826      411.568568    ;  uncertainty theta = 0.001965, k = 0.189373
         4         5         6     1      121.562828      514.036666    ;  uncertainty theta = 0.001168, k = 0.090785
         4         5        37     1      118.108788      271.093558    ;  uncertainty theta = 0.001347, k = 0.071207
         4        24        38     1      110.073242      393.230689    ;  uncertainty theta = 0.001518, k = 0.053932
         4        24        39     1      110.073242      393.230689    ;  uncertainty theta = 0.001518, k = 0.053932
         4        24        40     1      110.073242      393.230689    ;  uncertainty theta = 0.001518, k = 0.053932
         5         4        24     1      119.922073      429.426509    ;  uncertainty theta = 0.002018, k = 0.150863
         5         6        36     1      120.514793      288.579998    ;  uncertainty theta = 0.001368, k = 0.031158
         6         1        23     1      120.987343      289.223182    ;  uncertainty theta = 0.001296, k = 0.033980
         6         5        37     1      120.123985      291.343241    ;  uncertainty theta = 0.001095, k = 0.028646
         7         8         9     1      112.585144      506.764336    ;  uncertainty theta = 0.003697, k = 0.065559
         7         8        11     1      125.310745      518.657351    ;  uncertainty theta = 0.002758, k = 0.186215
         8         7        26     1      106.228539      365.830711    ;  uncertainty theta = 0.002258, k = 0.176303
         8         7        27     1      106.228539      365.830711    ;  uncertainty theta = 0.002258, k = 0.176303
         8         9        10     1      120.720032      440.565892    ;  uncertainty theta = 0.003519, k = 0.178397
         8         9        28     1      117.241600      267.434489    ;  uncertainty theta = 0.004634, k = 0.660537
         9         8        11     1      123.455482      775.960774    ;  uncertainty theta = 0.002133, k = 0.102130
         9        10        12     1      120.224754      768.711044    ;  uncertainty theta = 0.005858, k = 0.157945
         9        10        16     1      122.278137      533.311278    ;  uncertainty theta = 0.005250, k = 0.406084
        10         9        28     1      117.066086      336.130415    ;  uncertainty theta = 0.002657, k = 0.114965
        10        12        13     1      118.396202      413.897808    ;  uncertainty theta = 0.010734, k = 0.179891
        10        16        15     1      113.982933      516.057066    ;  uncertainty theta = 0.005279, k = 0.322192
        10        16        25     1      121.581764      266.638242    ;  uncertainty theta = 0.003427, k = 0.119353
        12        10        16     1      123.014938      557.585482    ;  uncertainty theta = 0.009119, k = 0.103918
        12        13        14     1      126.561386      519.298843    ;  uncertainty theta = 0.004561, k = 0.250377
        12        13        19     1      118.442764      605.400208    ;  uncertainty theta = 0.004270, k = 0.151631
        13        14        15     1      121.217224      479.784986    ;  uncertainty theta = 0.002823, k = 0.428578
        13        14        18     1      121.196106      385.989897    ;  uncertainty theta = 0.008969, k = 0.106773
        13        19        20     1      109.510330      497.766782    ;  uncertainty theta = 0.002796, k = 0.106304
        14        13        19     1      116.129417      472.792607    ;  uncertainty theta = 0.003388, k = 0.179404
        14        15        16     1      117.484238      427.730909    ;  uncertainty theta = 0.002903, k = 0.240097
        14        15        17     1      120.585159      576.926586    ;  uncertainty theta = 0.004519, k = 0.090792
        14        18        22     1      180.000000      241.307265    ;  uncertainty theta = 0.000000, k = 0.719628
        15        14        18     1      117.830177      369.460747    ;  uncertainty theta = 0.006627, k = 0.174269
        15        16        25     1      121.593582      279.201047    ;  uncertainty theta = 0.003701, k = 0.115080
        15        17        29     1      113.768478      388.852256    ;  uncertainty theta = 0.002252, k = 0.082774
        15        17        30     1      113.768478      388.852256    ;  uncertainty theta = 0.002252, k = 0.082774
        16        15        17     1      126.082375      568.295682    ;  uncertainty theta = 0.002505, k = 0.080621
        19        20        21     1      109.110916      620.838029    ;  uncertainty theta = 0.001375, k = 0.075038
        19        20        31     1      105.721947      414.764856    ;  uncertainty theta = 0.001556, k = 0.030033
        19        20        32     1      105.721947      414.764856    ;  uncertainty theta = 0.001556, k = 0.030033
        20        21        33     1      107.823227      406.328545    ;  uncertainty theta = 0.001985, k = 0.034929
        20        21        34     1      107.823227      406.328545    ;  uncertainty theta = 0.001985, k = 0.034929
        20        21        35     1      107.823227      406.328545    ;  uncertainty theta = 0.001985, k = 0.034929
        21        20        31     1      110.683975      420.952626    ;  uncertainty theta = 0.001109, k = 0.013076
        21        20        32     1      110.683975      420.952626    ;  uncertainty theta = 0.001109, k = 0.013076
        26         7        27     1      105.503296      311.870863    ;  uncertainty theta = 0.003359, k = 0.044216
        29        17        30     1      107.812767      286.090864    ;  uncertainty theta = 0.005516, k = 0.089415
        31        20        32     1      107.605186      326.746644    ;  uncertainty theta = 0.002467, k = 0.048865
        33        21        34     1      105.445511      313.896945    ;  uncertainty theta = 0.002263, k = 0.009799
        33        21        35     1      105.445511      313.896945    ;  uncertainty theta = 0.002263, k = 0.009799
        34        21        35     1      105.445511      313.896945    ;  uncertainty theta = 0.002263, k = 0.009799
        38        24        39     1      106.666710      317.768978    ;  uncertainty theta = 0.001350, k = 0.018358
        38        24        40     1      106.666710      317.768978    ;  uncertainty theta = 0.001350, k = 0.018358
        39        24        40     1      106.666710      317.768978    ;  uncertainty theta = 0.001350, k = 0.018358

[ dihedrals ] ; propers for gromacs 4.5 or higher, use funct 9
;       ai        aj        ak        al funct           phase               k        pn
         1         2         3         4     9        0.000000       -0.152167         1    ;  uncertainty k = 0.222289
         1         2         3         4     9      180.000000       11.306391         2    ;  uncertainty k = 0.305690
         1         2         3         4     9        0.000000       -0.153417         3    ;  uncertainty k = 0.316424
         1         2         3         4     9      180.000000        0.965595         4    ;  uncertainty k = 0.313068
         1         2         3         7     9        0.000000        0.046680         1    ;  uncertainty k = 0.208400
         1         2         3         7     9      180.000000        9.793701         2    ;  uncertainty k = 0.500487
         1         2         3         7     9        0.000000        1.575704         3    ;  uncertainty k = 0.298146
         1         2         3         7     9      180.000000        1.792462         4    ;  uncertainty k = 0.182250
         1         6         5         4     9        0.000000       -0.073565         1    ;  uncertainty k = 0.196796
         1         6         5         4     9      180.000000       13.897037         2    ;  uncertainty k = 0.288680
         1         6         5         4     9        0.000000       -1.058340         3    ;  uncertainty k = 0.520402
         1         6         5         4     9      180.000000        0.654397         4    ;  uncertainty k = 0.263858
         1         6         5        37     9        0.000000        0.100573         1    ;  uncertainty k = 0.130784
         1         6         5        37     9      180.000000        7.868478         2    ;  uncertainty k = 0.314474
         1         6         5        37     9        0.000000        1.410277         3    ;  uncertainty k = 0.336980
         1         6         5        37     9      180.000000        1.804155         4    ;  uncertainty k = 0.197946
         2         1         6         5     9        0.000000        0.146879         1    ;  uncertainty k = 0.116852
         2         1         6         5     9      180.000000       15.367926         2    ;  uncertainty k = 0.342578
         2         1         6         5     9        0.000000       -1.400335         3    ;  uncertainty k = 0.447133
         2         1         6         5     9      180.000000        0.443257         4    ;  uncertainty k = 0.292969
         2         1         6        36     9        0.000000        0.102221         1    ;  uncertainty k = 0.103519
         2         1         6        36     9      180.000000        7.638411         2    ;  uncertainty k = 0.322799
         2         1         6        36     9        0.000000        1.437610         3    ;  uncertainty k = 0.299518
         2         1         6        36     9      180.000000        1.756227         4    ;  uncertainty k = 0.199764
         2         3         4         5     9        0.000000       -0.260227         1    ;  uncertainty k = 0.222216
         2         3         4         5     9      180.000000        8.463979         2    ;  uncertainty k = 0.466273
         2         3         4         5     9        0.000000        0.138253         3    ;  uncertainty k = 0.215005
         2         3         4         5     9      180.000000        1.090536         4    ;  uncertainty k = 0.381472
         2         3         4        24     9        0.000000       -0.007795         1    ;  uncertainty k = 0.222574
         2         3         4        24     9      180.000000        8.822555         2    ;  uncertainty k = 0.292176
         2         3         4        24     9        0.000000        1.396664         3    ;  uncertainty k = 0.230214
         2         3         4        24     9      180.000000        1.625010         4    ;  uncertainty k = 0.171576
         2         3         7         8     9        0.000000        0.403890         1    ;  uncertainty k = 0.648358
         2         3         7         8     9      180.000000        1.371880         2    ;  uncertainty k = 0.141388
         2         3         7         8     9        0.000000        0.394854         3    ;  uncertainty k = 0.160246
         2         3         7         8     9      180.000000        0.216620         4    ;  uncertainty k = 0.037514
         2         3         7        26     9        0.000000       -0.272082         1    ;  uncertainty k = 0.220464
         2         3         7        26     9      180.000000        2.131432         2    ;  uncertainty k = 0.242252
         2         3         7        26     9        0.000000        0.263379         3    ;  uncertainty k = 0.043715
         2         3         7        26     9      180.000000        0.150446         4    ;  uncertainty k = 0.043310
         2         3         7        27     9        0.000000       -0.272082         1    ;  uncertainty k = 0.220464
         2         3         7        27     9      180.000000        2.131432         2    ;  uncertainty k = 0.242252
         2         3         7        27     9        0.000000        0.263379         3    ;  uncertainty k = 0.043715
         2         3         7        27     9      180.000000        0.150446         4    ;  uncertainty k = 0.043310
         3         2         1         6     9        0.000000       -0.020826         1    ;  uncertainty k = 0.117695
         3         2         1         6     9      180.000000       13.604126         2    ;  uncertainty k = 0.288144
         3         2         1         6     9        0.000000       -1.110073         3    ;  uncertainty k = 0.601885
         3         2         1         6     9      180.000000        0.706282         4    ;  uncertainty k = 0.268472
         3         2         1        23     9        0.000000        0.082368         1    ;  uncertainty k = 0.255312
         3         2         1        23     9      180.000000        7.040319         2    ;  uncertainty k = 0.536509
         3         2         1        23     9        0.000000        1.416510         3    ;  uncertainty k = 0.215006
         3         2         1        23     9      180.000000        1.758957         4    ;  uncertainty k = 0.137592
         3         4         5         6     9        0.000000       -0.047648         1    ;  uncertainty k = 0.205239
         3         4         5         6     9      180.000000       10.809077         2    ;  uncertainty k = 0.395908
         3         4         5         6     9        0.000000       -0.013455         3    ;  uncertainty k = 0.390510
         3         4         5         6     9      180.000000        1.056169         4    ;  uncertainty k = 0.343098
         3         4         5        37     9        0.000000        0.000096         1    ;  uncertainty k = 0.324293
         3         4         5        37     9      180.000000        7.239705         2    ;  uncertainty k = 0.614259
         3         4         5        37     9        0.000000        1.449655         3    ;  uncertainty k = 0.258203
         3         4         5        37     9      180.000000        1.592768         4    ;  uncertainty k = 0.137865
         3         4        24        38     9        0.000000       -0.012263         1    ;  uncertainty k = 0.304824
         3         4        24        38     9      180.000000        1.776170         2    ;  uncertainty k = 0.228931
         3         4        24        38     9        0.000000        0.548245         3    ;  uncertainty k = 0.070305
         3         4        24        38     9      180.000000        0.300829         4    ;  uncertainty k = 0.046364
         3         4        24        39     9        0.000000       -0.012263         1    ;  uncertainty k = 0.304824
         3         4        24        39     9      180.000000        1.776170         2    ;  uncertainty k = 0.228931
         3         4        24        39     9        0.000000        0.548245         3    ;  uncertainty k = 0.070305
         3         4        24        39     9      180.000000        0.300829         4    ;  uncertainty k = 0.046364
         3         4        24        40     9        0.000000       -0.012263         1    ;  uncertainty k = 0.304824
         3         4        24        40     9      180.000000        1.776170         2    ;  uncertainty k = 0.228931
         3         4        24        40     9        0.000000        0.548245         3    ;  uncertainty k = 0.070305
         3         4        24        40     9      180.000000        0.300829         4    ;  uncertainty k = 0.046364
         3         7         8         9     9        0.000000       -0.902144         1    ;  uncertainty k = 0.366023
         3         7         8         9     9      180.000000        1.970073         2    ;  uncertainty k = 0.461632
         3         7         8         9     9        0.000000        0.517657         3    ;  uncertainty k = 0.196464
         3         7         8         9     9      180.000000        0.271564         4    ;  uncertainty k = 0.115819
         3         7         8        11     9        0.000000       -1.659313         1    ;  uncertainty k = 0.828337
         3         7         8        11     9      180.000000        3.967512         2    ;  uncertainty k = 0.470905
         3         7         8        11     9        0.000000        0.920360         3    ;  uncertainty k = 0.049779
         3         7         8        11     9      180.000000        0.398107         4    ;  uncertainty k = 0.145381
         4         3         2        41     9        0.000000        0.190619         1    ;  uncertainty k = 0.243636
         4         3         2        41     9      180.000000        7.536969         2    ;  uncertainty k = 0.517849
         4         3         2        41     9        0.000000        1.389287         3    ;  uncertainty k = 0.273379
         4         3         2        41     9      180.000000        1.674567         4    ;  uncertainty k = 0.197522
         4         3         7         8     9        0.000000        1.043852         1    ;  uncertainty k = 0.662683
         4         3         7         8     9      180.000000        1.188079         2    ;  uncertainty k = 0.325098
         4         3         7         8     9        0.000000        0.727096         3    ;  uncertainty k = 0.170125
         4         3         7         8     9      180.000000        0.334840         4    ;  uncertainty k = 0.136075
         4         3         7        26     9        0.000000       -0.226367         1    ;  uncertainty k = 0.191331
         4         3         7        26     9      180.000000        2.371372         2    ;  uncertainty k = 0.163143
         4         3         7        26     9        0.000000        0.426345         3    ;  uncertainty k = 0.033208
         4         3         7        26     9      180.000000        0.244849         4    ;  uncertainty k = 0.072600
         4         3         7        27     9        0.000000       -0.226367         1    ;  uncertainty k = 0.191331
         4         3         7        27     9      180.000000        2.371372         2    ;  uncertainty k = 0.163143
         4         3         7        27     9        0.000000        0.426345         3    ;  uncertainty k = 0.033208
         4         3         7        27     9      180.000000        0.244849         4    ;  uncertainty k = 0.072600
         4         5         6        36     9        0.000000        0.114071         1    ;  uncertainty k = 0.200148
         4         5         6        36     9      180.000000        7.086525         2    ;  uncertainty k = 0.378878
         4         5         6        36     9        0.000000        1.450314         3    ;  uncertainty k = 0.216582
         4         5         6        36     9      180.000000        1.787200         4    ;  uncertainty k = 0.188664
         5         4         3         7     9        0.000000        0.003270         1    ;  uncertainty k = 0.155642
         5         4         3         7     9      180.000000        8.513511         2    ;  uncertainty k = 0.220211
         5         4         3         7     9        0.000000        1.520021         3    ;  uncertainty k = 0.251352
         5         4         3         7     9      180.000000        1.621915         4    ;  uncertainty k = 0.202673
         5         4        24        38     9        0.000000       -0.055254         1    ;  uncertainty k = 0.058880
         5         4        24        38     9      180.000000        1.422682         2    ;  uncertainty k = 0.217938
         5         4        24        38     9        0.000000        0.298848         3    ;  uncertainty k = 0.066390
         5         4        24        38     9      180.000000        0.214140         4    ;  uncertainty k = 0.026177
         5         4        24        39     9        0.000000       -0.055254         1    ;  uncertainty k = 0.058880
         5         4        24        39     9      180.000000        1.422682         2    ;  uncertainty k = 0.217938
         5         4        24        39     9        0.000000        0.298848         3    ;  uncertainty k = 0.066390
         5         4        24        39     9      180.000000        0.214140         4    ;  uncertainty k = 0.026177
         5         4        24        40     9        0.000000       -0.055254         1    ;  uncertainty k = 0.058880
         5         4        24        40     9      180.000000        1.422682         2    ;  uncertainty k = 0.217938
         5         4        24        40     9        0.000000        0.298848         3    ;  uncertainty k = 0.066390
         5         4        24        40     9      180.000000        0.214140         4    ;  uncertainty k = 0.026177
         5         6         1        23     9        0.000000        0.109921         1    ;  uncertainty k = 0.141338
         5         6         1        23     9      180.000000        7.656764         2    ;  uncertainty k = 0.351997
         5         6         1        23     9        0.000000        1.426502         3    ;  uncertainty k = 0.311493
         5         6         1        23     9      180.000000        1.762928         4    ;  uncertainty k = 0.178841
         6         1         2        41     9        0.000000        0.112425         1    ;  uncertainty k = 0.118042
         6         1         2        41     9      180.000000        7.807587         2    ;  uncertainty k = 0.369510
         6         1         2        41     9        0.000000        1.408631         3    ;  uncertainty k = 0.319165
         6         1         2        41     9      180.000000        1.813475         4    ;  uncertainty k = 0.159793
         6         5         4        24     9        0.000000        0.012523         1    ;  uncertainty k = 0.068898
         6         5         4        24     9      180.000000       10.584420         2    ;  uncertainty k = 0.202875
         6         5         4        24     9        0.000000        1.374195         3    ;  uncertainty k = 0.296439
         6         5         4        24     9      180.000000        1.759153         4    ;  uncertainty k = 0.165173
         7         3         2        41     9        0.000000       -0.202640         1    ;  uncertainty k = 0.354434
         7         3         2        41     9      180.000000        7.855206         2    ;  uncertainty k = 0.328607
         7         3         2        41     9        0.000000        0.655330         3    ;  uncertainty k = 0.357801
         7         3         2        41     9      180.000000        1.176670         4    ;  uncertainty k = 0.221070
         7         3         4        24     9        0.000000       -0.337586         1    ;  uncertainty k = 0.491717
         7         3         4        24     9      180.000000        9.625581         2    ;  uncertainty k = 0.448864
         7         3         4        24     9        0.000000        0.871643         3    ;  uncertainty k = 0.225907
         7         3         4        24     9      180.000000        1.290457         4    ;  uncertainty k = 0.269715
         7         8         9        10     9        0.000000        4.914968         1    ;  uncertainty k = 0.618301
         7         8         9        10     9      180.000000        7.661922         2    ;  uncertainty k = 0.378178
         7         8         9        10     9        0.000000        0.789895         3    ;  uncertainty k = 0.380821
         7         8         9        10     9      180.000000       -0.243833         4    ;  uncertainty k = 0.172613
         7         8         9        28     9        0.000000        0.843995         1    ;  uncertainty k = 0.640729
         7         8         9        28     9      180.000000        5.410124         2    ;  uncertainty k = 0.598940
         7         8         9        28     9        0.000000        1.571085         3    ;  uncertainty k = 0.200895
         7         8         9        28     9      180.000000        0.003671         4    ;  uncertainty k = 0.300768
         8         9        10        12     9        0.000000        2.081758         1    ;  uncertainty k = 1.296039
         8         9        10        12     9      180.000000        7.026186         2    ;  uncertainty k = 0.403890
         8         9        10        12     9        0.000000        0.904930         3    ;  uncertainty k = 0.208624
         8         9        10        12     9      180.000000       -0.253088         4    ;  uncertainty k = 0.230659
         8         9        10        16     9        0.000000       -0.192548         1    ;  uncertainty k = 1.401208
         8         9        10        16     9      180.000000        5.555057         2    ;  uncertainty k = 0.224908
         8         9        10        16     9        0.000000        0.528575         3    ;  uncertainty k = 0.112284
         8         9        10        16     9      180.000000       -0.243197         4    ;  uncertainty k = 0.183334
         9         8         7        26     9        0.000000       -1.280340         1    ;  uncertainty k = 0.280101
         9         8         7        26     9      180.000000        2.907792         2    ;  uncertainty k = 0.331496
         9         8         7        26     9        0.000000        0.233887         3    ;  uncertainty k = 0.103510
         9         8         7        26     9      180.000000        0.077172         4    ;  uncertainty k = 0.106160
         9         8         7        27     9        0.000000       -1.280340         1    ;  uncertainty k = 0.280101
         9         8         7        27     9      180.000000        2.907792         2    ;  uncertainty k = 0.331496
         9         8         7        27     9        0.000000        0.233887         3    ;  uncertainty k = 0.103510
         9         8         7        27     9      180.000000        0.077172         4    ;  uncertainty k = 0.106160
         9        10        12        13     9        0.000000       -0.287057         1    ;  uncertainty k = 0.846068
         9        10        12        13     9      180.000000       14.346967         2    ;  uncertainty k = 0.356749
         9        10        12        13     9        0.000000        1.990210         3    ;  uncertainty k = 0.555842
         9        10        12        13     9      180.000000        1.639940         4    ;  uncertainty k = 0.535044
         9        10        16        15     9        0.000000        0.126116         1    ;  uncertainty k = 0.694904
         9        10        16        15     9      180.000000       10.311010         2    ;  uncertainty k = 0.354821
         9        10        16        15     9        0.000000        1.009975         3    ;  uncertainty k = 0.371826
         9        10        16        15     9      180.000000        1.171697         4    ;  uncertainty k = 0.312850
         9        10        16        25     9        0.000000       -0.283095         1    ;  uncertainty k = 0.411758
         9        10        16        25     9      180.000000        7.046675         2    ;  uncertainty k = 0.484512
         9        10        16        25     9        0.000000        1.005820         3    ;  uncertainty k = 0.162759
         9        10        16        25     9      180.000000        0.948056         4    ;  uncertainty k = 0.400045
        10         9         8        11     9        0.000000        4.102305         1    ;  uncertainty k = 0.475964
        10         9         8        11     9      180.000000       17.052959         2    ;  uncertainty k = 0.241595
        10         9         8        11     9        0.000000        0.586890         3    ;  uncertainty k = 0.144493
        10         9         8        11     9      180.000000       -1.280157         4    ;  uncertainty k = 0.191753
        10        12        13        14     9        0.000000       -0.134451         1    ;  uncertainty k = 0.748386
        10        12        13        14     9      180.000000        9.912518         2    ;  uncertainty k = 0.360617
        10        12        13        14     9        0.000000        1.572808         3    ;  uncertainty k = 0.519990
        10        12        13        14     9      180.000000        1.200339         4    ;  uncertainty k = 0.408118
        10        12        13        19     9        0.000000        0.502342         1    ;  uncertainty k = 1.201616
        10        12        13        19     9      180.000000       14.176232         2    ;  uncertainty k = 0.344464
        10        12        13        19     9        0.000000        2.364145         3    ;  uncertainty k = 0.531148
        10        12        13        19     9      180.000000        1.505332         4    ;  uncertainty k = 0.188230
        10        16        15        14     9        0.000000       -0.073776         1    ;  uncertainty k = 0.309551
        10        16        15        14     9      180.000000        7.996001         2    ;  uncertainty k = 0.986235
        10        16        15        14     9        0.000000        0.157134         3    ;  uncertainty k = 0.423554
        10        16        15        14     9      180.000000        1.240112         4    ;  uncertainty k = 0.344697
        10        16        15        17     9        0.000000       -0.330766         1    ;  uncertainty k = 0.831441
        10        16        15        17     9      180.000000        9.847893         2    ;  uncertainty k = 0.474596
        10        16        15        17     9        0.000000        0.856731         3    ;  uncertainty k = 0.349573
        10        16        15        17     9      180.000000        1.151218         4    ;  uncertainty k = 0.263543
        11         8         7        26     9        0.000000        0.095202         1    ;  uncertainty k = 0.289927
        11         8         7        26     9      180.000000        4.151185         2    ;  uncertainty k = 0.373373
        11         8         7        26     9        0.000000        0.632446         3    ;  uncertainty k = 0.112257
        11         8         7        26     9      180.000000        0.289956         4    ;  uncertainty k = 0.066970
        11         8         7        27     9        0.000000        0.095202         1    ;  uncertainty k = 0.289927
        11         8         7        27     9      180.000000        4.151185         2    ;  uncertainty k = 0.373373
        11         8         7        27     9        0.000000        0.632446         3    ;  uncertainty k = 0.112257
        11         8         7        27     9      180.000000        0.289956         4    ;  uncertainty k = 0.066970
        11         8         9        28     9        0.000000        2.869364         1    ;  uncertainty k = 0.929679
        11         8         9        28     9      180.000000       14.022967         2    ;  uncertainty k = 0.325482
        11         8         9        28     9        0.000000        1.084805         3    ;  uncertainty k = 0.160301
        11         8         9        28     9      180.000000       -0.380481         4    ;  uncertainty k = 0.249019
        12        10         9        28     9        0.000000        7.193412         1    ;  uncertainty k = 0.462281
        12        10         9        28     9      180.000000        5.163654         2    ;  uncertainty k = 0.593263
        12        10         9        28     9        0.000000        0.023637         3    ;  uncertainty k = 0.285850
        12        10         9        28     9      180.000000        0.083833         4    ;  uncertainty k = 0.229426
        12        10        16        15     9        0.000000       -0.104497         1    ;  uncertainty k = 0.398292
        12        10        16        15     9      180.000000       11.295169         2    ;  uncertainty k = 0.714584
        12        10        16        15     9        0.000000       -0.676779         3    ;  uncertainty k = 0.671303
        12        10        16        15     9      180.000000        1.074034         4    ;  uncertainty k = 0.238313
        12        10        16        25     9        0.000000        0.361026         1    ;  uncertainty k = 0.745384
        12        10        16        25     9      180.000000        8.722461         2    ;  uncertainty k = 0.756875
        12        10        16        25     9        0.000000        1.235261         3    ;  uncertainty k = 0.310839
        12        10        16        25     9      180.000000        1.393341         4    ;  uncertainty k = 0.262392
        12        13        14        15     9        0.000000       -0.232504         1    ;  uncertainty k = 0.605166
        12        13        14        15     9      180.000000        6.713868         2    ;  uncertainty k = 1.045405
        12        13        14        15     9        0.000000       -0.187477         3    ;  uncertainty k = 0.207869
        12        13        14        15     9      180.000000        0.982166         4    ;  uncertainty k = 0.322222
        12        13        14        18     9        0.000000       -0.307075         1    ;  uncertainty k = 0.725834
        12        13        14        18     9      180.000000        8.809723         2    ;  uncertainty k = 0.975615
        12        13        14        18     9        0.000000        0.773771         3    ;  uncertainty k = 0.371796
        12        13        14        18     9      180.000000        0.999096         4    ;  uncertainty k = 0.428189
        12        13        19        20     9        0.000000        4.044461         1    ;  uncertainty k = 1.235908
        12        13        19        20     9      180.000000       11.441330         2    ;  uncertainty k = 0.111226
        12        13        19        20     9        0.000000        0.448241         3    ;  uncertainty k = 0.407084
        12        13        19        20     9      180.000000        0.151120         4    ;  uncertainty k = 0.132585
        13        12        10        16     9        0.000000       -0.316812         1    ;  uncertainty k = 1.246548
        13        12        10        16     9      180.000000       11.264849         2    ;  uncertainty k = 0.444789
        13        12        10        16     9        0.000000        0.995870         3    ;  uncertainty k = 0.423750
        13        12        10        16     9      180.000000        1.238036         4    ;  uncertainty k = 0.446611
        13        14        15        16     9        0.000000       -0.082073         1    ;  uncertainty k = 0.568705
        13        14        15        16     9      180.000000        6.238300         2    ;  uncertainty k = 1.292749
        13        14        15        16     9        0.000000        0.388475         3    ;  uncertainty k = 0.353584
        13        14        15        16     9      180.000000        1.227616         4    ;  uncertainty k = 0.243225
        13        14        15        17     9        0.000000       -0.727705         1    ;  uncertainty k = 0.553545
        13        14        15        17     9      180.000000        8.652593         2    ;  uncertainty k = 0.800092
        13        14        15        17     9        0.000000        0.735683         3    ;  uncertainty k = 0.183816
        13        14        15        17     9      180.000000        1.175797         4    ;  uncertainty k = 0.400624
        13        14        18        22     9        0.000000        0.000000         1    ;  uncertainty k = 0.000000
        13        14        18        22     9      180.000000        0.000000         2    ;  uncertainty k = 0.000000
        13        14        18        22     9        0.000000        0.000000         3    ;  uncertainty k = 0.000000
        13        14        18        22     9      180.000000        0.000000         4    ;  uncertainty k = 0.000000
        13        19        20        21     9        0.000000       -3.636196         1    ;  uncertainty k = 1.243292
        13        19        20        21     9      180.000000        1.423504         2    ;  uncertainty k = 0.333090
        13        19        20        21     9        0.000000        0.287747         3    ;  uncertainty k = 0.256573
        13        19        20        21     9      180.000000        0.676530         4    ;  uncertainty k = 0.137637
        13        19        20        31     9        0.000000        2.322710         1    ;  uncertainty k = 0.540626
        13        19        20        31     9      180.000000       -0.344542         2    ;  uncertainty k = 0.276977
        13        19        20        31     9        0.000000        0.082814         3    ;  uncertainty k = 0.079800
        13        19        20        31     9      180.000000        0.383140         4    ;  uncertainty k = 0.058960
        13        19        20        32     9        0.000000        2.322710         1    ;  uncertainty k = 0.540626
        13        19        20        32     9      180.000000       -0.344542         2    ;  uncertainty k = 0.276977
        13        19        20        32     9        0.000000        0.082814         3    ;  uncertainty k = 0.079800
        13        19        20        32     9      180.000000        0.383140         4    ;  uncertainty k = 0.058960
        14        13        19        20     9        0.000000       -0.309656         1    ;  uncertainty k = 0.988155
        14        13        19        20     9      180.000000        8.894149         2    ;  uncertainty k = 0.507454
        14        13        19        20     9        0.000000        0.138335         3    ;  uncertainty k = 0.570538
        14        13        19        20     9      180.000000       -0.035457         4    ;  uncertainty k = 0.143247
        14        15        16        25     9        0.000000        0.248056         1    ;  uncertainty k = 0.958381
        14        15        16        25     9      180.000000        6.811149         2    ;  uncertainty k = 0.465255
        14        15        16        25     9        0.000000        1.363311         3    ;  uncertainty k = 0.334370
        14        15        16        25     9      180.000000        1.320741         4    ;  uncertainty k = 0.267576
        14        15        17        29     9        0.000000       16.179241         1    ;  uncertainty k = 0.226508
        14        15        17        29     9      180.000000        8.686178         2    ;  uncertainty k = 0.232167
        14        15        17        29     9        0.000000        0.910135         3    ;  uncertainty k = 0.213786
        14        15        17        29     9      180.000000       -0.131487         4    ;  uncertainty k = 0.109493
        14        15        17        30     9        0.000000       16.179241         1    ;  uncertainty k = 0.226508
        14        15        17        30     9      180.000000        8.686178         2    ;  uncertainty k = 0.232167
        14        15        17        30     9        0.000000        0.910135         3    ;  uncertainty k = 0.213786
        14        15        17        30     9      180.000000       -0.131487         4    ;  uncertainty k = 0.109493
        15        14        13        19     9        0.000000        0.070743         1    ;  uncertainty k = 0.686436
        15        14        13        19     9      180.000000        6.610358         2    ;  uncertainty k = 0.662532
        15        14        13        19     9        0.000000        1.068355         3    ;  uncertainty k = 0.327950
        15        14        13        19     9      180.000000        1.138642         4    ;  uncertainty k = 0.433194
        15        14        18        22     9        0.000000        0.000000         1    ;  uncertainty k = 0.000000
        15        14        18        22     9      180.000000        0.000000         2    ;  uncertainty k = 0.000000
        15        14        18        22     9        0.000000        0.000000         3    ;  uncertainty k = 0.000000
        15        14        18        22     9      180.000000        0.000000         4    ;  uncertainty k = 0.000000
        16        10         9        28     9        0.000000        0.996703         1    ;  uncertainty k = 1.088402
        16        10         9        28     9      180.000000        5.158411         2    ;  uncertainty k = 0.639236
        16        10         9        28     9        0.000000        1.415645         3    ;  uncertainty k = 0.264055
        16        10         9        28     9      180.000000        0.157366         4    ;  uncertainty k = 0.160041
        16        15        14        18     9        0.000000        0.118231         1    ;  uncertainty k = 0.663075
        16        15        14        18     9      180.000000        7.761016         2    ;  uncertainty k = 0.752747
        16        15        14        18     9        0.000000        0.963725         3    ;  uncertainty k = 0.321347
        16        15        14        18     9      180.000000        1.184081         4    ;  uncertainty k = 0.547084
        16        15        17        29     9        0.000000       10.150943         1    ;  uncertainty k = 0.373654
        16        15        17        29     9      180.000000        9.585958         2    ;  uncertainty k = 0.358657
        16        15        17        29     9        0.000000        0.834747         3    ;  uncertainty k = 0.211714
        16        15        17        29     9      180.000000       -0.348757         4    ;  uncertainty k = 0.221362
        16        15        17        30     9        0.000000       10.150943         1    ;  uncertainty k = 0.373654
        16        15        17        30     9      180.000000        9.585958         2    ;  uncertainty k = 0.358657
        16        15        17        30     9        0.000000        0.834747         3    ;  uncertainty k = 0.211714
        16        15        17        30     9      180.000000       -0.348757         4    ;  uncertainty k = 0.221362
        17        15        14        18     9        0.000000       -0.379135         1    ;  uncertainty k = 0.501361
        17        15        14        18     9      180.000000       10.387938         2    ;  uncertainty k = 0.380197
        17        15        14        18     9        0.000000        0.811351         3    ;  uncertainty k = 0.545627
        17        15        14        18     9      180.000000        0.962118         4    ;  uncertainty k = 0.290345
        17        15        16        25     9        0.000000       -0.546000         1    ;  uncertainty k = 0.474114
        17        15        16        25     9      180.000000        7.797048         2    ;  uncertainty k = 0.566356
        17        15        16        25     9        0.000000        0.717830         3    ;  uncertainty k = 0.278527
        17        15        16        25     9      180.000000        0.908902         4    ;  uncertainty k = 0.384357
        18        14        13        19     9        0.000000       -0.590020         1    ;  uncertainty k = 0.555767
        18        14        13        19     9      180.000000        9.321267         2    ;  uncertainty k = 0.983764
        18        14        13        19     9        0.000000        0.830295         3    ;  uncertainty k = 0.529237
        18        14        13        19     9      180.000000        0.902366         4    ;  uncertainty k = 0.417523
        19        20        21        33     9        0.000000       -0.903707         1    ;  uncertainty k = 0.401255
        19        20        21        33     9      180.000000       -3.423220         2    ;  uncertainty k = 0.318602
        19        20        21        33     9        0.000000        1.623618         3    ;  uncertainty k = 0.078292
        19        20        21        33     9      180.000000       -0.201488         4    ;  uncertainty k = 0.051868
        19        20        21        34     9        0.000000       -0.903707         1    ;  uncertainty k = 0.401255
        19        20        21        34     9      180.000000       -3.423220         2    ;  uncertainty k = 0.318602
        19        20        21        34     9        0.000000        1.623618         3    ;  uncertainty k = 0.078292
        19        20        21        34     9      180.000000       -0.201488         4    ;  uncertainty k = 0.051868
        19        20        21        35     9        0.000000       -0.903707         1    ;  uncertainty k = 0.401255
        19        20        21        35     9      180.000000       -3.423220         2    ;  uncertainty k = 0.318602
        19        20        21        35     9        0.000000        1.623618         3    ;  uncertainty k = 0.078292
        19        20        21        35     9      180.000000       -0.201488         4    ;  uncertainty k = 0.051868
        23         1         2        41     9        0.000000       -0.030541         1    ;  uncertainty k = 0.079188
        23         1         2        41     9      180.000000        7.431006         2    ;  uncertainty k = 0.243077
        23         1         2        41     9        0.000000       -0.431417         3    ;  uncertainty k = 0.252564
        23         1         2        41     9      180.000000        0.143226         4    ;  uncertainty k = 0.114225
        23         1         6        36     9        0.000000        0.008311         1    ;  uncertainty k = 0.121141
        23         1         6        36     9      180.000000        7.402726         2    ;  uncertainty k = 0.361605
        23         1         6        36     9        0.000000       -0.413370         3    ;  uncertainty k = 0.291045
        23         1         6        36     9      180.000000        0.048769         4    ;  uncertainty k = 0.138881
        24         4         5        37     9        0.000000       -0.294122         1    ;  uncertainty k = 0.264726
        24         4         5        37     9      180.000000        8.556520         2    ;  uncertainty k = 0.208687
        24         4         5        37     9        0.000000        0.495270         3    ;  uncertainty k = 0.277141
        24         4         5        37     9      180.000000        1.044277         4    ;  uncertainty k = 0.147771
        31        20        21        33     9        0.000000        0.029588         1    ;  uncertainty k = 0.169406
        31        20        21        33     9      180.000000       -0.158076         2    ;  uncertainty k = 0.254590
        31        20        21        33     9        0.000000        0.680966         3    ;  uncertainty k = 0.039021
        31        20        21        33     9      180.000000       -0.063667         4    ;  uncertainty k = 0.062459
        31        20        21        34     9        0.000000        0.029588         1    ;  uncertainty k = 0.169406
        31        20        21        34     9      180.000000       -0.158076         2    ;  uncertainty k = 0.254590
        31        20        21        34     9        0.000000        0.680966         3    ;  uncertainty k = 0.039021
        31        20        21        34     9      180.000000       -0.063667         4    ;  uncertainty k = 0.062459
        31        20        21        35     9        0.000000        0.029588         1    ;  uncertainty k = 0.169406
        31        20        21        35     9      180.000000       -0.158076         2    ;  uncertainty k = 0.254590
        31        20        21        35     9        0.000000        0.680966         3    ;  uncertainty k = 0.039021
        31        20        21        35     9      180.000000       -0.063667         4    ;  uncertainty k = 0.062459
        32        20        21        33     9        0.000000        0.029588         1    ;  uncertainty k = 0.169406
        32        20        21        33     9      180.000000       -0.158076         2    ;  uncertainty k = 0.254590
        32        20        21        33     9        0.000000        0.680966         3    ;  uncertainty k = 0.039021
        32        20        21        33     9      180.000000       -0.063667         4    ;  uncertainty k = 0.062459
        32        20        21        34     9        0.000000        0.029588         1    ;  uncertainty k = 0.169406
        32        20        21        34     9      180.000000       -0.158076         2    ;  uncertainty k = 0.254590
        32        20        21        34     9        0.000000        0.680966         3    ;  uncertainty k = 0.039021
        32        20        21        34     9      180.000000       -0.063667         4    ;  uncertainty k = 0.062459
        32        20        21        35     9        0.000000        0.029588         1    ;  uncertainty k = 0.169406
        32        20        21        35     9      180.000000       -0.158076         2    ;  uncertainty k = 0.254590
        32        20        21        35     9        0.000000        0.680966         3    ;  uncertainty k = 0.039021
        32        20        21        35     9      180.000000       -0.063667         4    ;  uncertainty k = 0.062459
        36         6         5        37     9        0.000000        0.009085         1    ;  uncertainty k = 0.102070
        36         6         5        37     9      180.000000        7.581146         2    ;  uncertainty k = 0.282063
        36         6         5        37     9        0.000000       -0.449034         3    ;  uncertainty k = 0.260869
        36         6         5        37     9      180.000000        0.097630         4    ;  uncertainty k = 0.096884

[ dihedrals ] ; impropers
;       ai        aj        ak        al funct           phase               k        pn
         1         2         6        23     4      180.000000        4.017981         2    ;  uncertainty k = 0.101700
         1         6        23         2     4      180.000000        4.017981         2    ;  uncertainty k = 0.101700
         1        23         2         6     4      180.000000        4.017981         2    ;  uncertainty k = 0.101700
         2         1         3        41     4      180.000000        4.178987         2    ;  uncertainty k = 0.069341
         2         3        41         1     4      180.000000        4.178987         2    ;  uncertainty k = 0.069341
         2        41         1         3     4      180.000000        4.178987         2    ;  uncertainty k = 0.069341
         3         2         4         7     4      180.000000       13.171452         2    ;  uncertainty k = 0.082038
         3         4         7         2     4      180.000000       13.171452         2    ;  uncertainty k = 0.082038
         3         7         2         4     4      180.000000       13.171452         2    ;  uncertainty k = 0.082038
         4         3         5        24     4      180.000000       15.338596         2    ;  uncertainty k = 0.058563
         4         5        24         3     4      180.000000       15.338596         2    ;  uncertainty k = 0.058563
         4        24         3         5     4      180.000000       15.338596         2    ;  uncertainty k = 0.058563
         5         4         6        37     4      180.000000        4.165619         2    ;  uncertainty k = 0.111447
         5         6        37         4     4      180.000000        4.165619         2    ;  uncertainty k = 0.111447
         5        37         4         6     4      180.000000        4.165619         2    ;  uncertainty k = 0.111447
         6         1         5        36     4      180.000000        4.111789         2    ;  uncertainty k = 0.139658
         6         5        36         1     4      180.000000        4.111789         2    ;  uncertainty k = 0.139658
         6        36         1         5     4      180.000000        4.111789         2    ;  uncertainty k = 0.139658
         8         7         9        11     4      180.000000       54.488685         2    ;  uncertainty k = 0.013441
         8         9        11         7     4      180.000000       54.488685         2    ;  uncertainty k = 0.013441
         8        11         7         9     4      180.000000       54.488685         2    ;  uncertainty k = 0.013441
         9         8        10        28     4      180.000000        0.380416         2    ;  uncertainty k = 0.672386
         9        10        28         8     4      180.000000        0.380416         2    ;  uncertainty k = 0.672386
         9        28         8        10     4      180.000000        0.380416         2    ;  uncertainty k = 0.672386
        10         9        12        16     4      180.000000       30.056377         2    ;  uncertainty k = 0.135424
        10        12        16         9     4      180.000000       30.056377         2    ;  uncertainty k = 0.135424
        10        16         9        12     4      180.000000       30.056377         2    ;  uncertainty k = 0.135424
        13        12        14        19     4      180.000000       32.779551         2    ;  uncertainty k = 0.072320
        13        14        19        12     4      180.000000       32.779551         2    ;  uncertainty k = 0.072320
        13        19        12        14     4      180.000000       32.779551         2    ;  uncertainty k = 0.072320
        14        13        15        18     4      180.000000        5.427422         2    ;  uncertainty k = 0.449847
        14        15        18        13     4      180.000000        5.427422         2    ;  uncertainty k = 0.449847
        14        18        13        15     4      180.000000        5.427422         2    ;  uncertainty k = 0.449847
        15        14        16        17     4      180.000000       26.449005         2    ;  uncertainty k = 0.108353
        15        16        17        14     4      180.000000       26.449005         2    ;  uncertainty k = 0.108353
        15        17        14        16     4      180.000000       26.449005         2    ;  uncertainty k = 0.108353
        16        10        15        25     4      180.000000        0.521319         2    ;  uncertainty k = 0.605740
        16        15        25        10     4      180.000000        0.521319         2    ;  uncertainty k = 0.605740
        16        25        10        15     4      180.000000        0.521319         2    ;  uncertainty k = 0.605740

[ pairs ]
;       ai        aj funct
         1         4     1
         1         7     1
         1        37     1
         2         5     1
         2         8     1
         2        24     1
         2        26     1
         2        27     1
         2        36     1
         3         6     1
         3         9     1
         3        11     1
         3        23     1
         3        37     1
         3        38     1
         3        39     1
         3        40     1
         4         8     1
         4        26     1
         4        27     1
         4        36     1
         4        41     1
         5         7     1
         5        23     1
         5        38     1
         5        39     1
         5        40     1
         6        24     1
         6        41     1
         7        10     1
         7        24     1
         7        28     1
         7        41     1
         8        12     1
         8        16     1
         9        13     1
         9        15     1
         9        25     1
         9        26     1
         9        27     1
        10        11     1
        10        14     1
        10        17     1
        10        19     1
        11        26     1
        11        27     1
        11        28     1
        12        15     1
        12        18     1
        12        20     1
        12        25     1
        12        28     1
        13        16     1
        13        17     1
        13        21     1
        13        22     1
        13        31     1
        13        32     1
        14        20     1
        14        25     1
        14        29     1
        14        30     1
        15        19     1
        15        22     1
        16        18     1
        16        28     1
        16        29     1
        16        30     1
        17        18     1
        17        25     1
        18        19     1
        19        33     1
        19        34     1
        19        35     1
        23        36     1
        23        41     1
        24        37     1
        31        33     1
        31        34     1
        31        35     1
        32        33     1
        32        34     1
        32        35     1
        36        37     1
