; ITP file created by ByteFF-joint-25, 2026-02-17 09:12:08.298712

[ atomtypes ]
;name           bonded.type        at.num        mass        charge   ptype           sigma         epsilon
 c0bf                                   6      0.0000       0.00000       A     3.31518e-01     4.13343e-01    ;  uncertainty sigma = 0.000003, epsilon = 0.000526
 c1bf                                   6      0.0000       0.00000       A     3.31517e-01     4.13319e-01    ;  uncertainty sigma = 0.000005, epsilon = 0.000625
 c2bf                                   6      0.0000       0.00000       A     3.31547e-01     4.13031e-01    ;  uncertainty sigma = 0.000013, epsilon = 0.000668
 c3bf                                   6      0.0000       0.00000       A     3.31517e-01     4.13319e-01    ;  uncertainty sigma = 0.000005, epsilon = 0.000625
 c4bf                                   6      0.0000       0.00000       A     3.31518e-01     4.13343e-01    ;  uncertainty sigma = 0.000003, epsilon = 0.000526
 c5bf                                   6      0.0000       0.00000       A     3.31519e-01     4.13331e-01    ;  uncertainty sigma = 0.000003, epsilon = 0.000569
 c6bf                                   6      0.0000       0.00000       A     3.39768e-01     4.51057e-01    ;  uncertainty sigma = 0.000008, epsilon = 0.001851
 c7bf                                   6      0.0000       0.00000       A     3.31534e-01     4.13029e-01    ;  uncertainty sigma = 0.000027, epsilon = 0.001472
 n8bf                                   7      0.0000       0.00000       A     3.26977e-01     4.89929e-01    ;  uncertainty sigma = 0.000038, epsilon = 0.001227
 c9bf                                   6      0.0000       0.00000       A     3.31566e-01     4.12139e-01    ;  uncertainty sigma = 0.000019, epsilon = 0.000481
 o10bf                                  8      0.0000       0.00000       A     3.04854e-01     6.12416e-01    ;  uncertainty sigma = 0.000011, epsilon = 0.001606
 n11bf                                  7      0.0000       0.00000       A     3.38402e-01     3.92745e-01    ;  uncertainty sigma = 0.000021, epsilon = 0.001055
 c12bf                                  6      0.0000       0.00000       A     3.31495e-01     4.13843e-01    ;  uncertainty sigma = 0.000024, epsilon = 0.001862
 c13bf                                  6      0.0000       0.00000       A     3.31496e-01     4.13013e-01    ;  uncertainty sigma = 0.000032, epsilon = 0.002367
 c14bf                                  6      0.0000       0.00000       A     3.31518e-01     4.13443e-01    ;  uncertainty sigma = 0.000027, epsilon = 0.001034
 c15bf                                  6      0.0000       0.00000       A     3.31542e-01     4.13066e-01    ;  uncertainty sigma = 0.000013, epsilon = 0.002464
 n16bf                                  7      0.0000       0.00000       A     3.36843e-01     4.68873e-01    ;  uncertainty sigma = 0.000068, epsilon = 0.003219
 c17bf                                  6      0.0000       0.00000       A     3.47912e-01     6.68669e-01    ;  uncertainty sigma = 0.000017, epsilon = 0.001390
 o18bf                                  8      0.0000       0.00000       A     3.15569e-01     3.03059e-01    ;  uncertainty sigma = 0.000053, epsilon = 0.002176
 c19bf                                  6      0.0000       0.00000       A     3.39764e-01     4.50318e-01    ;  uncertainty sigma = 0.000014, epsilon = 0.000877
 c20bf                                  6      0.0000       0.00000       A     3.39775e-01     4.50959e-01    ;  uncertainty sigma = 0.000006, epsilon = 0.000493
 n21bf                                  7      0.0000       0.00000       A     3.27325e-01     4.59401e-01    ;  uncertainty sigma = 0.000040, epsilon = 0.001413
 h22bf                                  1      0.0000       0.00000       A     2.62558e-01     6.70323e-02    ;  uncertainty sigma = 0.000010, epsilon = 0.000442
 h23bf                                  1      0.0000       0.00000       A     2.62565e-01     6.71218e-02    ;  uncertainty sigma = 0.000005, epsilon = 0.000518
 h24bf                                  1      0.0000       0.00000       A     2.62548e-01     6.68678e-02    ;  uncertainty sigma = 0.000027, epsilon = 0.000692
 h25bf                                  1      0.0000       0.00000       A     2.60021e-01     8.73021e-02    ;  uncertainty sigma = 0.000012, epsilon = 0.000495
 h26bf                                  1      0.0000       0.00000       A     2.60021e-01     8.73021e-02    ;  uncertainty sigma = 0.000012, epsilon = 0.000495
 h27bf                                  1      0.0000       0.00000       A     1.10687e-01     4.15498e-02    ;  uncertainty sigma = 0.000117, epsilon = 0.001414
 h28bf                                  1      0.0000       0.00000       A     1.10684e-01     4.11855e-02    ;  uncertainty sigma = 0.000050, epsilon = 0.000660
 h29bf                                  1      0.0000       0.00000       A     1.10684e-01     4.11855e-02    ;  uncertainty sigma = 0.000050, epsilon = 0.000660
 h30bf                                  1      0.0000       0.00000       A     2.42228e-01     8.67631e-02    ;  uncertainty sigma = 0.000026, epsilon = 0.000627
 h31bf                                  1      0.0000       0.00000       A     2.42228e-01     8.67631e-02    ;  uncertainty sigma = 0.000026, epsilon = 0.000627
 h32bf                                  1      0.0000       0.00000       A     2.60025e-01     8.66249e-02    ;  uncertainty sigma = 0.000011, epsilon = 0.000873
 h33bf                                  1      0.0000       0.00000       A     2.60025e-01     8.66249e-02    ;  uncertainty sigma = 0.000011, epsilon = 0.000873
 h34bf                                  1      0.0000       0.00000       A     2.60025e-01     8.66249e-02    ;  uncertainty sigma = 0.000011, epsilon = 0.000873
 h35bf                                  1      0.0000       0.00000       A     2.62552e-01     6.70646e-02    ;  uncertainty sigma = 0.000011, epsilon = 0.000453
 h36bf                                  1      0.0000       0.00000       A     2.62558e-01     6.70323e-02    ;  uncertainty sigma = 0.000010, epsilon = 0.000442
 h37bf                                  1      0.0000       0.00000       A     2.62565e-01     6.71217e-02    ;  uncertainty sigma = 0.000005, epsilon = 0.000518

[ moleculetype ]
;name             nrexcl
 MOL                   3

[ atoms ]
;       nr            type      resi   res      atom      cgnr      charge          mass ; qtot
         1            c0bf         1   UNL        c0         1    -0.12883       12.0110 ; qtot   -0.129
         2            c1bf         1   UNL        c1         2    -0.11891       12.0110 ; qtot   -0.248
         3            c2bf         1   UNL        c2         3    -0.09964       12.0110 ; qtot   -0.347
         4            c3bf         1   UNL        c3         4    -0.11891       12.0110 ; qtot   -0.466
         5            c4bf         1   UNL        c4         5    -0.12883       12.0110 ; qtot   -0.595
         6            c5bf         1   UNL        c5         6    -0.12782       12.0110 ; qtot   -0.723
         7            c6bf         1   UNL        c6         7    -0.10877       12.0110 ; qtot   -0.832
         8            c7bf         1   UNL        c7         8     0.68311       12.0110 ; qtot   -0.149
         9            n8bf         1   UNL        n8         9    -0.56634       14.0070 ; qtot   -0.715
        10            c9bf         1   UNL        c9        10     0.61630       12.0110 ; qtot   -0.099
        11           o10bf         1   UNL       o10        11    -0.55821       15.9990 ; qtot   -0.657
        12           n11bf         1   UNL       n11        12    -0.81283       14.0070 ; qtot   -1.470
        13           c12bf         1   UNL       c12        13     0.74893       12.0110 ; qtot   -0.721
        14           c13bf         1   UNL       c13        14    -0.27562       12.0110 ; qtot   -0.996
        15           c14bf         1   UNL       c14        15     0.29241       12.0110 ; qtot   -0.704
        16           c15bf         1   UNL       c15        16    -0.37328       12.0110 ; qtot   -1.077
        17           n16bf         1   UNL       n16        17    -0.84340       14.0070 ; qtot   -1.921
        18           c17bf         1   UNL       c17        18     0.25799       12.0110 ; qtot   -1.663
        19           o18bf         1   UNL       o18        19    -0.43968       15.9990 ; qtot   -2.102
        20           c19bf         1   UNL       c19        20     0.14806       12.0110 ; qtot   -1.954
        21           c20bf         1   UNL       c20        21    -0.10946       12.0110 ; qtot   -2.064
        22           n21bf         1   UNL       n21        22    -0.37938       14.0070 ; qtot   -2.443
        23           h22bf         1   UNL       h22        23     0.13082        1.0080 ; qtot   -2.312
        24           h23bf         1   UNL       h23        24     0.13608        1.0080 ; qtot   -2.176
        25           h24bf         1   UNL       h24        25     0.17105        1.0080 ; qtot   -2.005
        26           h25bf         1   UNL       h25        26     0.07965        1.0080 ; qtot   -1.926
        27           h26bf         1   UNL       h26        27     0.07965        1.0080 ; qtot   -1.846
        28           h27bf         1   UNL       h27        28     0.34304        1.0080 ; qtot   -1.503
        29           h28bf         1   UNL       h28        29     0.42823        1.0080 ; qtot   -1.075
        30           h29bf         1   UNL       h29        30     0.42823        1.0080 ; qtot   -0.646
        31           h30bf         1   UNL       h30        31     0.05417        1.0080 ; qtot   -0.592
        32           h31bf         1   UNL       h31        32     0.05417        1.0080 ; qtot   -0.538
        33           h32bf         1   UNL       h32        33     0.04638        1.0080 ; qtot   -0.492
        34           h33bf         1   UNL       h33        34     0.04638        1.0080 ; qtot   -0.445
        35           h34bf         1   UNL       h34        35     0.04638        1.0080 ; qtot   -0.399
        36           h35bf         1   UNL       h35        36     0.13198        1.0080 ; qtot   -0.267
        37           h36bf         1   UNL       h36        37     0.13082        1.0080 ; qtot   -0.136
        38           h37bf         1   UNL       h37        38     0.13608        1.0080 ; qtot   -0.000

[ bonds ]
;       ai        aj funct               r               k
         1         2     1        0.139666   367207.237988    ;  uncertainty r = 0.000029, k = 3.478425
         1         6     1        0.139637   370587.431934    ;  uncertainty r = 0.000019, k = 1.259375
         1        23     1        0.108854   334327.162646    ;  uncertainty r = 0.000010, k = 0.904567
         2         3     1        0.140010   354324.992090    ;  uncertainty r = 0.000025, k = 2.577437
         2        38     1        0.108885   333714.706152    ;  uncertainty r = 0.000026, k = 1.404294
         3         4     1        0.140010   354324.992090    ;  uncertainty r = 0.000025, k = 2.577437
         3         7     1        0.151305   234744.744971    ;  uncertainty r = 0.000040, k = 6.013668
         4         5     1        0.139666   367207.237988    ;  uncertainty r = 0.000029, k = 3.478425
         4        24     1        0.108885   333714.706152    ;  uncertainty r = 0.000026, k = 1.404294
         5         6     1        0.139637   370587.431934    ;  uncertainty r = 0.000019, k = 1.259375
         5        37     1        0.108854   334327.162646    ;  uncertainty r = 0.000010, k = 0.904567
         6        36     1        0.108851   334582.431592    ;  uncertainty r = 0.000012, k = 0.680632
         7         8     1        0.152869   203369.711938    ;  uncertainty r = 0.000081, k = 7.772633
         7        26     1        0.109567   312778.566699    ;  uncertainty r = 0.000032, k = 2.517905
         7        27     1        0.109567   312778.566699    ;  uncertainty r = 0.000032, k = 2.517905
         8         9     1        0.139076   380896.533154    ;  uncertainty r = 0.000162, k = 21.077752
         8        11     1        0.123374   718191.925098    ;  uncertainty r = 0.000078, k = 12.909147
         9        10     1        0.141552   453112.388477    ;  uncertainty r = 0.000171, k = 16.995177
         9        28     1        0.102183   460638.685352    ;  uncertainty r = 0.000033, k = 7.805120
        10        12     1        0.136164   462092.717285    ;  uncertainty r = 0.000237, k = 23.302980
        10        16     1        0.140146   393200.644434    ;  uncertainty r = 0.000118, k = 23.611463
        12        13     1        0.133170   365720.569629    ;  uncertainty r = 0.000147, k = 12.046313
        13        14     1        0.141968   371541.574951    ;  uncertainty r = 0.000143, k = 9.618441
        13        19     1        0.134001   309467.322949    ;  uncertainty r = 0.000208, k = 19.064272
        14        15     1        0.142732   398004.430078    ;  uncertainty r = 0.000133, k = 15.342148
        14        18     1        0.142633   330721.450488    ;  uncertainty r = 0.000093, k = 10.220795
        15        16     1        0.141328   422706.092920    ;  uncertainty r = 0.000138, k = 7.904458
        15        17     1        0.139026   371108.056982    ;  uncertainty r = 0.000153, k = 27.823547
        16        25     1        0.108832   343723.618652    ;  uncertainty r = 0.000047, k = 2.764878
        17        29     1        0.101300   420077.839160    ;  uncertainty r = 0.000037, k = 2.878755
        17        30     1        0.101300   420077.839160    ;  uncertainty r = 0.000037, k = 2.878755
        18        22     1        0.116793  1128378.016016    ;  uncertainty r = 0.000033, k = 2.941856
        19        20     1        0.143415   236826.453516    ;  uncertainty r = 0.000091, k = 8.064395
        20        21     1        0.152626   226341.248389    ;  uncertainty r = 0.000055, k = 5.899825
        20        31     1        0.109456   307655.133057    ;  uncertainty r = 0.000021, k = 1.559626
        20        32     1        0.109456   307655.133057    ;  uncertainty r = 0.000021, k = 1.559626
        21        33     1        0.109562   311419.839258    ;  uncertainty r = 0.000014, k = 1.901805
        21        34     1        0.109562   311419.864795    ;  uncertainty r = 0.000014, k = 1.901802
        21        35     1        0.109562   311419.839258    ;  uncertainty r = 0.000014, k = 1.901805

[ angles ]
;       ai        aj        ak funct           theta             cth
         1         2         3     1      120.697411      517.899792    ;  uncertainty theta = 0.000974, k = 0.045567
         1         2        38     1      120.171875      294.803136    ;  uncertainty theta = 0.002401, k = 0.031439
         1         6         5     1      118.329407      526.152620    ;  uncertainty theta = 0.000907, k = 0.031471
         1         6        36     1      120.672157      289.503835    ;  uncertainty theta = 0.001676, k = 0.008297
         2         1         6     1      119.380966      514.170193    ;  uncertainty theta = 0.000953, k = 0.031172
         2         1        23     1      120.142761      285.695964    ;  uncertainty theta = 0.001599, k = 0.014809
         2         3         4     1      119.989235      460.310578    ;  uncertainty theta = 0.001964, k = 0.078478
         2         3         7     1      120.811768      414.747874    ;  uncertainty theta = 0.002688, k = 0.131749
         3         2        38     1      118.853653      269.447340    ;  uncertainty theta = 0.001866, k = 0.044947
         3         4         5     1      120.697411      517.899792    ;  uncertainty theta = 0.000974, k = 0.045567
         3         4        24     1      118.853653      269.447340    ;  uncertainty theta = 0.001866, k = 0.044947
         3         7         8     1      111.552208      497.462476    ;  uncertainty theta = 0.003352, k = 0.164570
         3         7        26     1      108.487831      395.651447    ;  uncertainty theta = 0.002797, k = 0.089628
         3         7        27     1      108.487831      395.651447    ;  uncertainty theta = 0.002797, k = 0.089628
         4         3         7     1      120.811768      414.747874    ;  uncertainty theta = 0.002688, k = 0.131749
         4         5         6     1      119.380966      514.170193    ;  uncertainty theta = 0.000953, k = 0.031172
         4         5        37     1      120.142761      285.695964    ;  uncertainty theta = 0.001599, k = 0.014809
         5         4        24     1      120.171875      294.803136    ;  uncertainty theta = 0.002401, k = 0.031439
         5         6        36     1      120.672157      289.503835    ;  uncertainty theta = 0.001676, k = 0.008297
         6         1        23     1      120.568382      288.279617    ;  uncertainty theta = 0.001545, k = 0.013753
         6         5        37     1      120.568382      288.279617    ;  uncertainty theta = 0.001545, k = 0.013753
         7         8         9     1      112.663925      507.790353    ;  uncertainty theta = 0.004216, k = 0.044434
         7         8        11     1      125.221420      518.750050    ;  uncertainty theta = 0.002989, k = 0.200923
         8         7        26     1      106.258224      363.383458    ;  uncertainty theta = 0.002012, k = 0.093689
         8         7        27     1      106.258224      363.383458    ;  uncertainty theta = 0.002012, k = 0.093689
         8         9        10     1      120.690353      439.345218    ;  uncertainty theta = 0.003141, k = 0.181173
         8         9        28     1      117.196556      267.349610    ;  uncertainty theta = 0.004167, k = 0.600708
         9         8        11     1      123.543259      772.409519    ;  uncertainty theta = 0.001564, k = 0.100540
         9        10        12     1      120.224754      768.711044    ;  uncertainty theta = 0.005858, k = 0.157945
         9        10        16     1      122.278137      533.311278    ;  uncertainty theta = 0.005250, k = 0.406084
        10         9        28     1      117.066086      336.130415    ;  uncertainty theta = 0.002657, k = 0.114965
        10        12        13     1      118.396202      413.897808    ;  uncertainty theta = 0.010734, k = 0.179891
        10        16        15     1      113.982933      516.057035    ;  uncertainty theta = 0.005279, k = 0.322192
        10        16        25     1      121.581772      266.638226    ;  uncertainty theta = 0.003427, k = 0.119353
        12        10        16     1      123.014938      557.585418    ;  uncertainty theta = 0.009119, k = 0.103918
        12        13        14     1      126.561401      519.298843    ;  uncertainty theta = 0.004561, k = 0.250377
        12        13        19     1      118.442764      605.400208    ;  uncertainty theta = 0.004270, k = 0.151631
        13        14        15     1      121.217224      479.784922    ;  uncertainty theta = 0.002823, k = 0.428578
        13        14        18     1      121.196121      385.989897    ;  uncertainty theta = 0.008969, k = 0.106773
        13        19        20     1      109.510338      497.766782    ;  uncertainty theta = 0.002796, k = 0.106304
        14        13        19     1      116.129417      472.792607    ;  uncertainty theta = 0.003388, k = 0.179404
        14        15        16     1      117.484253      427.730909    ;  uncertainty theta = 0.002903, k = 0.240097
        14        15        17     1      120.585167      576.926586    ;  uncertainty theta = 0.004519, k = 0.090792
        14        18        22     1      180.000000      241.307265    ;  uncertainty theta = 0.000000, k = 0.719628
        15        14        18     1      117.830177      369.460747    ;  uncertainty theta = 0.006627, k = 0.174269
        15        16        25     1      121.593590      279.201047    ;  uncertainty theta = 0.003701, k = 0.115080
        15        17        29     1      113.768478      388.852256    ;  uncertainty theta = 0.002252, k = 0.082774
        15        17        30     1      113.768478      388.852256    ;  uncertainty theta = 0.002252, k = 0.082774
        16        15        17     1      126.082375      568.295682    ;  uncertainty theta = 0.002505, k = 0.080621
        19        20        21     1      109.110901      620.838093    ;  uncertainty theta = 0.001375, k = 0.075038
        19        20        31     1      105.721962      414.764888    ;  uncertainty theta = 0.001556, k = 0.030033
        19        20        32     1      105.721962      414.764888    ;  uncertainty theta = 0.001556, k = 0.030033
        20        21        33     1      107.823227      406.328513    ;  uncertainty theta = 0.001985, k = 0.034929
        20        21        34     1      107.823227      406.328513    ;  uncertainty theta = 0.001985, k = 0.034929
        20        21        35     1      107.823227      406.328513    ;  uncertainty theta = 0.001985, k = 0.034929
        21        20        31     1      110.683975      420.952626    ;  uncertainty theta = 0.001109, k = 0.013076
        21        20        32     1      110.683975      420.952626    ;  uncertainty theta = 0.001109, k = 0.013076
        26         7        27     1      105.569992      311.588742    ;  uncertainty theta = 0.002721, k = 0.045776
        29        17        30     1      107.812782      286.090864    ;  uncertainty theta = 0.005516, k = 0.089415
        31        20        32     1      107.605186      326.746644    ;  uncertainty theta = 0.002467, k = 0.048865
        33        21        34     1      105.445511      313.896945    ;  uncertainty theta = 0.002263, k = 0.009799
        33        21        35     1      105.445511      313.896945    ;  uncertainty theta = 0.002263, k = 0.009799
        34        21        35     1      105.445511      313.896945    ;  uncertainty theta = 0.002263, k = 0.009799

[ dihedrals ] ; propers for gromacs 4.5 or higher, use funct 9
;       ai        aj        ak        al funct           phase               k        pn
         1         2         3         4     9        0.000000       -0.273310         1    ;  uncertainty k = 0.135496
         1         2         3         4     9      180.000000       11.957748         2    ;  uncertainty k = 0.323034
         1         2         3         4     9        0.000000       -0.501149         3    ;  uncertainty k = 0.300631
         1         2         3         4     9      180.000000        0.788124         4    ;  uncertainty k = 0.417172
         1         2         3         7     9        0.000000        0.009479         1    ;  uncertainty k = 0.152602
         1         2         3         7     9      180.000000        9.446047         2    ;  uncertainty k = 0.456598
         1         2         3         7     9        0.000000        1.513309         3    ;  uncertainty k = 0.287774
         1         2         3         7     9      180.000000        1.751176         4    ;  uncertainty k = 0.151132
         1         6         5         4     9        0.000000        0.029361         1    ;  uncertainty k = 0.062556
         1         6         5         4     9      180.000000       15.062172         2    ;  uncertainty k = 0.277876
         1         6         5         4     9        0.000000       -1.195330         3    ;  uncertainty k = 0.448646
         1         6         5         4     9      180.000000        0.491221         4    ;  uncertainty k = 0.280040
         1         6         5        37     9        0.000000        0.061790         1    ;  uncertainty k = 0.040367
         1         6         5        37     9      180.000000        7.533638         2    ;  uncertainty k = 0.335059
         1         6         5        37     9        0.000000        1.445862         3    ;  uncertainty k = 0.325060
         1         6         5        37     9      180.000000        1.795809         4    ;  uncertainty k = 0.164033
         2         1         6         5     9        0.000000        0.029361         1    ;  uncertainty k = 0.062556
         2         1         6         5     9      180.000000       15.062172         2    ;  uncertainty k = 0.277876
         2         1         6         5     9        0.000000       -1.195330         3    ;  uncertainty k = 0.448646
         2         1         6         5     9      180.000000        0.491221         4    ;  uncertainty k = 0.280040
         2         1         6        36     9        0.000000        0.046685         1    ;  uncertainty k = 0.065151
         2         1         6        36     9      180.000000        7.531822         2    ;  uncertainty k = 0.363645
         2         1         6        36     9        0.000000        1.436215         3    ;  uncertainty k = 0.292639
         2         1         6        36     9      180.000000        1.789194         4    ;  uncertainty k = 0.219494
         2         3         4         5     9        0.000000       -0.273310         1    ;  uncertainty k = 0.135496
         2         3         4         5     9      180.000000       11.957748         2    ;  uncertainty k = 0.323034
         2         3         4         5     9        0.000000       -0.501149         3    ;  uncertainty k = 0.300631
         2         3         4         5     9      180.000000        0.788124         4    ;  uncertainty k = 0.417172
         2         3         4        24     9        0.000000        0.164612         1    ;  uncertainty k = 0.179156
         2         3         4        24     9      180.000000        7.362188         2    ;  uncertainty k = 0.563198
         2         3         4        24     9        0.000000        1.404315         3    ;  uncertainty k = 0.303675
         2         3         4        24     9      180.000000        1.646339         4    ;  uncertainty k = 0.197021
         2         3         7         8     9        0.000000        0.463033         1    ;  uncertainty k = 0.524210
         2         3         7         8     9      180.000000        1.146928         2    ;  uncertainty k = 0.099969
         2         3         7         8     9        0.000000        0.596258         3    ;  uncertainty k = 0.162496
         2         3         7         8     9      180.000000        0.185748         4    ;  uncertainty k = 0.027322
         2         3         7        26     9        0.000000       -0.309600         1    ;  uncertainty k = 0.188754
         2         3         7        26     9      180.000000        2.008753         2    ;  uncertainty k = 0.173788
         2         3         7        26     9        0.000000        0.354221         3    ;  uncertainty k = 0.059505
         2         3         7        26     9      180.000000        0.157748         4    ;  uncertainty k = 0.035407
         2         3         7        27     9        0.000000       -0.309600         1    ;  uncertainty k = 0.188754
         2         3         7        27     9      180.000000        2.008753         2    ;  uncertainty k = 0.173788
         2         3         7        27     9        0.000000        0.354221         3    ;  uncertainty k = 0.059505
         2         3         7        27     9      180.000000        0.157748         4    ;  uncertainty k = 0.035407
         3         2         1         6     9        0.000000       -0.127194         1    ;  uncertainty k = 0.111289
         3         2         1         6     9      180.000000       13.875523         2    ;  uncertainty k = 0.217248
         3         2         1         6     9        0.000000       -0.959512         3    ;  uncertainty k = 0.443513
         3         2         1         6     9      180.000000        0.704222         4    ;  uncertainty k = 0.231308
         3         2         1        23     9        0.000000        0.041331         1    ;  uncertainty k = 0.225490
         3         2         1        23     9      180.000000        7.298765         2    ;  uncertainty k = 0.435691
         3         2         1        23     9        0.000000        1.452447         3    ;  uncertainty k = 0.211437
         3         2         1        23     9      180.000000        1.763757         4    ;  uncertainty k = 0.110439
         3         4         5         6     9        0.000000       -0.127194         1    ;  uncertainty k = 0.111289
         3         4         5         6     9      180.000000       13.875523         2    ;  uncertainty k = 0.217248
         3         4         5         6     9        0.000000       -0.959512         3    ;  uncertainty k = 0.443513
         3         4         5         6     9      180.000000        0.704222         4    ;  uncertainty k = 0.231308
         3         4         5        37     9        0.000000        0.041331         1    ;  uncertainty k = 0.225490
         3         4         5        37     9      180.000000        7.298765         2    ;  uncertainty k = 0.435691
         3         4         5        37     9        0.000000        1.452447         3    ;  uncertainty k = 0.211437
         3         4         5        37     9      180.000000        1.763757         4    ;  uncertainty k = 0.110439
         3         7         8         9     9        0.000000       -1.026592         1    ;  uncertainty k = 0.660212
         3         7         8         9     9      180.000000        1.781861         2    ;  uncertainty k = 0.478481
         3         7         8         9     9        0.000000        0.470078         3    ;  uncertainty k = 0.171559
         3         7         8         9     9      180.000000        0.295902         4    ;  uncertainty k = 0.122441
         3         7         8        11     9        0.000000       -1.288989         1    ;  uncertainty k = 0.695585
         3         7         8        11     9      180.000000        3.795471         2    ;  uncertainty k = 0.492279
         3         7         8        11     9        0.000000        0.859360         3    ;  uncertainty k = 0.100612
         3         7         8        11     9      180.000000        0.449077         4    ;  uncertainty k = 0.137613
         4         3         2        38     9        0.000000        0.164612         1    ;  uncertainty k = 0.179156
         4         3         2        38     9      180.000000        7.362188         2    ;  uncertainty k = 0.563198
         4         3         2        38     9        0.000000        1.404315         3    ;  uncertainty k = 0.303675
         4         3         2        38     9      180.000000        1.646339         4    ;  uncertainty k = 0.197021
         4         3         7         8     9        0.000000        0.463033         1    ;  uncertainty k = 0.524210
         4         3         7         8     9      180.000000        1.146928         2    ;  uncertainty k = 0.099969
         4         3         7         8     9        0.000000        0.596258         3    ;  uncertainty k = 0.162496
         4         3         7         8     9      180.000000        0.185748         4    ;  uncertainty k = 0.027322
         4         3         7        26     9        0.000000       -0.309600         1    ;  uncertainty k = 0.188754
         4         3         7        26     9      180.000000        2.008753         2    ;  uncertainty k = 0.173788
         4         3         7        26     9        0.000000        0.354221         3    ;  uncertainty k = 0.059505
         4         3         7        26     9      180.000000        0.157748         4    ;  uncertainty k = 0.035407
         4         3         7        27     9        0.000000       -0.309600         1    ;  uncertainty k = 0.188754
         4         3         7        27     9      180.000000        2.008753         2    ;  uncertainty k = 0.173788
         4         3         7        27     9        0.000000        0.354221         3    ;  uncertainty k = 0.059505
         4         3         7        27     9      180.000000        0.157748         4    ;  uncertainty k = 0.035407
         4         5         6        36     9        0.000000        0.046685         1    ;  uncertainty k = 0.065151
         4         5         6        36     9      180.000000        7.531822         2    ;  uncertainty k = 0.363645
         4         5         6        36     9        0.000000        1.436215         3    ;  uncertainty k = 0.292639
         4         5         6        36     9      180.000000        1.789194         4    ;  uncertainty k = 0.219494
         5         4         3         7     9        0.000000        0.009479         1    ;  uncertainty k = 0.152602
         5         4         3         7     9      180.000000        9.446047         2    ;  uncertainty k = 0.456598
         5         4         3         7     9        0.000000        1.513309         3    ;  uncertainty k = 0.287774
         5         4         3         7     9      180.000000        1.751176         4    ;  uncertainty k = 0.151132
         5         6         1        23     9        0.000000        0.061790         1    ;  uncertainty k = 0.040367
         5         6         1        23     9      180.000000        7.533638         2    ;  uncertainty k = 0.335059
         5         6         1        23     9        0.000000        1.445862         3    ;  uncertainty k = 0.325060
         5         6         1        23     9      180.000000        1.795809         4    ;  uncertainty k = 0.164033
         6         1         2        38     9        0.000000        0.104916         1    ;  uncertainty k = 0.078113
         6         1         2        38     9      180.000000        7.842872         2    ;  uncertainty k = 0.365370
         6         1         2        38     9        0.000000        1.430221         3    ;  uncertainty k = 0.302099
         6         1         2        38     9      180.000000        1.830944         4    ;  uncertainty k = 0.154414
         6         5         4        24     9        0.000000        0.104916         1    ;  uncertainty k = 0.078113
         6         5         4        24     9      180.000000        7.842872         2    ;  uncertainty k = 0.365370
         6         5         4        24     9        0.000000        1.430221         3    ;  uncertainty k = 0.302099
         6         5         4        24     9      180.000000        1.830944         4    ;  uncertainty k = 0.154414
         7         3         2        38     9        0.000000       -0.164776         1    ;  uncertainty k = 0.270717
         7         3         2        38     9      180.000000        7.670813         2    ;  uncertainty k = 0.369418
         7         3         2        38     9        0.000000        0.615258         3    ;  uncertainty k = 0.349687
         7         3         2        38     9      180.000000        1.084334         4    ;  uncertainty k = 0.247928
         7         3         4        24     9        0.000000       -0.164776         1    ;  uncertainty k = 0.270717
         7         3         4        24     9      180.000000        7.670813         2    ;  uncertainty k = 0.369418
         7         3         4        24     9        0.000000        0.615258         3    ;  uncertainty k = 0.349687
         7         3         4        24     9      180.000000        1.084334         4    ;  uncertainty k = 0.247928
         7         8         9        10     9        0.000000        5.265400         1    ;  uncertainty k = 0.519073
         7         8         9        10     9      180.000000        7.776861         2    ;  uncertainty k = 0.312076
         7         8         9        10     9        0.000000        0.806734         3    ;  uncertainty k = 0.352056
         7         8         9        10     9      180.000000       -0.252674         4    ;  uncertainty k = 0.146073
         7         8         9        28     9        0.000000        0.825685         1    ;  uncertainty k = 0.725015
         7         8         9        28     9      180.000000        5.433679         2    ;  uncertainty k = 0.601322
         7         8         9        28     9        0.000000        1.638869         3    ;  uncertainty k = 0.164682
         7         8         9        28     9      180.000000        0.012901         4    ;  uncertainty k = 0.301442
         8         9        10        12     9        0.000000        2.063495         1    ;  uncertainty k = 1.271616
         8         9        10        12     9      180.000000        6.977829         2    ;  uncertainty k = 0.403739
         8         9        10        12     9        0.000000        0.924999         3    ;  uncertainty k = 0.214499
         8         9        10        12     9      180.000000       -0.245190         4    ;  uncertainty k = 0.228609
         8         9        10        16     9        0.000000       -0.168599         1    ;  uncertainty k = 1.307044
         8         9        10        16     9      180.000000        5.525097         2    ;  uncertainty k = 0.233014
         8         9        10        16     9        0.000000        0.538992         3    ;  uncertainty k = 0.125755
         8         9        10        16     9      180.000000       -0.239520         4    ;  uncertainty k = 0.175063
         9         8         7        26     9        0.000000       -1.454555         1    ;  uncertainty k = 0.141146
         9         8         7        26     9      180.000000        2.967602         2    ;  uncertainty k = 0.337078
         9         8         7        26     9        0.000000        0.222847         3    ;  uncertainty k = 0.096437
         9         8         7        26     9      180.000000        0.075773         4    ;  uncertainty k = 0.101879
         9         8         7        27     9        0.000000       -1.454555         1    ;  uncertainty k = 0.141146
         9         8         7        27     9      180.000000        2.967602         2    ;  uncertainty k = 0.337078
         9         8         7        27     9        0.000000        0.222847         3    ;  uncertainty k = 0.096437
         9         8         7        27     9      180.000000        0.075773         4    ;  uncertainty k = 0.101879
         9        10        12        13     9        0.000000       -0.287057         1    ;  uncertainty k = 0.846068
         9        10        12        13     9      180.000000       14.346967         2    ;  uncertainty k = 0.356749
         9        10        12        13     9        0.000000        1.990210         3    ;  uncertainty k = 0.555842
         9        10        12        13     9      180.000000        1.639940         4    ;  uncertainty k = 0.535044
         9        10        16        15     9        0.000000        0.126116         1    ;  uncertainty k = 0.694904
         9        10        16        15     9      180.000000       10.311010         2    ;  uncertainty k = 0.354821
         9        10        16        15     9        0.000000        1.009975         3    ;  uncertainty k = 0.371826
         9        10        16        15     9      180.000000        1.171697         4    ;  uncertainty k = 0.312850
         9        10        16        25     9        0.000000       -0.283095         1    ;  uncertainty k = 0.411758
         9        10        16        25     9      180.000000        7.046675         2    ;  uncertainty k = 0.484512
         9        10        16        25     9        0.000000        1.005820         3    ;  uncertainty k = 0.162759
         9        10        16        25     9      180.000000        0.948056         4    ;  uncertainty k = 0.400045
        10         9         8        11     9        0.000000        4.087435         1    ;  uncertainty k = 0.452045
        10         9         8        11     9      180.000000       17.121247         2    ;  uncertainty k = 0.251647
        10         9         8        11     9        0.000000        0.588289         3    ;  uncertainty k = 0.144665
        10         9         8        11     9      180.000000       -1.282246         4    ;  uncertainty k = 0.199091
        10        12        13        14     9        0.000000       -0.134451         1    ;  uncertainty k = 0.748386
        10        12        13        14     9      180.000000        9.912518         2    ;  uncertainty k = 0.360617
        10        12        13        14     9        0.000000        1.572808         3    ;  uncertainty k = 0.519990
        10        12        13        14     9      180.000000        1.200339         4    ;  uncertainty k = 0.408118
        10        12        13        19     9        0.000000        0.502342         1    ;  uncertainty k = 1.201616
        10        12        13        19     9      180.000000       14.176232         2    ;  uncertainty k = 0.344464
        10        12        13        19     9        0.000000        2.364145         3    ;  uncertainty k = 0.531148
        10        12        13        19     9      180.000000        1.505332         4    ;  uncertainty k = 0.188230
        10        16        15        14     9        0.000000       -0.073776         1    ;  uncertainty k = 0.309551
        10        16        15        14     9      180.000000        7.996001         2    ;  uncertainty k = 0.986235
        10        16        15        14     9        0.000000        0.157134         3    ;  uncertainty k = 0.423554
        10        16        15        14     9      180.000000        1.240112         4    ;  uncertainty k = 0.344697
        10        16        15        17     9        0.000000       -0.330766         1    ;  uncertainty k = 0.831441
        10        16        15        17     9      180.000000        9.847893         2    ;  uncertainty k = 0.474596
        10        16        15        17     9        0.000000        0.856731         3    ;  uncertainty k = 0.349573
        10        16        15        17     9      180.000000        1.151218         4    ;  uncertainty k = 0.263543
        11         8         7        26     9        0.000000        0.023715         1    ;  uncertainty k = 0.273111
        11         8         7        26     9      180.000000        4.160173         2    ;  uncertainty k = 0.338171
        11         8         7        26     9        0.000000        0.614255         3    ;  uncertainty k = 0.123428
        11         8         7        26     9      180.000000        0.306226         4    ;  uncertainty k = 0.076621
        11         8         7        27     9        0.000000        0.023715         1    ;  uncertainty k = 0.273111
        11         8         7        27     9      180.000000        4.160173         2    ;  uncertainty k = 0.338171
        11         8         7        27     9        0.000000        0.614255         3    ;  uncertainty k = 0.123428
        11         8         7        27     9      180.000000        0.306226         4    ;  uncertainty k = 0.076621
        11         8         9        28     9        0.000000        2.907209         1    ;  uncertainty k = 0.924974
        11         8         9        28     9      180.000000       14.120391         2    ;  uncertainty k = 0.307444
        11         8         9        28     9        0.000000        1.083959         3    ;  uncertainty k = 0.147738
        11         8         9        28     9      180.000000       -0.394443         4    ;  uncertainty k = 0.249588
        12        10         9        28     9        0.000000        7.193412         1    ;  uncertainty k = 0.462281
        12        10         9        28     9      180.000000        5.163654         2    ;  uncertainty k = 0.593263
        12        10         9        28     9        0.000000        0.023637         3    ;  uncertainty k = 0.285850
        12        10         9        28     9      180.000000        0.083833         4    ;  uncertainty k = 0.229426
        12        10        16        15     9        0.000000       -0.104497         1    ;  uncertainty k = 0.398292
        12        10        16        15     9      180.000000       11.295169         2    ;  uncertainty k = 0.714584
        12        10        16        15     9        0.000000       -0.676779         3    ;  uncertainty k = 0.671303
        12        10        16        15     9      180.000000        1.074034         4    ;  uncertainty k = 0.238313
        12        10        16        25     9        0.000000        0.361026         1    ;  uncertainty k = 0.745384
        12        10        16        25     9      180.000000        8.722461         2    ;  uncertainty k = 0.756875
        12        10        16        25     9        0.000000        1.235261         3    ;  uncertainty k = 0.310839
        12        10        16        25     9      180.000000        1.393341         4    ;  uncertainty k = 0.262392
        12        13        14        15     9        0.000000       -0.232504         1    ;  uncertainty k = 0.605166
        12        13        14        15     9      180.000000        6.713868         2    ;  uncertainty k = 1.045405
        12        13        14        15     9        0.000000       -0.187477         3    ;  uncertainty k = 0.207869
        12        13        14        15     9      180.000000        0.982166         4    ;  uncertainty k = 0.322222
        12        13        14        18     9        0.000000       -0.307075         1    ;  uncertainty k = 0.725834
        12        13        14        18     9      180.000000        8.809723         2    ;  uncertainty k = 0.975615
        12        13        14        18     9        0.000000        0.773771         3    ;  uncertainty k = 0.371796
        12        13        14        18     9      180.000000        0.999096         4    ;  uncertainty k = 0.428189
        12        13        19        20     9        0.000000        4.044461         1    ;  uncertainty k = 1.235908
        12        13        19        20     9      180.000000       11.441330         2    ;  uncertainty k = 0.111226
        12        13        19        20     9        0.000000        0.448241         3    ;  uncertainty k = 0.407084
        12        13        19        20     9      180.000000        0.151120         4    ;  uncertainty k = 0.132585
        13        12        10        16     9        0.000000       -0.316812         1    ;  uncertainty k = 1.246548
        13        12        10        16     9      180.000000       11.264849         2    ;  uncertainty k = 0.444789
        13        12        10        16     9        0.000000        0.995870         3    ;  uncertainty k = 0.423750
        13        12        10        16     9      180.000000        1.238036         4    ;  uncertainty k = 0.446611
        13        14        15        16     9        0.000000       -0.082073         1    ;  uncertainty k = 0.568705
        13        14        15        16     9      180.000000        6.238300         2    ;  uncertainty k = 1.292749
        13        14        15        16     9        0.000000        0.388475         3    ;  uncertainty k = 0.353584
        13        14        15        16     9      180.000000        1.227616         4    ;  uncertainty k = 0.243225
        13        14        15        17     9        0.000000       -0.727705         1    ;  uncertainty k = 0.553545
        13        14        15        17     9      180.000000        8.652593         2    ;  uncertainty k = 0.800092
        13        14        15        17     9        0.000000        0.735683         3    ;  uncertainty k = 0.183816
        13        14        15        17     9      180.000000        1.175797         4    ;  uncertainty k = 0.400624
        13        14        18        22     9        0.000000        0.000000         1    ;  uncertainty k = 0.000000
        13        14        18        22     9      180.000000        0.000000         2    ;  uncertainty k = 0.000000
        13        14        18        22     9        0.000000        0.000000         3    ;  uncertainty k = 0.000000
        13        14        18        22     9      180.000000        0.000000         4    ;  uncertainty k = 0.000000
        13        19        20        21     9        0.000000       -3.636196         1    ;  uncertainty k = 1.243292
        13        19        20        21     9      180.000000        1.423504         2    ;  uncertainty k = 0.333090
        13        19        20        21     9        0.000000        0.287747         3    ;  uncertainty k = 0.256573
        13        19        20        21     9      180.000000        0.676530         4    ;  uncertainty k = 0.137637
        13        19        20        31     9        0.000000        2.322710         1    ;  uncertainty k = 0.540626
        13        19        20        31     9      180.000000       -0.344542         2    ;  uncertainty k = 0.276977
        13        19        20        31     9        0.000000        0.082814         3    ;  uncertainty k = 0.079800
        13        19        20        31     9      180.000000        0.383140         4    ;  uncertainty k = 0.058960
        13        19        20        32     9        0.000000        2.322710         1    ;  uncertainty k = 0.540626
        13        19        20        32     9      180.000000       -0.344542         2    ;  uncertainty k = 0.276977
        13        19        20        32     9        0.000000        0.082814         3    ;  uncertainty k = 0.079800
        13        19        20        32     9      180.000000        0.383140         4    ;  uncertainty k = 0.058960
        14        13        19        20     9        0.000000       -0.309656         1    ;  uncertainty k = 0.988155
        14        13        19        20     9      180.000000        8.894149         2    ;  uncertainty k = 0.507454
        14        13        19        20     9        0.000000        0.138335         3    ;  uncertainty k = 0.570538
        14        13        19        20     9      180.000000       -0.035457         4    ;  uncertainty k = 0.143247
        14        15        16        25     9        0.000000        0.248056         1    ;  uncertainty k = 0.958381
        14        15        16        25     9      180.000000        6.811149         2    ;  uncertainty k = 0.465255
        14        15        16        25     9        0.000000        1.363311         3    ;  uncertainty k = 0.334370
        14        15        16        25     9      180.000000        1.320741         4    ;  uncertainty k = 0.267576
        14        15        17        29     9        0.000000       16.179241         1    ;  uncertainty k = 0.226508
        14        15        17        29     9      180.000000        8.686178         2    ;  uncertainty k = 0.232167
        14        15        17        29     9        0.000000        0.910135         3    ;  uncertainty k = 0.213786
        14        15        17        29     9      180.000000       -0.131487         4    ;  uncertainty k = 0.109493
        14        15        17        30     9        0.000000       16.179241         1    ;  uncertainty k = 0.226508
        14        15        17        30     9      180.000000        8.686178         2    ;  uncertainty k = 0.232167
        14        15        17        30     9        0.000000        0.910135         3    ;  uncertainty k = 0.213786
        14        15        17        30     9      180.000000       -0.131487         4    ;  uncertainty k = 0.109493
        15        14        13        19     9        0.000000        0.070743         1    ;  uncertainty k = 0.686436
        15        14        13        19     9      180.000000        6.610358         2    ;  uncertainty k = 0.662532
        15        14        13        19     9        0.000000        1.068355         3    ;  uncertainty k = 0.327950
        15        14        13        19     9      180.000000        1.138642         4    ;  uncertainty k = 0.433194
        15        14        18        22     9        0.000000        0.000000         1    ;  uncertainty k = 0.000000
        15        14        18        22     9      180.000000        0.000000         2    ;  uncertainty k = 0.000000
        15        14        18        22     9        0.000000        0.000000         3    ;  uncertainty k = 0.000000
        15        14        18        22     9      180.000000        0.000000         4    ;  uncertainty k = 0.000000
        16        10         9        28     9        0.000000        0.996703         1    ;  uncertainty k = 1.088402
        16        10         9        28     9      180.000000        5.158411         2    ;  uncertainty k = 0.639236
        16        10         9        28     9        0.000000        1.415645         3    ;  uncertainty k = 0.264055
        16        10         9        28     9      180.000000        0.157366         4    ;  uncertainty k = 0.160041
        16        15        14        18     9        0.000000        0.118231         1    ;  uncertainty k = 0.663075
        16        15        14        18     9      180.000000        7.761016         2    ;  uncertainty k = 0.752747
        16        15        14        18     9        0.000000        0.963725         3    ;  uncertainty k = 0.321347
        16        15        14        18     9      180.000000        1.184081         4    ;  uncertainty k = 0.547084
        16        15        17        29     9        0.000000       10.150943         1    ;  uncertainty k = 0.373654
        16        15        17        29     9      180.000000        9.585958         2    ;  uncertainty k = 0.358657
        16        15        17        29     9        0.000000        0.834747         3    ;  uncertainty k = 0.211714
        16        15        17        29     9      180.000000       -0.348757         4    ;  uncertainty k = 0.221362
        16        15        17        30     9        0.000000       10.150943         1    ;  uncertainty k = 0.373654
        16        15        17        30     9      180.000000        9.585958         2    ;  uncertainty k = 0.358657
        16        15        17        30     9        0.000000        0.834747         3    ;  uncertainty k = 0.211714
        16        15        17        30     9      180.000000       -0.348757         4    ;  uncertainty k = 0.221362
        17        15        14        18     9        0.000000       -0.379135         1    ;  uncertainty k = 0.501361
        17        15        14        18     9      180.000000       10.387938         2    ;  uncertainty k = 0.380197
        17        15        14        18     9        0.000000        0.811351         3    ;  uncertainty k = 0.545627
        17        15        14        18     9      180.000000        0.962118         4    ;  uncertainty k = 0.290345
        17        15        16        25     9        0.000000       -0.546000         1    ;  uncertainty k = 0.474114
        17        15        16        25     9      180.000000        7.797048         2    ;  uncertainty k = 0.566356
        17        15        16        25     9        0.000000        0.717830         3    ;  uncertainty k = 0.278527
        17        15        16        25     9      180.000000        0.908902         4    ;  uncertainty k = 0.384357
        18        14        13        19     9        0.000000       -0.590020         1    ;  uncertainty k = 0.555767
        18        14        13        19     9      180.000000        9.321267         2    ;  uncertainty k = 0.983764
        18        14        13        19     9        0.000000        0.830295         3    ;  uncertainty k = 0.529237
        18        14        13        19     9      180.000000        0.902366         4    ;  uncertainty k = 0.417523
        19        20        21        33     9        0.000000       -0.903707         1    ;  uncertainty k = 0.401255
        19        20        21        33     9      180.000000       -3.423220         2    ;  uncertainty k = 0.318602
        19        20        21        33     9        0.000000        1.623618         3    ;  uncertainty k = 0.078292
        19        20        21        33     9      180.000000       -0.201488         4    ;  uncertainty k = 0.051868
        19        20        21        34     9        0.000000       -0.903707         1    ;  uncertainty k = 0.401255
        19        20        21        34     9      180.000000       -3.423220         2    ;  uncertainty k = 0.318602
        19        20        21        34     9        0.000000        1.623618         3    ;  uncertainty k = 0.078292
        19        20        21        34     9      180.000000       -0.201488         4    ;  uncertainty k = 0.051868
        19        20        21        35     9        0.000000       -0.903707         1    ;  uncertainty k = 0.401255
        19        20        21        35     9      180.000000       -3.423220         2    ;  uncertainty k = 0.318602
        19        20        21        35     9        0.000000        1.623618         3    ;  uncertainty k = 0.078292
        19        20        21        35     9      180.000000       -0.201488         4    ;  uncertainty k = 0.051868
        23         1         2        38     9        0.000000       -0.037970         1    ;  uncertainty k = 0.152413
        23         1         2        38     9      180.000000        7.495020         2    ;  uncertainty k = 0.200069
        23         1         2        38     9        0.000000       -0.426811         3    ;  uncertainty k = 0.253763
        23         1         2        38     9      180.000000        0.124655         4    ;  uncertainty k = 0.122865
        23         1         6        36     9        0.000000       -0.006372         1    ;  uncertainty k = 0.088779
        23         1         6        36     9      180.000000        7.464231         2    ;  uncertainty k = 0.352346
        23         1         6        36     9        0.000000       -0.416733         3    ;  uncertainty k = 0.274619
        23         1         6        36     9      180.000000        0.051451         4    ;  uncertainty k = 0.138380
        24         4         5        37     9        0.000000       -0.037970         1    ;  uncertainty k = 0.152413
        24         4         5        37     9      180.000000        7.495020         2    ;  uncertainty k = 0.200069
        24         4         5        37     9        0.000000       -0.426811         3    ;  uncertainty k = 0.253763
        24         4         5        37     9      180.000000        0.124655         4    ;  uncertainty k = 0.122865
        31        20        21        33     9        0.000000        0.029588         1    ;  uncertainty k = 0.169406
        31        20        21        33     9      180.000000       -0.158076         2    ;  uncertainty k = 0.254590
        31        20        21        33     9        0.000000        0.680966         3    ;  uncertainty k = 0.039021
        31        20        21        33     9      180.000000       -0.063667         4    ;  uncertainty k = 0.062459
        31        20        21        34     9        0.000000        0.029588         1    ;  uncertainty k = 0.169406
        31        20        21        34     9      180.000000       -0.158076         2    ;  uncertainty k = 0.254590
        31        20        21        34     9        0.000000        0.680966         3    ;  uncertainty k = 0.039021
        31        20        21        34     9      180.000000       -0.063667         4    ;  uncertainty k = 0.062459
        31        20        21        35     9        0.000000        0.029588         1    ;  uncertainty k = 0.169406
        31        20        21        35     9      180.000000       -0.158076         2    ;  uncertainty k = 0.254590
        31        20        21        35     9        0.000000        0.680966         3    ;  uncertainty k = 0.039021
        31        20        21        35     9      180.000000       -0.063667         4    ;  uncertainty k = 0.062459
        32        20        21        33     9        0.000000        0.029588         1    ;  uncertainty k = 0.169406
        32        20        21        33     9      180.000000       -0.158076         2    ;  uncertainty k = 0.254590
        32        20        21        33     9        0.000000        0.680966         3    ;  uncertainty k = 0.039021
        32        20        21        33     9      180.000000       -0.063667         4    ;  uncertainty k = 0.062459
        32        20        21        34     9        0.000000        0.029588         1    ;  uncertainty k = 0.169406
        32        20        21        34     9      180.000000       -0.158076         2    ;  uncertainty k = 0.254590
        32        20        21        34     9        0.000000        0.680966         3    ;  uncertainty k = 0.039021
        32        20        21        34     9      180.000000       -0.063667         4    ;  uncertainty k = 0.062459
        32        20        21        35     9        0.000000        0.029588         1    ;  uncertainty k = 0.169406
        32        20        21        35     9      180.000000       -0.158076         2    ;  uncertainty k = 0.254590
        32        20        21        35     9        0.000000        0.680966         3    ;  uncertainty k = 0.039021
        32        20        21        35     9      180.000000       -0.063667         4    ;  uncertainty k = 0.062459
        36         6         5        37     9        0.000000       -0.006372         1    ;  uncertainty k = 0.088779
        36         6         5        37     9      180.000000        7.464231         2    ;  uncertainty k = 0.352346
        36         6         5        37     9        0.000000       -0.416733         3    ;  uncertainty k = 0.274619
        36         6         5        37     9      180.000000        0.051451         4    ;  uncertainty k = 0.138380

[ dihedrals ] ; impropers
;       ai        aj        ak        al funct           phase               k        pn
         1         2         6        23     4      180.000000        4.630335         2    ;  uncertainty k = 0.065818
         1         6        23         2     4      180.000000        4.630335         2    ;  uncertainty k = 0.065818
         1        23         2         6     4      180.000000        4.630335         2    ;  uncertainty k = 0.065818
         2         1         3        38     4      180.000000        4.610680         2    ;  uncertainty k = 0.084503
         2         3        38         1     4      180.000000        4.610680         2    ;  uncertainty k = 0.084503
         2        38         1         3     4      180.000000        4.610680         2    ;  uncertainty k = 0.084503
         3         2         4         7     4      180.000000       13.575711         2    ;  uncertainty k = 0.059524
         3         4         7         2     4      180.000000       13.575711         2    ;  uncertainty k = 0.059524
         3         7         2         4     4      180.000000       13.575711         2    ;  uncertainty k = 0.059524
         4         3         5        24     4      180.000000        4.610680         2    ;  uncertainty k = 0.084503
         4         5        24         3     4      180.000000        4.610680         2    ;  uncertainty k = 0.084503
         4        24         3         5     4      180.000000        4.610680         2    ;  uncertainty k = 0.084503
         5         4         6        37     4      180.000000        4.630335         2    ;  uncertainty k = 0.065818
         5         6        37         4     4      180.000000        4.630335         2    ;  uncertainty k = 0.065818
         5        37         4         6     4      180.000000        4.630335         2    ;  uncertainty k = 0.065818
         6         1         5        36     4      180.000000        4.333638         2    ;  uncertainty k = 0.163022
         6         5        36         1     4      180.000000        4.333638         2    ;  uncertainty k = 0.163022
         6        36         1         5     4      180.000000        4.333638         2    ;  uncertainty k = 0.163022
         8         7         9        11     4      180.000000       54.268879         2    ;  uncertainty k = 0.011665
         8         9        11         7     4      180.000000       54.268879         2    ;  uncertainty k = 0.011665
         8        11         7         9     4      180.000000       54.268879         2    ;  uncertainty k = 0.011665
         9         8        10        28     4      180.000000        0.441348         2    ;  uncertainty k = 0.737910
         9        10        28         8     4      180.000000        0.441348         2    ;  uncertainty k = 0.737910
         9        28         8        10     4      180.000000        0.441348         2    ;  uncertainty k = 0.737910
        10         9        12        16     4      180.000000       30.056377         2    ;  uncertainty k = 0.135424
        10        12        16         9     4      180.000000       30.056377         2    ;  uncertainty k = 0.135424
        10        16         9        12     4      180.000000       30.056377         2    ;  uncertainty k = 0.135424
        13        12        14        19     4      180.000000       32.779551         2    ;  uncertainty k = 0.072320
        13        14        19        12     4      180.000000       32.779551         2    ;  uncertainty k = 0.072320
        13        19        12        14     4      180.000000       32.779551         2    ;  uncertainty k = 0.072320
        14        13        15        18     4      180.000000        5.427422         2    ;  uncertainty k = 0.449847
        14        15        18        13     4      180.000000        5.427422         2    ;  uncertainty k = 0.449847
        14        18        13        15     4      180.000000        5.427422         2    ;  uncertainty k = 0.449847
        15        14        16        17     4      180.000000       26.449005         2    ;  uncertainty k = 0.108353
        15        16        17        14     4      180.000000       26.449005         2    ;  uncertainty k = 0.108353
        15        17        14        16     4      180.000000       26.449005         2    ;  uncertainty k = 0.108353
        16        10        15        25     4      180.000000        0.521319         2    ;  uncertainty k = 0.605740
        16        15        25        10     4      180.000000        0.521319         2    ;  uncertainty k = 0.605740
        16        25        10        15     4      180.000000        0.521319         2    ;  uncertainty k = 0.605740

[ pairs ]
;       ai        aj funct
         1         4     1
         1         7     1
         1        37     1
         2         5     1
         2         8     1
         2        24     1
         2        26     1
         2        27     1
         2        36     1
         3         6     1
         3         9     1
         3        11     1
         3        23     1
         3        37     1
         4         8     1
         4        26     1
         4        27     1
         4        36     1
         4        38     1
         5         7     1
         5        23     1
         6        24     1
         6        38     1
         7        10     1
         7        24     1
         7        28     1
         7        38     1
         8        12     1
         8        16     1
         9        13     1
         9        15     1
         9        25     1
         9        26     1
         9        27     1
        10        11     1
        10        14     1
        10        17     1
        10        19     1
        11        26     1
        11        27     1
        11        28     1
        12        15     1
        12        18     1
        12        20     1
        12        25     1
        12        28     1
        13        16     1
        13        17     1
        13        21     1
        13        22     1
        13        31     1
        13        32     1
        14        20     1
        14        25     1
        14        29     1
        14        30     1
        15        19     1
        15        22     1
        16        18     1
        16        28     1
        16        29     1
        16        30     1
        17        18     1
        17        25     1
        18        19     1
        19        33     1
        19        34     1
        19        35     1
        23        36     1
        23        38     1
        24        37     1
        31        33     1
        31        34     1
        31        35     1
        32        33     1
        32        34     1
        32        35     1
        36        37     1
