; ITP file created by ByteFF-joint-25, 2026-02-17 09:11:01.197021

[ atomtypes ]
;name           bonded.type        at.num        mass        charge   ptype           sigma         epsilon
 c0bf                                   6      0.0000       0.00000       A     3.31525e-01     4.13389e-01    ;  uncertainty sigma = 0.000004, epsilon = 0.000567
 c1bf                                   6      0.0000       0.00000       A     3.31529e-01     4.13643e-01    ;  uncertainty sigma = 0.000005, epsilon = 0.000424
 c2bf                                   6      0.0000       0.00000       A     3.31545e-01     4.12927e-01    ;  uncertainty sigma = 0.000012, epsilon = 0.000679
 c3bf                                   6      0.0000       0.00000       A     3.31526e-01     4.13429e-01    ;  uncertainty sigma = 0.000005, epsilon = 0.000666
 c4bf                                   6      0.0000       0.00000       A     3.31517e-01     4.13347e-01    ;  uncertainty sigma = 0.000003, epsilon = 0.000538
 c5bf                                   6      0.0000       0.00000       A     3.31518e-01     4.13356e-01    ;  uncertainty sigma = 0.000004, epsilon = 0.000562
 c6bf                                   6      0.0000       0.00000       A     3.39768e-01     4.50856e-01    ;  uncertainty sigma = 0.000008, epsilon = 0.001366
 c7bf                                   6      0.0000       0.00000       A     3.31530e-01     4.13173e-01    ;  uncertainty sigma = 0.000029, epsilon = 0.001462
 n8bf                                   7      0.0000       0.00000       A     3.26977e-01     4.89929e-01    ;  uncertainty sigma = 0.000038, epsilon = 0.001227
 c9bf                                   6      0.0000       0.00000       A     3.31566e-01     4.12139e-01    ;  uncertainty sigma = 0.000019, epsilon = 0.000481
 o10bf                                  8      0.0000       0.00000       A     3.04854e-01     6.12416e-01    ;  uncertainty sigma = 0.000011, epsilon = 0.001606
 n11bf                                  7      0.0000       0.00000       A     3.38402e-01     3.92745e-01    ;  uncertainty sigma = 0.000021, epsilon = 0.001055
 c12bf                                  6      0.0000       0.00000       A     3.31495e-01     4.13843e-01    ;  uncertainty sigma = 0.000024, epsilon = 0.001862
 c13bf                                  6      0.0000       0.00000       A     3.31496e-01     4.13013e-01    ;  uncertainty sigma = 0.000032, epsilon = 0.002367
 c14bf                                  6      0.0000       0.00000       A     3.31518e-01     4.13443e-01    ;  uncertainty sigma = 0.000027, epsilon = 0.001034
 c15bf                                  6      0.0000       0.00000       A     3.31542e-01     4.13066e-01    ;  uncertainty sigma = 0.000013, epsilon = 0.002464
 n16bf                                  7      0.0000       0.00000       A     3.36843e-01     4.68873e-01    ;  uncertainty sigma = 0.000068, epsilon = 0.003219
 c17bf                                  6      0.0000       0.00000       A     3.47912e-01     6.68669e-01    ;  uncertainty sigma = 0.000017, epsilon = 0.001390
 o18bf                                  8      0.0000       0.00000       A     3.15569e-01     3.03059e-01    ;  uncertainty sigma = 0.000053, epsilon = 0.002176
 c19bf                                  6      0.0000       0.00000       A     3.39764e-01     4.50318e-01    ;  uncertainty sigma = 0.000014, epsilon = 0.000877
 c20bf                                  6      0.0000       0.00000       A     3.39775e-01     4.50959e-01    ;  uncertainty sigma = 0.000006, epsilon = 0.000493
 n21bf                                  7      0.0000       0.00000       A     3.27325e-01     4.59401e-01    ;  uncertainty sigma = 0.000040, epsilon = 0.001413
 h22bf                                  1      0.0000       0.00000       A     2.62565e-01     6.70620e-02    ;  uncertainty sigma = 0.000008, epsilon = 0.000556
 h23bf                                  1      0.0000       0.00000       A     2.62557e-01     6.70697e-02    ;  uncertainty sigma = 0.000007, epsilon = 0.000433
 h24bf                                  1      0.0000       0.00000       A     2.62548e-01     6.68678e-02    ;  uncertainty sigma = 0.000027, epsilon = 0.000692
 h25bf                                  1      0.0000       0.00000       A     2.60072e-01     8.69266e-02    ;  uncertainty sigma = 0.000009, epsilon = 0.001024
 h26bf                                  1      0.0000       0.00000       A     2.60072e-01     8.69266e-02    ;  uncertainty sigma = 0.000009, epsilon = 0.001024
 h27bf                                  1      0.0000       0.00000       A     1.10687e-01     4.15498e-02    ;  uncertainty sigma = 0.000117, epsilon = 0.001414
 h28bf                                  1      0.0000       0.00000       A     1.10684e-01     4.11855e-02    ;  uncertainty sigma = 0.000050, epsilon = 0.000660
 h29bf                                  1      0.0000       0.00000       A     1.10684e-01     4.11855e-02    ;  uncertainty sigma = 0.000050, epsilon = 0.000660
 h30bf                                  1      0.0000       0.00000       A     2.42228e-01     8.67631e-02    ;  uncertainty sigma = 0.000026, epsilon = 0.000627
 h31bf                                  1      0.0000       0.00000       A     2.42228e-01     8.67631e-02    ;  uncertainty sigma = 0.000026, epsilon = 0.000627
 h32bf                                  1      0.0000       0.00000       A     2.60025e-01     8.66249e-02    ;  uncertainty sigma = 0.000011, epsilon = 0.000873
 h33bf                                  1      0.0000       0.00000       A     2.60025e-01     8.66249e-02    ;  uncertainty sigma = 0.000011, epsilon = 0.000873
 h34bf                                  1      0.0000       0.00000       A     2.60025e-01     8.66249e-02    ;  uncertainty sigma = 0.000011, epsilon = 0.000873
 h35bf                                  1      0.0000       0.00000       A     2.62561e-01     6.69800e-02    ;  uncertainty sigma = 0.000008, epsilon = 0.000493
 h36bf                                  1      0.0000       0.00000       A     2.62558e-01     6.70323e-02    ;  uncertainty sigma = 0.000010, epsilon = 0.000442
 cl37bf                                17      0.0000       0.00000       A     3.46628e-01     1.10486e+00    ;  uncertainty sigma = 0.000009, epsilon = 0.000939

[ moleculetype ]
;name             nrexcl
 MOL                   3

[ atoms ]
;       nr            type      resi   res      atom      cgnr      charge          mass ; qtot
         1            c0bf         1   UNL        c0         1    -0.11877       12.0110 ; qtot   -0.119
         2            c1bf         1   UNL        c1         2     0.03881       12.0110 ; qtot   -0.080
         3            c2bf         1   UNL        c2         3    -0.07958       12.0110 ; qtot   -0.160
         4            c3bf         1   UNL        c3         4    -0.11206       12.0110 ; qtot   -0.272
         5            c4bf         1   UNL        c4         5    -0.12356       12.0110 ; qtot   -0.395
         6            c5bf         1   UNL        c5         6    -0.12005       12.0110 ; qtot   -0.515
         7            c6bf         1   UNL        c6         7    -0.11209       12.0110 ; qtot   -0.627
         8            c7bf         1   UNL        c7         8     0.68555       12.0110 ; qtot    0.058
         9            n8bf         1   UNL        n8         9    -0.56541       14.0070 ; qtot   -0.507
        10            c9bf         1   UNL        c9        10     0.61630       12.0110 ; qtot    0.109
        11           o10bf         1   UNL       o10        11    -0.55805       15.9990 ; qtot   -0.449
        12           n11bf         1   UNL       n11        12    -0.81283       14.0070 ; qtot   -1.262
        13           c12bf         1   UNL       c12        13     0.74893       12.0110 ; qtot   -0.513
        14           c13bf         1   UNL       c13        14    -0.27562       12.0110 ; qtot   -0.788
        15           c14bf         1   UNL       c14        15     0.29241       12.0110 ; qtot   -0.496
        16           c15bf         1   UNL       c15        16    -0.37328       12.0110 ; qtot   -0.869
        17           n16bf         1   UNL       n16        17    -0.84340       14.0070 ; qtot   -1.713
        18           c17bf         1   UNL       c17        18     0.25799       12.0110 ; qtot   -1.455
        19           o18bf         1   UNL       o18        19    -0.43968       15.9990 ; qtot   -1.894
        20           c19bf         1   UNL       c19        20     0.14806       12.0110 ; qtot   -1.746
        21           c20bf         1   UNL       c20        21    -0.10946       12.0110 ; qtot   -1.856
        22           n21bf         1   UNL       n21        22    -0.37938       14.0070 ; qtot   -2.235
        23           h22bf         1   UNL       h22        23     0.14899        1.0080 ; qtot   -2.086
        24           h23bf         1   UNL       h23        24     0.14301        1.0080 ; qtot   -1.943
        25           h24bf         1   UNL       h24        25     0.17105        1.0080 ; qtot   -1.772
        26           h25bf         1   UNL       h25        26     0.08688        1.0080 ; qtot   -1.685
        27           h26bf         1   UNL       h26        27     0.08688        1.0080 ; qtot   -1.598
        28           h27bf         1   UNL       h27        28     0.34304        1.0080 ; qtot   -1.255
        29           h28bf         1   UNL       h28        29     0.42823        1.0080 ; qtot   -0.827
        30           h29bf         1   UNL       h29        30     0.42823        1.0080 ; qtot   -0.399
        31           h30bf         1   UNL       h30        31     0.05417        1.0080 ; qtot   -0.345
        32           h31bf         1   UNL       h31        32     0.05417        1.0080 ; qtot   -0.291
        33           h32bf         1   UNL       h32        33     0.04638        1.0080 ; qtot   -0.244
        34           h33bf         1   UNL       h33        34     0.04638        1.0080 ; qtot   -0.198
        35           h34bf         1   UNL       h34        35     0.04638        1.0080 ; qtot   -0.151
        36           h35bf         1   UNL       h35        36     0.13764        1.0080 ; qtot   -0.014
        37           h36bf         1   UNL       h36        37     0.13723        1.0080 ; qtot    0.123
        38          cl37bf         1   UNL      cl37        38    -0.12349       35.4530 ; qtot    0.000

[ bonds ]
;       ai        aj funct               r               k
         1         2     1        0.139582   355322.803564    ;  uncertainty r = 0.000028, k = 2.500318
         1         6     1        0.139419   376330.217090    ;  uncertainty r = 0.000025, k = 1.794519
         1        23     1        0.108720   335865.620264    ;  uncertainty r = 0.000015, k = 0.735711
         2         3     1        0.140025   342850.811328    ;  uncertainty r = 0.000037, k = 3.529036
         2        38     1        0.176249   189204.264600    ;  uncertainty r = 0.000086, k = 2.619573
         3         4     1        0.140039   353372.560059    ;  uncertainty r = 0.000027, k = 3.598605
         3         7     1        0.150970   229991.548340    ;  uncertainty r = 0.000045, k = 4.930677
         4         5     1        0.139537   371797.916455    ;  uncertainty r = 0.000036, k = 2.336176
         4        24     1        0.108775   333540.798437    ;  uncertainty r = 0.000033, k = 1.401930
         5         6     1        0.139548   375024.249316    ;  uncertainty r = 0.000018, k = 0.989218
         5        37     1        0.108813   333848.341846    ;  uncertainty r = 0.000014, k = 0.988821
         6        36     1        0.108784   334214.135400    ;  uncertainty r = 0.000009, k = 1.114790
         7         8     1        0.153107   200937.851318    ;  uncertainty r = 0.000108, k = 9.391128
         7        26     1        0.109488   313904.242480    ;  uncertainty r = 0.000037, k = 1.827059
         7        27     1        0.109488   313904.242480    ;  uncertainty r = 0.000037, k = 1.827059
         8         9     1        0.139061   385216.135205    ;  uncertainty r = 0.000140, k = 21.004754
         8        11     1        0.123415   720988.034277    ;  uncertainty r = 0.000094, k = 12.941191
         9        10     1        0.141552   453112.388477    ;  uncertainty r = 0.000171, k = 16.995177
         9        28     1        0.102183   460638.685352    ;  uncertainty r = 0.000033, k = 7.805120
        10        12     1        0.136164   462092.717285    ;  uncertainty r = 0.000237, k = 23.302980
        10        16     1        0.140146   393200.644434    ;  uncertainty r = 0.000118, k = 23.611463
        12        13     1        0.133170   365720.569629    ;  uncertainty r = 0.000147, k = 12.046313
        13        14     1        0.141968   371541.574951    ;  uncertainty r = 0.000143, k = 9.618441
        13        19     1        0.134001   309467.322949    ;  uncertainty r = 0.000208, k = 19.064272
        14        15     1        0.142732   398004.430078    ;  uncertainty r = 0.000133, k = 15.342148
        14        18     1        0.142633   330721.450488    ;  uncertainty r = 0.000093, k = 10.220795
        15        16     1        0.141328   422706.092920    ;  uncertainty r = 0.000138, k = 7.904458
        15        17     1        0.139026   371108.056982    ;  uncertainty r = 0.000153, k = 27.823547
        16        25     1        0.108832   343723.618652    ;  uncertainty r = 0.000047, k = 2.764878
        17        29     1        0.101300   420077.839160    ;  uncertainty r = 0.000037, k = 2.878755
        17        30     1        0.101300   420077.839160    ;  uncertainty r = 0.000037, k = 2.878755
        18        22     1        0.116793  1128378.016016    ;  uncertainty r = 0.000033, k = 2.941856
        19        20     1        0.143415   236826.453516    ;  uncertainty r = 0.000091, k = 8.064395
        20        21     1        0.152626   226341.248389    ;  uncertainty r = 0.000055, k = 5.899825
        20        31     1        0.109456   307655.133057    ;  uncertainty r = 0.000021, k = 1.559626
        20        32     1        0.109456   307655.133057    ;  uncertainty r = 0.000021, k = 1.559626
        21        33     1        0.109562   311419.839258    ;  uncertainty r = 0.000014, k = 1.901805
        21        34     1        0.109562   311419.864795    ;  uncertainty r = 0.000014, k = 1.901802
        21        35     1        0.109562   311419.839258    ;  uncertainty r = 0.000014, k = 1.901805

[ angles ]
;       ai        aj        ak funct           theta             cth
         1         2         3     1      124.088303      382.703143    ;  uncertainty theta = 0.002524, k = 0.114809
         1         2        38     1      119.588608      452.623398    ;  uncertainty theta = 0.000462, k = 0.068362
         1         6         5     1      118.598389      517.418546    ;  uncertainty theta = 0.001341, k = 0.020645
         1         6        36     1      119.936539      286.113336    ;  uncertainty theta = 0.001527, k = 0.016809
         2         1         6     1      118.850510      490.321885    ;  uncertainty theta = 0.002091, k = 0.066756
         2         1        23     1      120.172340      283.609231    ;  uncertainty theta = 0.001283, k = 0.028206
         2         3         4     1      119.488976      428.813107    ;  uncertainty theta = 0.003126, k = 0.119806
         2         3         7     1      120.449303      405.704481    ;  uncertainty theta = 0.002433, k = 0.083350
         3         2        38     1      118.070694      408.825212    ;  uncertainty theta = 0.002359, k = 0.047232
         3         4         5     1      121.985275      507.487164    ;  uncertainty theta = 0.002296, k = 0.090495
         3         4        24     1      117.346451      265.690592    ;  uncertainty theta = 0.001638, k = 0.097622
         3         7         8     1      111.998413      500.676161    ;  uncertainty theta = 0.002677, k = 0.120087
         3         7        26     1      107.861534      395.031406    ;  uncertainty theta = 0.002594, k = 0.089760
         3         7        27     1      107.861534      395.031406    ;  uncertainty theta = 0.002594, k = 0.089760
         4         3         7     1      120.651344      409.676970    ;  uncertainty theta = 0.003220, k = 0.060806
         4         5         6     1      118.696800      518.118262    ;  uncertainty theta = 0.000701, k = 0.024175
         4         5        37     1      120.265808      285.608532    ;  uncertainty theta = 0.001745, k = 0.033085
         5         4        24     1      120.259033      293.427356    ;  uncertainty theta = 0.001811, k = 0.037698
         5         6        36     1      120.888817      287.245779    ;  uncertainty theta = 0.001542, k = 0.013291
         6         1        23     1      121.273697      283.831181    ;  uncertainty theta = 0.000857, k = 0.028135
         6         5        37     1      120.792526      288.101560    ;  uncertainty theta = 0.001324, k = 0.016925
         7         8         9     1      112.216797      502.290617    ;  uncertainty theta = 0.004617, k = 0.145476
         7         8        11     1      125.229591      511.287852    ;  uncertainty theta = 0.002990, k = 0.151372
         8         7        26     1      106.554855      363.177278    ;  uncertainty theta = 0.002786, k = 0.138911
         8         7        27     1      106.554855      363.177278    ;  uncertainty theta = 0.002786, k = 0.138911
         8         9        10     1      120.614548      440.796109    ;  uncertainty theta = 0.004012, k = 0.172541
         8         9        28     1      117.196327      261.372314    ;  uncertainty theta = 0.004501, k = 0.818476
         9         8        11     1      123.626053      776.518887    ;  uncertainty theta = 0.002086, k = 0.102648
         9        10        12     1      120.224754      768.711044    ;  uncertainty theta = 0.005858, k = 0.157945
         9        10        16     1      122.278137      533.311278    ;  uncertainty theta = 0.005250, k = 0.406084
        10         9        28     1      117.066086      336.130415    ;  uncertainty theta = 0.002657, k = 0.114965
        10        12        13     1      118.396202      413.897808    ;  uncertainty theta = 0.010734, k = 0.179891
        10        16        15     1      113.982933      516.057035    ;  uncertainty theta = 0.005279, k = 0.322192
        10        16        25     1      121.581772      266.638226    ;  uncertainty theta = 0.003427, k = 0.119353
        12        10        16     1      123.014938      557.585418    ;  uncertainty theta = 0.009119, k = 0.103918
        12        13        14     1      126.561401      519.298843    ;  uncertainty theta = 0.004561, k = 0.250377
        12        13        19     1      118.442764      605.400208    ;  uncertainty theta = 0.004270, k = 0.151631
        13        14        15     1      121.217224      479.784922    ;  uncertainty theta = 0.002823, k = 0.428578
        13        14        18     1      121.196121      385.989897    ;  uncertainty theta = 0.008969, k = 0.106773
        13        19        20     1      109.510338      497.766782    ;  uncertainty theta = 0.002796, k = 0.106304
        14        13        19     1      116.129417      472.792607    ;  uncertainty theta = 0.003388, k = 0.179404
        14        15        16     1      117.484253      427.730909    ;  uncertainty theta = 0.002903, k = 0.240097
        14        15        17     1      120.585167      576.926586    ;  uncertainty theta = 0.004519, k = 0.090792
        14        18        22     1      180.000000      241.307265    ;  uncertainty theta = 0.000000, k = 0.719628
        15        14        18     1      117.830177      369.460747    ;  uncertainty theta = 0.006627, k = 0.174269
        15        16        25     1      121.593590      279.201047    ;  uncertainty theta = 0.003701, k = 0.115080
        15        17        29     1      113.768478      388.852256    ;  uncertainty theta = 0.002252, k = 0.082774
        15        17        30     1      113.768478      388.852256    ;  uncertainty theta = 0.002252, k = 0.082774
        16        15        17     1      126.082375      568.295682    ;  uncertainty theta = 0.002505, k = 0.080621
        19        20        21     1      109.110901      620.838093    ;  uncertainty theta = 0.001375, k = 0.075038
        19        20        31     1      105.721962      414.764888    ;  uncertainty theta = 0.001556, k = 0.030033
        19        20        32     1      105.721962      414.764888    ;  uncertainty theta = 0.001556, k = 0.030033
        20        21        33     1      107.823227      406.328513    ;  uncertainty theta = 0.001985, k = 0.034929
        20        21        34     1      107.823227      406.328513    ;  uncertainty theta = 0.001985, k = 0.034929
        20        21        35     1      107.823227      406.328513    ;  uncertainty theta = 0.001985, k = 0.034929
        21        20        31     1      110.683975      420.952626    ;  uncertainty theta = 0.001109, k = 0.013076
        21        20        32     1      110.683975      420.952626    ;  uncertainty theta = 0.001109, k = 0.013076
        26         7        27     1      105.683571      312.191354    ;  uncertainty theta = 0.004042, k = 0.046922
        29        17        30     1      107.812782      286.090864    ;  uncertainty theta = 0.005516, k = 0.089415
        31        20        32     1      107.605186      326.746644    ;  uncertainty theta = 0.002467, k = 0.048865
        33        21        34     1      105.445511      313.896945    ;  uncertainty theta = 0.002263, k = 0.009799
        33        21        35     1      105.445511      313.896945    ;  uncertainty theta = 0.002263, k = 0.009799
        34        21        35     1      105.445511      313.896945    ;  uncertainty theta = 0.002263, k = 0.009799

[ dihedrals ] ; propers for gromacs 4.5 or higher, use funct 9
;       ai        aj        ak        al funct           phase               k        pn
         1         2         3         4     9        0.000000       -0.235803         1    ;  uncertainty k = 0.216970
         1         2         3         4     9      180.000000        7.463215         2    ;  uncertainty k = 0.486800
         1         2         3         4     9        0.000000        0.279193         3    ;  uncertainty k = 0.396821
         1         2         3         4     9      180.000000        1.125403         4    ;  uncertainty k = 0.387714
         1         2         3         7     9        0.000000        0.250028         1    ;  uncertainty k = 0.249371
         1         2         3         7     9      180.000000        7.155295         2    ;  uncertainty k = 0.357025
         1         2         3         7     9        0.000000        1.380042         3    ;  uncertainty k = 0.270848
         1         2         3         7     9      180.000000        1.621174         4    ;  uncertainty k = 0.296132
         1         6         5         4     9        0.000000        0.082398         1    ;  uncertainty k = 0.081324
         1         6         5         4     9      180.000000       15.278610         2    ;  uncertainty k = 0.339811
         1         6         5         4     9        0.000000       -1.314593         3    ;  uncertainty k = 0.418196
         1         6         5         4     9      180.000000        0.452512         4    ;  uncertainty k = 0.248738
         1         6         5        37     9        0.000000        0.056540         1    ;  uncertainty k = 0.111947
         1         6         5        37     9      180.000000        7.560076         2    ;  uncertainty k = 0.343740
         1         6         5        37     9        0.000000        1.468072         3    ;  uncertainty k = 0.298639
         1         6         5        37     9      180.000000        1.769588         4    ;  uncertainty k = 0.136875
         2         1         6         5     9        0.000000        0.043178         1    ;  uncertainty k = 0.069493
         2         1         6         5     9      180.000000       14.791060         2    ;  uncertainty k = 0.186148
         2         1         6         5     9        0.000000       -1.136089         3    ;  uncertainty k = 0.548675
         2         1         6         5     9      180.000000        0.678108         4    ;  uncertainty k = 0.242041
         2         1         6        36     9        0.000000        0.080815         1    ;  uncertainty k = 0.140368
         2         1         6        36     9      180.000000        7.606140         2    ;  uncertainty k = 0.351447
         2         1         6        36     9        0.000000        1.403375         3    ;  uncertainty k = 0.253994
         2         1         6        36     9      180.000000        1.818574         4    ;  uncertainty k = 0.178261
         2         3         4         5     9        0.000000       -0.147330         1    ;  uncertainty k = 0.217346
         2         3         4         5     9      180.000000       11.432072         2    ;  uncertainty k = 0.368325
         2         3         4         5     9        0.000000       -0.129482         3    ;  uncertainty k = 0.327889
         2         3         4         5     9      180.000000        1.050137         4    ;  uncertainty k = 0.311980
         2         3         4        24     9        0.000000        0.178257         1    ;  uncertainty k = 0.217556
         2         3         4        24     9      180.000000        7.631276         2    ;  uncertainty k = 0.400131
         2         3         4        24     9        0.000000        1.394980         3    ;  uncertainty k = 0.281489
         2         3         4        24     9      180.000000        1.689488         4    ;  uncertainty k = 0.186975
         2         3         7         8     9        0.000000        1.527826         1    ;  uncertainty k = 1.079211
         2         3         7         8     9      180.000000        1.254209         2    ;  uncertainty k = 0.497336
         2         3         7         8     9        0.000000        0.642212         3    ;  uncertainty k = 0.097437
         2         3         7         8     9      180.000000        0.227261         4    ;  uncertainty k = 0.128967
         2         3         7        26     9        0.000000       -0.622132         1    ;  uncertainty k = 0.329374
         2         3         7        26     9      180.000000        2.586282         2    ;  uncertainty k = 0.191312
         2         3         7        26     9        0.000000        0.279357         3    ;  uncertainty k = 0.117248
         2         3         7        26     9      180.000000        0.314193         4    ;  uncertainty k = 0.077119
         2         3         7        27     9        0.000000       -0.622132         1    ;  uncertainty k = 0.329374
         2         3         7        27     9      180.000000        2.586282         2    ;  uncertainty k = 0.191312
         2         3         7        27     9        0.000000        0.279357         3    ;  uncertainty k = 0.117248
         2         3         7        27     9      180.000000        0.314193         4    ;  uncertainty k = 0.077119
         3         2         1         6     9        0.000000        0.025245         1    ;  uncertainty k = 0.192019
         3         2         1         6     9      180.000000        9.315313         2    ;  uncertainty k = 0.381417
         3         2         1         6     9        0.000000        0.101985         3    ;  uncertainty k = 0.518530
         3         2         1         6     9      180.000000        1.133677         4    ;  uncertainty k = 0.336334
         3         2         1        23     9        0.000000        0.028988         1    ;  uncertainty k = 0.314551
         3         2         1        23     9      180.000000        6.245458         2    ;  uncertainty k = 0.809079
         3         2         1        23     9        0.000000        1.419037         3    ;  uncertainty k = 0.332031
         3         2         1        23     9      180.000000        1.482816         4    ;  uncertainty k = 0.143106
         3         4         5         6     9        0.000000       -0.112351         1    ;  uncertainty k = 0.155463
         3         4         5         6     9      180.000000       13.478696         2    ;  uncertainty k = 0.346298
         3         4         5         6     9        0.000000       -0.939114         3    ;  uncertainty k = 0.483563
         3         4         5         6     9      180.000000        0.746597         4    ;  uncertainty k = 0.236206
         3         4         5        37     9        0.000000        0.125332         1    ;  uncertainty k = 0.315994
         3         4         5        37     9      180.000000        7.083220         2    ;  uncertainty k = 0.446545
         3         4         5        37     9        0.000000        1.487570         3    ;  uncertainty k = 0.186817
         3         4         5        37     9      180.000000        1.775611         4    ;  uncertainty k = 0.112745
         3         7         8         9     9        0.000000       -0.948712         1    ;  uncertainty k = 0.487200
         3         7         8         9     9      180.000000        2.416511         2    ;  uncertainty k = 0.651467
         3         7         8         9     9        0.000000        0.514659         3    ;  uncertainty k = 0.073130
         3         7         8         9     9      180.000000        0.210002         4    ;  uncertainty k = 0.103122
         3         7         8        11     9        0.000000       -0.809998         1    ;  uncertainty k = 0.556278
         3         7         8        11     9      180.000000        4.362759         2    ;  uncertainty k = 0.384254
         3         7         8        11     9        0.000000        0.894741         3    ;  uncertainty k = 0.092990
         3         7         8        11     9      180.000000        0.430993         4    ;  uncertainty k = 0.141229
         4         3         2        38     9        0.000000       -0.105338         1    ;  uncertainty k = 0.135493
         4         3         2        38     9      180.000000        8.502512         2    ;  uncertainty k = 0.362480
         4         3         2        38     9        0.000000        1.455984         3    ;  uncertainty k = 0.329104
         4         3         2        38     9      180.000000        1.412707         4    ;  uncertainty k = 0.194971
         4         3         7         8     9        0.000000        0.242357         1    ;  uncertainty k = 0.541064
         4         3         7         8     9      180.000000        1.584540         2    ;  uncertainty k = 0.172737
         4         3         7         8     9        0.000000        0.377522         3    ;  uncertainty k = 0.199933
         4         3         7         8     9      180.000000        0.179715         4    ;  uncertainty k = 0.060498
         4         3         7        26     9        0.000000       -0.277188         1    ;  uncertainty k = 0.259351
         4         3         7        26     9      180.000000        2.232145         2    ;  uncertainty k = 0.105982
         4         3         7        26     9        0.000000        0.251838         3    ;  uncertainty k = 0.073886
         4         3         7        26     9      180.000000        0.181069         4    ;  uncertainty k = 0.035893
         4         3         7        27     9        0.000000       -0.277188         1    ;  uncertainty k = 0.259351
         4         3         7        27     9      180.000000        2.232145         2    ;  uncertainty k = 0.105982
         4         3         7        27     9        0.000000        0.251838         3    ;  uncertainty k = 0.073886
         4         3         7        27     9      180.000000        0.181069         4    ;  uncertainty k = 0.035893
         4         5         6        36     9        0.000000        0.084929         1    ;  uncertainty k = 0.101217
         4         5         6        36     9      180.000000        7.581783         2    ;  uncertainty k = 0.301167
         4         5         6        36     9        0.000000        1.450018         3    ;  uncertainty k = 0.281824
         4         5         6        36     9      180.000000        1.761171         4    ;  uncertainty k = 0.176982
         5         4         3         7     9        0.000000        0.033295         1    ;  uncertainty k = 0.200970
         5         4         3         7     9      180.000000        9.378262         2    ;  uncertainty k = 0.427624
         5         4         3         7     9        0.000000        1.495131         3    ;  uncertainty k = 0.241494
         5         4         3         7     9      180.000000        1.770401         4    ;  uncertainty k = 0.166809
         5         6         1        23     9        0.000000        0.041540         1    ;  uncertainty k = 0.056305
         5         6         1        23     9      180.000000        7.734992         2    ;  uncertainty k = 0.287096
         5         6         1        23     9        0.000000        1.446827         3    ;  uncertainty k = 0.321160
         5         6         1        23     9      180.000000        1.795212         4    ;  uncertainty k = 0.201459
         6         1         2        38     9        0.000000       -0.072791         1    ;  uncertainty k = 0.223572
         6         1         2        38     9      180.000000        9.711088         2    ;  uncertainty k = 0.562877
         6         1         2        38     9        0.000000        1.524435         3    ;  uncertainty k = 0.408694
         6         1         2        38     9      180.000000        1.623460         4    ;  uncertainty k = 0.123041
         6         5         4        24     9        0.000000        0.088409         1    ;  uncertainty k = 0.065906
         6         5         4        24     9      180.000000        7.827687         2    ;  uncertainty k = 0.348680
         6         5         4        24     9        0.000000        1.400054         3    ;  uncertainty k = 0.318679
         6         5         4        24     9      180.000000        1.832763         4    ;  uncertainty k = 0.148424
         7         3         2        38     9        0.000000       -0.024543         1    ;  uncertainty k = 0.287931
         7         3         2        38     9      180.000000        8.369371         2    ;  uncertainty k = 0.230060
         7         3         2        38     9        0.000000        1.088853         3    ;  uncertainty k = 0.326311
         7         3         2        38     9      180.000000        1.341712         4    ;  uncertainty k = 0.273811
         7         3         4        24     9        0.000000       -0.152039         1    ;  uncertainty k = 0.213686
         7         3         4        24     9      180.000000        7.567836         2    ;  uncertainty k = 0.276199
         7         3         4        24     9        0.000000        0.631427         3    ;  uncertainty k = 0.409288
         7         3         4        24     9      180.000000        1.204409         4    ;  uncertainty k = 0.234531
         7         8         9        10     9        0.000000        4.762324         1    ;  uncertainty k = 0.663658
         7         8         9        10     9      180.000000        7.934385         2    ;  uncertainty k = 0.503690
         7         8         9        10     9        0.000000        0.835044         3    ;  uncertainty k = 0.335855
         7         8         9        10     9      180.000000       -0.223930         4    ;  uncertainty k = 0.228564
         7         8         9        28     9        0.000000        0.567865         1    ;  uncertainty k = 0.358692
         7         8         9        28     9      180.000000        5.597089         2    ;  uncertainty k = 0.546033
         7         8         9        28     9        0.000000        1.663161         3    ;  uncertainty k = 0.175680
         7         8         9        28     9      180.000000        0.015628         4    ;  uncertainty k = 0.289036
         8         9        10        12     9        0.000000        2.167736         1    ;  uncertainty k = 1.320539
         8         9        10        12     9      180.000000        7.003850         2    ;  uncertainty k = 0.377172
         8         9        10        12     9        0.000000        0.905613         3    ;  uncertainty k = 0.194159
         8         9        10        12     9      180.000000       -0.252412         4    ;  uncertainty k = 0.230230
         8         9        10        16     9        0.000000       -0.218603         1    ;  uncertainty k = 1.312958
         8         9        10        16     9      180.000000        5.505186         2    ;  uncertainty k = 0.225743
         8         9        10        16     9        0.000000        0.529093         3    ;  uncertainty k = 0.127562
         8         9        10        16     9      180.000000       -0.241625         4    ;  uncertainty k = 0.177424
         9         8         7        26     9        0.000000       -1.247874         1    ;  uncertainty k = 0.197859
         9         8         7        26     9      180.000000        2.867583         2    ;  uncertainty k = 0.310251
         9         8         7        26     9        0.000000        0.245358         3    ;  uncertainty k = 0.087054
         9         8         7        26     9      180.000000        0.074859         4    ;  uncertainty k = 0.096244
         9         8         7        27     9        0.000000       -1.247874         1    ;  uncertainty k = 0.197859
         9         8         7        27     9      180.000000        2.867583         2    ;  uncertainty k = 0.310251
         9         8         7        27     9        0.000000        0.245358         3    ;  uncertainty k = 0.087054
         9         8         7        27     9      180.000000        0.074859         4    ;  uncertainty k = 0.096244
         9        10        12        13     9        0.000000       -0.287057         1    ;  uncertainty k = 0.846068
         9        10        12        13     9      180.000000       14.346967         2    ;  uncertainty k = 0.356749
         9        10        12        13     9        0.000000        1.990210         3    ;  uncertainty k = 0.555842
         9        10        12        13     9      180.000000        1.639940         4    ;  uncertainty k = 0.535044
         9        10        16        15     9        0.000000        0.126116         1    ;  uncertainty k = 0.694904
         9        10        16        15     9      180.000000       10.311010         2    ;  uncertainty k = 0.354821
         9        10        16        15     9        0.000000        1.009975         3    ;  uncertainty k = 0.371826
         9        10        16        15     9      180.000000        1.171697         4    ;  uncertainty k = 0.312850
         9        10        16        25     9        0.000000       -0.283095         1    ;  uncertainty k = 0.411758
         9        10        16        25     9      180.000000        7.046675         2    ;  uncertainty k = 0.484512
         9        10        16        25     9        0.000000        1.005820         3    ;  uncertainty k = 0.162759
         9        10        16        25     9      180.000000        0.948056         4    ;  uncertainty k = 0.400045
        10         9         8        11     9        0.000000        3.996699         1    ;  uncertainty k = 0.550825
        10         9         8        11     9      180.000000       17.077192         2    ;  uncertainty k = 0.254677
        10         9         8        11     9        0.000000        0.601694         3    ;  uncertainty k = 0.147192
        10         9         8        11     9      180.000000       -1.274066         4    ;  uncertainty k = 0.206962
        10        12        13        14     9        0.000000       -0.134451         1    ;  uncertainty k = 0.748386
        10        12        13        14     9      180.000000        9.912518         2    ;  uncertainty k = 0.360617
        10        12        13        14     9        0.000000        1.572808         3    ;  uncertainty k = 0.519990
        10        12        13        14     9      180.000000        1.200339         4    ;  uncertainty k = 0.408118
        10        12        13        19     9        0.000000        0.502342         1    ;  uncertainty k = 1.201616
        10        12        13        19     9      180.000000       14.176232         2    ;  uncertainty k = 0.344464
        10        12        13        19     9        0.000000        2.364145         3    ;  uncertainty k = 0.531148
        10        12        13        19     9      180.000000        1.505332         4    ;  uncertainty k = 0.188230
        10        16        15        14     9        0.000000       -0.073776         1    ;  uncertainty k = 0.309551
        10        16        15        14     9      180.000000        7.996001         2    ;  uncertainty k = 0.986235
        10        16        15        14     9        0.000000        0.157134         3    ;  uncertainty k = 0.423554
        10        16        15        14     9      180.000000        1.240112         4    ;  uncertainty k = 0.344697
        10        16        15        17     9        0.000000       -0.330766         1    ;  uncertainty k = 0.831441
        10        16        15        17     9      180.000000        9.847893         2    ;  uncertainty k = 0.474596
        10        16        15        17     9        0.000000        0.856731         3    ;  uncertainty k = 0.349573
        10        16        15        17     9      180.000000        1.151218         4    ;  uncertainty k = 0.263543
        11         8         7        26     9        0.000000        0.096467         1    ;  uncertainty k = 0.256298
        11         8         7        26     9      180.000000        4.110194         2    ;  uncertainty k = 0.340394
        11         8         7        26     9        0.000000        0.616697         3    ;  uncertainty k = 0.088671
        11         8         7        26     9      180.000000        0.289127         4    ;  uncertainty k = 0.054283
        11         8         7        27     9        0.000000        0.096467         1    ;  uncertainty k = 0.256298
        11         8         7        27     9      180.000000        4.110194         2    ;  uncertainty k = 0.340394
        11         8         7        27     9        0.000000        0.616697         3    ;  uncertainty k = 0.088671
        11         8         7        27     9      180.000000        0.289127         4    ;  uncertainty k = 0.054283
        11         8         9        28     9        0.000000        2.771286         1    ;  uncertainty k = 0.911674
        11         8         9        28     9      180.000000       13.952567         2    ;  uncertainty k = 0.334342
        11         8         9        28     9        0.000000        1.104720         3    ;  uncertainty k = 0.138524
        11         8         9        28     9      180.000000       -0.373050         4    ;  uncertainty k = 0.209014
        12        10         9        28     9        0.000000        7.193412         1    ;  uncertainty k = 0.462281
        12        10         9        28     9      180.000000        5.163654         2    ;  uncertainty k = 0.593263
        12        10         9        28     9        0.000000        0.023637         3    ;  uncertainty k = 0.285850
        12        10         9        28     9      180.000000        0.083833         4    ;  uncertainty k = 0.229426
        12        10        16        15     9        0.000000       -0.104497         1    ;  uncertainty k = 0.398292
        12        10        16        15     9      180.000000       11.295169         2    ;  uncertainty k = 0.714584
        12        10        16        15     9        0.000000       -0.676779         3    ;  uncertainty k = 0.671303
        12        10        16        15     9      180.000000        1.074034         4    ;  uncertainty k = 0.238313
        12        10        16        25     9        0.000000        0.361026         1    ;  uncertainty k = 0.745384
        12        10        16        25     9      180.000000        8.722461         2    ;  uncertainty k = 0.756875
        12        10        16        25     9        0.000000        1.235261         3    ;  uncertainty k = 0.310839
        12        10        16        25     9      180.000000        1.393341         4    ;  uncertainty k = 0.262392
        12        13        14        15     9        0.000000       -0.232504         1    ;  uncertainty k = 0.605166
        12        13        14        15     9      180.000000        6.713868         2    ;  uncertainty k = 1.045405
        12        13        14        15     9        0.000000       -0.187477         3    ;  uncertainty k = 0.207869
        12        13        14        15     9      180.000000        0.982166         4    ;  uncertainty k = 0.322222
        12        13        14        18     9        0.000000       -0.307075         1    ;  uncertainty k = 0.725834
        12        13        14        18     9      180.000000        8.809723         2    ;  uncertainty k = 0.975615
        12        13        14        18     9        0.000000        0.773771         3    ;  uncertainty k = 0.371796
        12        13        14        18     9      180.000000        0.999096         4    ;  uncertainty k = 0.428189
        12        13        19        20     9        0.000000        4.044461         1    ;  uncertainty k = 1.235908
        12        13        19        20     9      180.000000       11.441330         2    ;  uncertainty k = 0.111226
        12        13        19        20     9        0.000000        0.448241         3    ;  uncertainty k = 0.407084
        12        13        19        20     9      180.000000        0.151120         4    ;  uncertainty k = 0.132585
        13        12        10        16     9        0.000000       -0.316812         1    ;  uncertainty k = 1.246548
        13        12        10        16     9      180.000000       11.264849         2    ;  uncertainty k = 0.444789
        13        12        10        16     9        0.000000        0.995870         3    ;  uncertainty k = 0.423750
        13        12        10        16     9      180.000000        1.238036         4    ;  uncertainty k = 0.446611
        13        14        15        16     9        0.000000       -0.082073         1    ;  uncertainty k = 0.568705
        13        14        15        16     9      180.000000        6.238300         2    ;  uncertainty k = 1.292749
        13        14        15        16     9        0.000000        0.388475         3    ;  uncertainty k = 0.353584
        13        14        15        16     9      180.000000        1.227616         4    ;  uncertainty k = 0.243225
        13        14        15        17     9        0.000000       -0.727705         1    ;  uncertainty k = 0.553545
        13        14        15        17     9      180.000000        8.652593         2    ;  uncertainty k = 0.800092
        13        14        15        17     9        0.000000        0.735683         3    ;  uncertainty k = 0.183816
        13        14        15        17     9      180.000000        1.175797         4    ;  uncertainty k = 0.400624
        13        14        18        22     9        0.000000        0.000000         1    ;  uncertainty k = 0.000000
        13        14        18        22     9      180.000000        0.000000         2    ;  uncertainty k = 0.000000
        13        14        18        22     9        0.000000        0.000000         3    ;  uncertainty k = 0.000000
        13        14        18        22     9      180.000000        0.000000         4    ;  uncertainty k = 0.000000
        13        19        20        21     9        0.000000       -3.636196         1    ;  uncertainty k = 1.243292
        13        19        20        21     9      180.000000        1.423504         2    ;  uncertainty k = 0.333090
        13        19        20        21     9        0.000000        0.287747         3    ;  uncertainty k = 0.256573
        13        19        20        21     9      180.000000        0.676530         4    ;  uncertainty k = 0.137637
        13        19        20        31     9        0.000000        2.322710         1    ;  uncertainty k = 0.540626
        13        19        20        31     9      180.000000       -0.344542         2    ;  uncertainty k = 0.276977
        13        19        20        31     9        0.000000        0.082814         3    ;  uncertainty k = 0.079800
        13        19        20        31     9      180.000000        0.383140         4    ;  uncertainty k = 0.058960
        13        19        20        32     9        0.000000        2.322710         1    ;  uncertainty k = 0.540626
        13        19        20        32     9      180.000000       -0.344542         2    ;  uncertainty k = 0.276977
        13        19        20        32     9        0.000000        0.082814         3    ;  uncertainty k = 0.079800
        13        19        20        32     9      180.000000        0.383140         4    ;  uncertainty k = 0.058960
        14        13        19        20     9        0.000000       -0.309656         1    ;  uncertainty k = 0.988155
        14        13        19        20     9      180.000000        8.894149         2    ;  uncertainty k = 0.507454
        14        13        19        20     9        0.000000        0.138335         3    ;  uncertainty k = 0.570538
        14        13        19        20     9      180.000000       -0.035457         4    ;  uncertainty k = 0.143247
        14        15        16        25     9        0.000000        0.248056         1    ;  uncertainty k = 0.958381
        14        15        16        25     9      180.000000        6.811149         2    ;  uncertainty k = 0.465255
        14        15        16        25     9        0.000000        1.363311         3    ;  uncertainty k = 0.334370
        14        15        16        25     9      180.000000        1.320741         4    ;  uncertainty k = 0.267576
        14        15        17        29     9        0.000000       16.179241         1    ;  uncertainty k = 0.226508
        14        15        17        29     9      180.000000        8.686178         2    ;  uncertainty k = 0.232167
        14        15        17        29     9        0.000000        0.910135         3    ;  uncertainty k = 0.213786
        14        15        17        29     9      180.000000       -0.131487         4    ;  uncertainty k = 0.109493
        14        15        17        30     9        0.000000       16.179241         1    ;  uncertainty k = 0.226508
        14        15        17        30     9      180.000000        8.686178         2    ;  uncertainty k = 0.232167
        14        15        17        30     9        0.000000        0.910135         3    ;  uncertainty k = 0.213786
        14        15        17        30     9      180.000000       -0.131487         4    ;  uncertainty k = 0.109493
        15        14        13        19     9        0.000000        0.070743         1    ;  uncertainty k = 0.686436
        15        14        13        19     9      180.000000        6.610358         2    ;  uncertainty k = 0.662532
        15        14        13        19     9        0.000000        1.068355         3    ;  uncertainty k = 0.327950
        15        14        13        19     9      180.000000        1.138642         4    ;  uncertainty k = 0.433194
        15        14        18        22     9        0.000000        0.000000         1    ;  uncertainty k = 0.000000
        15        14        18        22     9      180.000000        0.000000         2    ;  uncertainty k = 0.000000
        15        14        18        22     9        0.000000        0.000000         3    ;  uncertainty k = 0.000000
        15        14        18        22     9      180.000000        0.000000         4    ;  uncertainty k = 0.000000
        16        10         9        28     9        0.000000        0.996703         1    ;  uncertainty k = 1.088402
        16        10         9        28     9      180.000000        5.158411         2    ;  uncertainty k = 0.639236
        16        10         9        28     9        0.000000        1.415645         3    ;  uncertainty k = 0.264055
        16        10         9        28     9      180.000000        0.157366         4    ;  uncertainty k = 0.160041
        16        15        14        18     9        0.000000        0.118231         1    ;  uncertainty k = 0.663075
        16        15        14        18     9      180.000000        7.761016         2    ;  uncertainty k = 0.752747
        16        15        14        18     9        0.000000        0.963725         3    ;  uncertainty k = 0.321347
        16        15        14        18     9      180.000000        1.184081         4    ;  uncertainty k = 0.547084
        16        15        17        29     9        0.000000       10.150943         1    ;  uncertainty k = 0.373654
        16        15        17        29     9      180.000000        9.585958         2    ;  uncertainty k = 0.358657
        16        15        17        29     9        0.000000        0.834747         3    ;  uncertainty k = 0.211714
        16        15        17        29     9      180.000000       -0.348757         4    ;  uncertainty k = 0.221362
        16        15        17        30     9        0.000000       10.150943         1    ;  uncertainty k = 0.373654
        16        15        17        30     9      180.000000        9.585958         2    ;  uncertainty k = 0.358657
        16        15        17        30     9        0.000000        0.834747         3    ;  uncertainty k = 0.211714
        16        15        17        30     9      180.000000       -0.348757         4    ;  uncertainty k = 0.221362
        17        15        14        18     9        0.000000       -0.379135         1    ;  uncertainty k = 0.501361
        17        15        14        18     9      180.000000       10.387938         2    ;  uncertainty k = 0.380197
        17        15        14        18     9        0.000000        0.811351         3    ;  uncertainty k = 0.545627
        17        15        14        18     9      180.000000        0.962118         4    ;  uncertainty k = 0.290345
        17        15        16        25     9        0.000000       -0.546000         1    ;  uncertainty k = 0.474114
        17        15        16        25     9      180.000000        7.797048         2    ;  uncertainty k = 0.566356
        17        15        16        25     9        0.000000        0.717830         3    ;  uncertainty k = 0.278527
        17        15        16        25     9      180.000000        0.908902         4    ;  uncertainty k = 0.384357
        18        14        13        19     9        0.000000       -0.590020         1    ;  uncertainty k = 0.555767
        18        14        13        19     9      180.000000        9.321267         2    ;  uncertainty k = 0.983764
        18        14        13        19     9        0.000000        0.830295         3    ;  uncertainty k = 0.529237
        18        14        13        19     9      180.000000        0.902366         4    ;  uncertainty k = 0.417523
        19        20        21        33     9        0.000000       -0.903707         1    ;  uncertainty k = 0.401255
        19        20        21        33     9      180.000000       -3.423220         2    ;  uncertainty k = 0.318602
        19        20        21        33     9        0.000000        1.623618         3    ;  uncertainty k = 0.078292
        19        20        21        33     9      180.000000       -0.201488         4    ;  uncertainty k = 0.051868
        19        20        21        34     9        0.000000       -0.903707         1    ;  uncertainty k = 0.401255
        19        20        21        34     9      180.000000       -3.423220         2    ;  uncertainty k = 0.318602
        19        20        21        34     9        0.000000        1.623618         3    ;  uncertainty k = 0.078292
        19        20        21        34     9      180.000000       -0.201488         4    ;  uncertainty k = 0.051868
        19        20        21        35     9        0.000000       -0.903707         1    ;  uncertainty k = 0.401255
        19        20        21        35     9      180.000000       -3.423220         2    ;  uncertainty k = 0.318602
        19        20        21        35     9        0.000000        1.623618         3    ;  uncertainty k = 0.078292
        19        20        21        35     9      180.000000       -0.201488         4    ;  uncertainty k = 0.051868
        23         1         2        38     9        0.000000       -0.116616         1    ;  uncertainty k = 0.378546
        23         1         2        38     9      180.000000        7.653322         2    ;  uncertainty k = 0.377013
        23         1         2        38     9        0.000000        0.631984         3    ;  uncertainty k = 0.295516
        23         1         2        38     9      180.000000        1.042253         4    ;  uncertainty k = 0.204208
        23         1         6        36     9        0.000000       -0.033584         1    ;  uncertainty k = 0.075272
        23         1         6        36     9      180.000000        7.661472         2    ;  uncertainty k = 0.452231
        23         1         6        36     9        0.000000       -0.435640         3    ;  uncertainty k = 0.227063
        23         1         6        36     9      180.000000        0.065357         4    ;  uncertainty k = 0.140352
        24         4         5        37     9        0.000000       -0.019493         1    ;  uncertainty k = 0.033928
        24         4         5        37     9      180.000000        7.691899         2    ;  uncertainty k = 0.281341
        24         4         5        37     9        0.000000       -0.444058         3    ;  uncertainty k = 0.272028
        24         4         5        37     9      180.000000        0.127097         4    ;  uncertainty k = 0.122204
        31        20        21        33     9        0.000000        0.029588         1    ;  uncertainty k = 0.169406
        31        20        21        33     9      180.000000       -0.158076         2    ;  uncertainty k = 0.254590
        31        20        21        33     9        0.000000        0.680966         3    ;  uncertainty k = 0.039021
        31        20        21        33     9      180.000000       -0.063667         4    ;  uncertainty k = 0.062459
        31        20        21        34     9        0.000000        0.029588         1    ;  uncertainty k = 0.169406
        31        20        21        34     9      180.000000       -0.158076         2    ;  uncertainty k = 0.254590
        31        20        21        34     9        0.000000        0.680966         3    ;  uncertainty k = 0.039021
        31        20        21        34     9      180.000000       -0.063667         4    ;  uncertainty k = 0.062459
        31        20        21        35     9        0.000000        0.029588         1    ;  uncertainty k = 0.169406
        31        20        21        35     9      180.000000       -0.158076         2    ;  uncertainty k = 0.254590
        31        20        21        35     9        0.000000        0.680966         3    ;  uncertainty k = 0.039021
        31        20        21        35     9      180.000000       -0.063667         4    ;  uncertainty k = 0.062459
        32        20        21        33     9        0.000000        0.029588         1    ;  uncertainty k = 0.169406
        32        20        21        33     9      180.000000       -0.158076         2    ;  uncertainty k = 0.254590
        32        20        21        33     9        0.000000        0.680966         3    ;  uncertainty k = 0.039021
        32        20        21        33     9      180.000000       -0.063667         4    ;  uncertainty k = 0.062459
        32        20        21        34     9        0.000000        0.029588         1    ;  uncertainty k = 0.169406
        32        20        21        34     9      180.000000       -0.158076         2    ;  uncertainty k = 0.254590
        32        20        21        34     9        0.000000        0.680966         3    ;  uncertainty k = 0.039021
        32        20        21        34     9      180.000000       -0.063667         4    ;  uncertainty k = 0.062459
        32        20        21        35     9        0.000000        0.029588         1    ;  uncertainty k = 0.169406
        32        20        21        35     9      180.000000       -0.158076         2    ;  uncertainty k = 0.254590
        32        20        21        35     9        0.000000        0.680966         3    ;  uncertainty k = 0.039021
        32        20        21        35     9      180.000000       -0.063667         4    ;  uncertainty k = 0.062459
        36         6         5        37     9        0.000000        0.005859         1    ;  uncertainty k = 0.068792
        36         6         5        37     9      180.000000        7.562848         2    ;  uncertainty k = 0.432331
        36         6         5        37     9        0.000000       -0.419431         3    ;  uncertainty k = 0.297521
        36         6         5        37     9      180.000000        0.032977         4    ;  uncertainty k = 0.175130

[ dihedrals ] ; impropers
;       ai        aj        ak        al funct           phase               k        pn
         1         2         6        23     4      180.000000        3.666882         2    ;  uncertainty k = 0.096401
         1         6        23         2     4      180.000000        3.666882         2    ;  uncertainty k = 0.096401
         1        23         2         6     4      180.000000        3.666882         2    ;  uncertainty k = 0.096401
         2         1         3        38     4      180.000000       13.808313         2    ;  uncertainty k = 0.123291
         2         3        38         1     4      180.000000       13.808313         2    ;  uncertainty k = 0.123291
         2        38         1         3     4      180.000000       13.808313         2    ;  uncertainty k = 0.123291
         3         2         4         7     4      180.000000       13.449865         2    ;  uncertainty k = 0.132759
         3         4         7         2     4      180.000000       13.449865         2    ;  uncertainty k = 0.132759
         3         7         2         4     4      180.000000       13.449865         2    ;  uncertainty k = 0.132759
         4         3         5        24     4      180.000000        4.297937         2    ;  uncertainty k = 0.078853
         4         5        24         3     4      180.000000        4.297937         2    ;  uncertainty k = 0.078853
         4        24         3         5     4      180.000000        4.297937         2    ;  uncertainty k = 0.078853
         5         4         6        37     4      180.000000        4.232878         2    ;  uncertainty k = 0.087875
         5         6        37         4     4      180.000000        4.232878         2    ;  uncertainty k = 0.087875
         5        37         4         6     4      180.000000        4.232878         2    ;  uncertainty k = 0.087875
         6         1         5        36     4      180.000000        4.333046         2    ;  uncertainty k = 0.146954
         6         5        36         1     4      180.000000        4.333046         2    ;  uncertainty k = 0.146954
         6        36         1         5     4      180.000000        4.333046         2    ;  uncertainty k = 0.146954
         8         7         9        11     4      180.000000       54.628883         2    ;  uncertainty k = 0.009934
         8         9        11         7     4      180.000000       54.628883         2    ;  uncertainty k = 0.009934
         8        11         7         9     4      180.000000       54.628883         2    ;  uncertainty k = 0.009934
         9         8        10        28     4      180.000000        0.393644         2    ;  uncertainty k = 0.693722
         9        10        28         8     4      180.000000        0.393644         2    ;  uncertainty k = 0.693722
         9        28         8        10     4      180.000000        0.393644         2    ;  uncertainty k = 0.693722
        10         9        12        16     4      180.000000       30.056377         2    ;  uncertainty k = 0.135424
        10        12        16         9     4      180.000000       30.056377         2    ;  uncertainty k = 0.135424
        10        16         9        12     4      180.000000       30.056377         2    ;  uncertainty k = 0.135424
        13        12        14        19     4      180.000000       32.779551         2    ;  uncertainty k = 0.072320
        13        14        19        12     4      180.000000       32.779551         2    ;  uncertainty k = 0.072320
        13        19        12        14     4      180.000000       32.779551         2    ;  uncertainty k = 0.072320
        14        13        15        18     4      180.000000        5.427422         2    ;  uncertainty k = 0.449847
        14        15        18        13     4      180.000000        5.427422         2    ;  uncertainty k = 0.449847
        14        18        13        15     4      180.000000        5.427422         2    ;  uncertainty k = 0.449847
        15        14        16        17     4      180.000000       26.449005         2    ;  uncertainty k = 0.108353
        15        16        17        14     4      180.000000       26.449005         2    ;  uncertainty k = 0.108353
        15        17        14        16     4      180.000000       26.449005         2    ;  uncertainty k = 0.108353
        16        10        15        25     4      180.000000        0.521319         2    ;  uncertainty k = 0.605740
        16        15        25        10     4      180.000000        0.521319         2    ;  uncertainty k = 0.605740
        16        25        10        15     4      180.000000        0.521319         2    ;  uncertainty k = 0.605740

[ pairs ]
;       ai        aj funct
         1         4     1
         1         7     1
         1        37     1
         2         5     1
         2         8     1
         2        24     1
         2        26     1
         2        27     1
         2        36     1
         3         6     1
         3         9     1
         3        11     1
         3        23     1
         3        37     1
         4         8     1
         4        26     1
         4        27     1
         4        36     1
         4        38     1
         5         7     1
         5        23     1
         6        24     1
         6        38     1
         7        10     1
         7        24     1
         7        28     1
         7        38     1
         8        12     1
         8        16     1
         9        13     1
         9        15     1
         9        25     1
         9        26     1
         9        27     1
        10        11     1
        10        14     1
        10        17     1
        10        19     1
        11        26     1
        11        27     1
        11        28     1
        12        15     1
        12        18     1
        12        20     1
        12        25     1
        12        28     1
        13        16     1
        13        17     1
        13        21     1
        13        22     1
        13        31     1
        13        32     1
        14        20     1
        14        25     1
        14        29     1
        14        30     1
        15        19     1
        15        22     1
        16        18     1
        16        28     1
        16        29     1
        16        30     1
        17        18     1
        17        25     1
        18        19     1
        19        33     1
        19        34     1
        19        35     1
        23        36     1
        23        38     1
        24        37     1
        31        33     1
        31        34     1
        31        35     1
        32        33     1
        32        34     1
        32        35     1
        36        37     1
