; ITP file created by ByteFF-joint-25, 2026-02-17 09:10:12.194615

[ atomtypes ]
;name           bonded.type        at.num        mass        charge   ptype           sigma         epsilon
 c0bf                                   6      0.0000       0.00000       A     3.31520e-01     4.13361e-01    ;  uncertainty sigma = 0.000004, epsilon = 0.000533
 c1bf                                   6      0.0000       0.00000       A     3.31515e-01     4.13256e-01    ;  uncertainty sigma = 0.000005, epsilon = 0.000601
 c2bf                                   6      0.0000       0.00000       A     3.31545e-01     4.13045e-01    ;  uncertainty sigma = 0.000013, epsilon = 0.000673
 c3bf                                   6      0.0000       0.00000       A     3.31523e-01     4.13245e-01    ;  uncertainty sigma = 0.000006, epsilon = 0.000750
 c4bf                                   6      0.0000       0.00000       A     3.31514e-01     4.13218e-01    ;  uncertainty sigma = 0.000004, epsilon = 0.000680
 c5bf                                   6      0.0000       0.00000       A     3.31523e-01     4.13289e-01    ;  uncertainty sigma = 0.000004, epsilon = 0.000540
 c6bf                                   6      0.0000       0.00000       A     3.39768e-01     4.51056e-01    ;  uncertainty sigma = 0.000007, epsilon = 0.001859
 c7bf                                   6      0.0000       0.00000       A     3.31534e-01     4.13029e-01    ;  uncertainty sigma = 0.000027, epsilon = 0.001472
 n8bf                                   7      0.0000       0.00000       A     3.26977e-01     4.89929e-01    ;  uncertainty sigma = 0.000038, epsilon = 0.001227
 c9bf                                   6      0.0000       0.00000       A     3.31566e-01     4.12139e-01    ;  uncertainty sigma = 0.000019, epsilon = 0.000481
 o10bf                                  8      0.0000       0.00000       A     3.04854e-01     6.12416e-01    ;  uncertainty sigma = 0.000011, epsilon = 0.001606
 n11bf                                  7      0.0000       0.00000       A     3.38402e-01     3.92745e-01    ;  uncertainty sigma = 0.000021, epsilon = 0.001055
 c12bf                                  6      0.0000       0.00000       A     3.31495e-01     4.13843e-01    ;  uncertainty sigma = 0.000024, epsilon = 0.001862
 c13bf                                  6      0.0000       0.00000       A     3.31496e-01     4.13013e-01    ;  uncertainty sigma = 0.000032, epsilon = 0.002367
 c14bf                                  6      0.0000       0.00000       A     3.31518e-01     4.13443e-01    ;  uncertainty sigma = 0.000027, epsilon = 0.001034
 c15bf                                  6      0.0000       0.00000       A     3.31542e-01     4.13066e-01    ;  uncertainty sigma = 0.000013, epsilon = 0.002464
 n16bf                                  7      0.0000       0.00000       A     3.36843e-01     4.68873e-01    ;  uncertainty sigma = 0.000068, epsilon = 0.003219
 c17bf                                  6      0.0000       0.00000       A     3.47912e-01     6.68669e-01    ;  uncertainty sigma = 0.000017, epsilon = 0.001390
 o18bf                                  8      0.0000       0.00000       A     3.15569e-01     3.03059e-01    ;  uncertainty sigma = 0.000053, epsilon = 0.002176
 c19bf                                  6      0.0000       0.00000       A     3.39764e-01     4.50318e-01    ;  uncertainty sigma = 0.000014, epsilon = 0.000877
 c20bf                                  6      0.0000       0.00000       A     3.39775e-01     4.50959e-01    ;  uncertainty sigma = 0.000006, epsilon = 0.000493
 n21bf                                  7      0.0000       0.00000       A     3.27325e-01     4.59401e-01    ;  uncertainty sigma = 0.000040, epsilon = 0.001413
 h22bf                                  1      0.0000       0.00000       A     2.62562e-01     6.70208e-02    ;  uncertainty sigma = 0.000009, epsilon = 0.000413
 h23bf                                  1      0.0000       0.00000       A     2.62562e-01     6.72221e-02    ;  uncertainty sigma = 0.000007, epsilon = 0.000620
 h24bf                                  1      0.0000       0.00000       A     2.62548e-01     6.68678e-02    ;  uncertainty sigma = 0.000027, epsilon = 0.000692
 h25bf                                  1      0.0000       0.00000       A     2.60021e-01     8.73021e-02    ;  uncertainty sigma = 0.000012, epsilon = 0.000495
 h26bf                                  1      0.0000       0.00000       A     2.60021e-01     8.73021e-02    ;  uncertainty sigma = 0.000012, epsilon = 0.000495
 h27bf                                  1      0.0000       0.00000       A     1.10687e-01     4.15498e-02    ;  uncertainty sigma = 0.000117, epsilon = 0.001414
 h28bf                                  1      0.0000       0.00000       A     1.10684e-01     4.11855e-02    ;  uncertainty sigma = 0.000050, epsilon = 0.000660
 h29bf                                  1      0.0000       0.00000       A     1.10684e-01     4.11855e-02    ;  uncertainty sigma = 0.000050, epsilon = 0.000660
 h30bf                                  1      0.0000       0.00000       A     2.42228e-01     8.67631e-02    ;  uncertainty sigma = 0.000026, epsilon = 0.000627
 h31bf                                  1      0.0000       0.00000       A     2.42228e-01     8.67631e-02    ;  uncertainty sigma = 0.000026, epsilon = 0.000627
 h32bf                                  1      0.0000       0.00000       A     2.60025e-01     8.66249e-02    ;  uncertainty sigma = 0.000011, epsilon = 0.000873
 h33bf                                  1      0.0000       0.00000       A     2.60025e-01     8.66249e-02    ;  uncertainty sigma = 0.000011, epsilon = 0.000873
 h34bf                                  1      0.0000       0.00000       A     2.60025e-01     8.66249e-02    ;  uncertainty sigma = 0.000011, epsilon = 0.000873
 h35bf                                  1      0.0000       0.00000       A     2.62563e-01     6.71300e-02    ;  uncertainty sigma = 0.000007, epsilon = 0.000527
 h36bf                                  1      0.0000       0.00000       A     2.62565e-01     6.71218e-02    ;  uncertainty sigma = 0.000005, epsilon = 0.000518
 c37bf                                  6      0.0000       0.00000       A     3.39774e-01     4.50863e-01    ;  uncertainty sigma = 0.000004, epsilon = 0.000451
 h38bf                                  1      0.0000       0.00000       A     2.60034e-01     8.66893e-02    ;  uncertainty sigma = 0.000006, epsilon = 0.000488
 h39bf                                  1      0.0000       0.00000       A     2.60034e-01     8.66893e-02    ;  uncertainty sigma = 0.000006, epsilon = 0.000488
 h40bf                                  1      0.0000       0.00000       A     2.60034e-01     8.66895e-02    ;  uncertainty sigma = 0.000006, epsilon = 0.000488

[ moleculetype ]
;name             nrexcl
 MOL                   3

[ atoms ]
;       nr            type      resi   res      atom      cgnr      charge          mass ; qtot
         1            c0bf         1   UNL        c0         1    -0.12610       12.0110 ; qtot   -0.126
         2            c1bf         1   UNL        c1         2    -0.12284       12.0110 ; qtot   -0.249
         3            c2bf         1   UNL        c2         3    -0.09594       12.0110 ; qtot   -0.345
         4            c3bf         1   UNL        c3         4    -0.12006       12.0110 ; qtot   -0.465
         5            c4bf         1   UNL        c4         5    -0.07558       12.0110 ; qtot   -0.541
         6            c5bf         1   UNL        c5         6    -0.12889       12.0110 ; qtot   -0.669
         7            c6bf         1   UNL        c6         7    -0.10848       12.0110 ; qtot   -0.778
         8            c7bf         1   UNL        c7         8     0.68326       12.0110 ; qtot   -0.095
         9            n8bf         1   UNL        n8         9    -0.56634       14.0070 ; qtot   -0.661
        10            c9bf         1   UNL        c9        10     0.61630       12.0110 ; qtot   -0.045
        11           o10bf         1   UNL       o10        11    -0.55821       15.9990 ; qtot   -0.603
        12           n11bf         1   UNL       n11        12    -0.81283       14.0070 ; qtot   -1.416
        13           c12bf         1   UNL       c12        13     0.74893       12.0110 ; qtot   -0.667
        14           c13bf         1   UNL       c13        14    -0.27562       12.0110 ; qtot   -0.942
        15           c14bf         1   UNL       c14        15     0.29241       12.0110 ; qtot   -0.650
        16           c15bf         1   UNL       c15        16    -0.37328       12.0110 ; qtot   -1.023
        17           n16bf         1   UNL       n16        17    -0.84340       14.0070 ; qtot   -1.867
        18           c17bf         1   UNL       c17        18     0.25799       12.0110 ; qtot   -1.609
        19           o18bf         1   UNL       o18        19    -0.43968       15.9990 ; qtot   -2.048
        20           c19bf         1   UNL       c19        20     0.14806       12.0110 ; qtot   -1.900
        21           c20bf         1   UNL       c20        21    -0.10946       12.0110 ; qtot   -2.010
        22           n21bf         1   UNL       n21        22    -0.37938       14.0070 ; qtot   -2.389
        23           h22bf         1   UNL       h22        23     0.12977        1.0080 ; qtot   -2.259
        24           h23bf         1   UNL       h23        24     0.13370        1.0080 ; qtot   -2.126
        25           h24bf         1   UNL       h24        25     0.17105        1.0080 ; qtot   -1.955
        26           h25bf         1   UNL       h25        26     0.07954        1.0080 ; qtot   -1.875
        27           h26bf         1   UNL       h26        27     0.07954        1.0080 ; qtot   -1.796
        28           h27bf         1   UNL       h27        28     0.34304        1.0080 ; qtot   -1.453
        29           h28bf         1   UNL       h28        29     0.42823        1.0080 ; qtot   -1.024
        30           h29bf         1   UNL       h29        30     0.42823        1.0080 ; qtot   -0.596
        31           h30bf         1   UNL       h30        31     0.05417        1.0080 ; qtot   -0.542
        32           h31bf         1   UNL       h31        32     0.05417        1.0080 ; qtot   -0.488
        33           h32bf         1   UNL       h32        33     0.04638        1.0080 ; qtot   -0.441
        34           h33bf         1   UNL       h33        34     0.04638        1.0080 ; qtot   -0.395
        35           h34bf         1   UNL       h34        35     0.04638        1.0080 ; qtot   -0.349
        36           h35bf         1   UNL       h35        36     0.13019        1.0080 ; qtot   -0.218
        37           h36bf         1   UNL       h36        37     0.13691        1.0080 ; qtot   -0.081
        38           c37bf         1   UNL       c37        38    -0.04813       12.0110 ; qtot   -0.130
        39           h38bf         1   UNL       h38        39     0.04320        1.0080 ; qtot   -0.086
        40           h39bf         1   UNL       h39        40     0.04320        1.0080 ; qtot   -0.043
        41           h40bf         1   UNL       h40        41     0.04319        1.0080 ; qtot   -0.000

[ bonds ]
;       ai        aj funct               r               k
         1         2     1        0.139649   369665.950879    ;  uncertainty r = 0.000032, k = 3.110584
         1         6     1        0.139674   369552.540576    ;  uncertainty r = 0.000024, k = 3.076019
         1        23     1        0.108830   334100.571875    ;  uncertainty r = 0.000008, k = 0.957909
         2         3     1        0.139926   356508.823535    ;  uncertainty r = 0.000032, k = 2.927952
         2        37     1        0.108872   333702.882471    ;  uncertainty r = 0.000028, k = 1.325919
         3         4     1        0.140004   353878.833252    ;  uncertainty r = 0.000037, k = 2.000287
         3         7     1        0.151320   234331.733301    ;  uncertainty r = 0.000048, k = 5.427075
         4         5     1        0.140127   352825.401953    ;  uncertainty r = 0.000024, k = 1.691066
         4        24     1        0.108935   333284.865527    ;  uncertainty r = 0.000017, k = 1.465985
         5         6     1        0.140159   352154.439941    ;  uncertainty r = 0.000020, k = 2.184805
         5        38     1        0.151197   252923.744873    ;  uncertainty r = 0.000014, k = 5.467465
         6        36     1        0.108886   334899.449268    ;  uncertainty r = 0.000010, k = 0.557305
         7         8     1        0.152866   203413.699609    ;  uncertainty r = 0.000085, k = 8.120030
         7        26     1        0.109565   312725.807031    ;  uncertainty r = 0.000033, k = 2.619343
         7        27     1        0.109565   312725.807031    ;  uncertainty r = 0.000033, k = 2.619343
         8         9     1        0.139076   380896.533154    ;  uncertainty r = 0.000162, k = 21.077752
         8        11     1        0.123374   718191.925098    ;  uncertainty r = 0.000078, k = 12.909147
         9        10     1        0.141552   453112.388477    ;  uncertainty r = 0.000171, k = 16.995177
         9        28     1        0.102183   460638.685352    ;  uncertainty r = 0.000033, k = 7.805120
        10        12     1        0.136164   462092.717285    ;  uncertainty r = 0.000237, k = 23.302980
        10        16     1        0.140146   393200.644434    ;  uncertainty r = 0.000118, k = 23.611463
        12        13     1        0.133170   365720.569629    ;  uncertainty r = 0.000147, k = 12.046313
        13        14     1        0.141968   371541.574951    ;  uncertainty r = 0.000143, k = 9.618441
        13        19     1        0.134001   309467.322949    ;  uncertainty r = 0.000208, k = 19.064272
        14        15     1        0.142732   398004.430078    ;  uncertainty r = 0.000133, k = 15.342148
        14        18     1        0.142633   330721.450488    ;  uncertainty r = 0.000093, k = 10.220795
        15        16     1        0.141328   422706.092920    ;  uncertainty r = 0.000138, k = 7.904458
        15        17     1        0.139026   371108.056982    ;  uncertainty r = 0.000153, k = 27.823547
        16        25     1        0.108832   343723.618652    ;  uncertainty r = 0.000047, k = 2.764878
        17        29     1        0.101300   420077.839160    ;  uncertainty r = 0.000037, k = 2.878755
        17        30     1        0.101300   420077.839160    ;  uncertainty r = 0.000037, k = 2.878755
        18        22     1        0.116793  1128378.016016    ;  uncertainty r = 0.000033, k = 2.941856
        19        20     1        0.143415   236826.453516    ;  uncertainty r = 0.000091, k = 8.064395
        20        21     1        0.152626   226341.248389    ;  uncertainty r = 0.000055, k = 5.899825
        20        31     1        0.109456   307655.133057    ;  uncertainty r = 0.000021, k = 1.559626
        20        32     1        0.109456   307655.133057    ;  uncertainty r = 0.000021, k = 1.559626
        21        33     1        0.109562   311419.864795    ;  uncertainty r = 0.000014, k = 1.901802
        21        34     1        0.109562   311419.864795    ;  uncertainty r = 0.000014, k = 1.901802
        21        35     1        0.109562   311419.864795    ;  uncertainty r = 0.000014, k = 1.901802
        38        39     1        0.109533   307752.838037    ;  uncertainty r = 0.000008, k = 1.157811
        38        40     1        0.109533   307752.812500    ;  uncertainty r = 0.000008, k = 1.157806
        38        41     1        0.109533   307752.812500    ;  uncertainty r = 0.000008, k = 1.157806

[ angles ]
;       ai        aj        ak funct           theta             cth
         1         2         3     1      119.867386      519.076479    ;  uncertainty theta = 0.000698, k = 0.053594
         1         2        37     1      120.486938      294.861424    ;  uncertainty theta = 0.002322, k = 0.037903
         1         6         5     1      120.088234      527.763118    ;  uncertainty theta = 0.001040, k = 0.065012
         1         6        36     1      120.357956      291.045095    ;  uncertainty theta = 0.001579, k = 0.017991
         2         1         6     1      119.693909      507.830510    ;  uncertainty theta = 0.001590, k = 0.079688
         2         1        23     1      120.195084      284.755018    ;  uncertainty theta = 0.001463, k = 0.013347
         2         3         4     1      120.140762      457.628926    ;  uncertainty theta = 0.001908, k = 0.075147
         2         3         7     1      120.872238      417.028976    ;  uncertainty theta = 0.002614, k = 0.115719
         3         2        37     1      119.101425      269.849230    ;  uncertainty theta = 0.001892, k = 0.040203
         3         4         5     1      122.292114      521.220478    ;  uncertainty theta = 0.001196, k = 0.065383
         3         4        24     1      118.482376      271.145622    ;  uncertainty theta = 0.001568, k = 0.051822
         3         7         8     1      111.574097      496.575636    ;  uncertainty theta = 0.003395, k = 0.155418
         3         7        26     1      108.505859      396.543458    ;  uncertainty theta = 0.002829, k = 0.087409
         3         7        27     1      108.505859      396.543458    ;  uncertainty theta = 0.002829, k = 0.087409
         4         3         7     1      120.634056      411.889378    ;  uncertainty theta = 0.002621, k = 0.127397
         4         5         6     1      118.818581      460.011379    ;  uncertainty theta = 0.001427, k = 0.060094
         4         5        38     1      120.389122      424.640152    ;  uncertainty theta = 0.001829, k = 0.069108
         5         4        24     1      118.979843      281.425266    ;  uncertainty theta = 0.002017, k = 0.059623
         5         6        36     1      119.445984      279.994326    ;  uncertainty theta = 0.001490, k = 0.046210
         5        38        39     1      109.998489      396.621442    ;  uncertainty theta = 0.001205, k = 0.026965
         5        38        40     1      109.998489      396.621442    ;  uncertainty theta = 0.001205, k = 0.026965
         5        38        41     1      109.998489      396.621442    ;  uncertainty theta = 0.001205, k = 0.026965
         6         1        23     1      120.325302      287.616866    ;  uncertainty theta = 0.001567, k = 0.036109
         6         5        38     1      120.804077      439.432459    ;  uncertainty theta = 0.000511, k = 0.042169
         7         8         9     1      112.657791      508.133572    ;  uncertainty theta = 0.004138, k = 0.041386
         7         8        11     1      125.215866      518.768597    ;  uncertainty theta = 0.003053, k = 0.200697
         8         7        26     1      106.253563      363.435650    ;  uncertainty theta = 0.002030, k = 0.097866
         8         7        27     1      106.253563      363.435650    ;  uncertainty theta = 0.002030, k = 0.097866
         8         9        10     1      120.690353      439.345218    ;  uncertainty theta = 0.003141, k = 0.181173
         8         9        28     1      117.196556      267.349610    ;  uncertainty theta = 0.004167, k = 0.600708
         9         8        11     1      123.543259      772.409519    ;  uncertainty theta = 0.001564, k = 0.100540
         9        10        12     1      120.224754      768.711044    ;  uncertainty theta = 0.005858, k = 0.157945
         9        10        16     1      122.278137      533.311278    ;  uncertainty theta = 0.005250, k = 0.406084
        10         9        28     1      117.066086      336.130415    ;  uncertainty theta = 0.002657, k = 0.114965
        10        12        13     1      118.396202      413.897808    ;  uncertainty theta = 0.010734, k = 0.179891
        10        16        15     1      113.982933      516.057066    ;  uncertainty theta = 0.005279, k = 0.322192
        10        16        25     1      121.581764      266.638242    ;  uncertainty theta = 0.003427, k = 0.119353
        12        10        16     1      123.014938      557.585482    ;  uncertainty theta = 0.009119, k = 0.103918
        12        13        14     1      126.561386      519.298843    ;  uncertainty theta = 0.004561, k = 0.250377
        12        13        19     1      118.442764      605.400208    ;  uncertainty theta = 0.004270, k = 0.151631
        13        14        15     1      121.217224      479.784986    ;  uncertainty theta = 0.002823, k = 0.428578
        13        14        18     1      121.196106      385.989897    ;  uncertainty theta = 0.008969, k = 0.106773
        13        19        20     1      109.510330      497.766782    ;  uncertainty theta = 0.002796, k = 0.106304
        14        13        19     1      116.129417      472.792607    ;  uncertainty theta = 0.003388, k = 0.179404
        14        15        16     1      117.484238      427.730909    ;  uncertainty theta = 0.002903, k = 0.240097
        14        15        17     1      120.585159      576.926586    ;  uncertainty theta = 0.004519, k = 0.090792
        14        18        22     1      180.000000      241.307265    ;  uncertainty theta = 0.000000, k = 0.719628
        15        14        18     1      117.830177      369.460747    ;  uncertainty theta = 0.006627, k = 0.174269
        15        16        25     1      121.593582      279.201047    ;  uncertainty theta = 0.003701, k = 0.115080
        15        17        29     1      113.768478      388.852256    ;  uncertainty theta = 0.002252, k = 0.082774
        15        17        30     1      113.768478      388.852256    ;  uncertainty theta = 0.002252, k = 0.082774
        16        15        17     1      126.082375      568.295682    ;  uncertainty theta = 0.002505, k = 0.080621
        19        20        21     1      109.110916      620.838029    ;  uncertainty theta = 0.001375, k = 0.075038
        19        20        31     1      105.721947      414.764856    ;  uncertainty theta = 0.001556, k = 0.030033
        19        20        32     1      105.721947      414.764856    ;  uncertainty theta = 0.001556, k = 0.030033
        20        21        33     1      107.823227      406.328545    ;  uncertainty theta = 0.001985, k = 0.034929
        20        21        34     1      107.823227      406.328545    ;  uncertainty theta = 0.001985, k = 0.034929
        20        21        35     1      107.823227      406.328545    ;  uncertainty theta = 0.001985, k = 0.034929
        21        20        31     1      110.683975      420.952626    ;  uncertainty theta = 0.001109, k = 0.013076
        21        20        32     1      110.683975      420.952626    ;  uncertainty theta = 0.001109, k = 0.013076
        26         7        27     1      105.570190      311.491318    ;  uncertainty theta = 0.002767, k = 0.046550
        29        17        30     1      107.812767      286.090864    ;  uncertainty theta = 0.005516, k = 0.089415
        31        20        32     1      107.605186      326.746644    ;  uncertainty theta = 0.002467, k = 0.048865
        33        21        34     1      105.445511      313.896945    ;  uncertainty theta = 0.002263, k = 0.009799
        33        21        35     1      105.445511      313.896945    ;  uncertainty theta = 0.002263, k = 0.009799
        34        21        35     1      105.445511      313.896945    ;  uncertainty theta = 0.002263, k = 0.009799
        39        38        40     1      106.745865      317.409096    ;  uncertainty theta = 0.001083, k = 0.005022
        39        38        41     1      106.745865      317.409096    ;  uncertainty theta = 0.001083, k = 0.005022
        40        38        41     1      106.745850      317.409096    ;  uncertainty theta = 0.001083, k = 0.005023

[ dihedrals ] ; propers for gromacs 4.5 or higher, use funct 9
;       ai        aj        ak        al funct           phase               k        pn
         1         2         3         4     9        0.000000       -0.256660         1    ;  uncertainty k = 0.129785
         1         2         3         4     9      180.000000       12.245916         2    ;  uncertainty k = 0.330513
         1         2         3         4     9        0.000000       -0.587614         3    ;  uncertainty k = 0.338513
         1         2         3         4     9      180.000000        0.762813         4    ;  uncertainty k = 0.404297
         1         2         3         7     9        0.000000        0.030105         1    ;  uncertainty k = 0.173674
         1         2         3         7     9      180.000000        9.517960         2    ;  uncertainty k = 0.491294
         1         2         3         7     9        0.000000        1.498261         3    ;  uncertainty k = 0.254438
         1         2         3         7     9      180.000000        1.742148         4    ;  uncertainty k = 0.136466
         1         6         5         4     9        0.000000       -0.206771         1    ;  uncertainty k = 0.130827
         1         6         5         4     9      180.000000       12.213883         2    ;  uncertainty k = 0.272972
         1         6         5         4     9        0.000000       -0.547469         3    ;  uncertainty k = 0.371270
         1         6         5         4     9      180.000000        0.752367         4    ;  uncertainty k = 0.379735
         1         6         5        38     9        0.000000        0.229920         1    ;  uncertainty k = 0.214956
         1         6         5        38     9      180.000000        9.829099         2    ;  uncertainty k = 0.349774
         1         6         5        38     9        0.000000        1.369268         3    ;  uncertainty k = 0.249499
         1         6         5        38     9      180.000000        1.805471         4    ;  uncertainty k = 0.159504
         2         1         6         5     9        0.000000       -0.113199         1    ;  uncertainty k = 0.205122
         2         1         6         5     9      180.000000       14.322079         2    ;  uncertainty k = 0.264033
         2         1         6         5     9        0.000000       -0.974223         3    ;  uncertainty k = 0.455164
         2         1         6         5     9      180.000000        0.648866         4    ;  uncertainty k = 0.250823
         2         1         6        36     9        0.000000        0.058790         1    ;  uncertainty k = 0.118439
         2         1         6        36     9      180.000000        7.843434         2    ;  uncertainty k = 0.374848
         2         1         6        36     9        0.000000        1.446843         3    ;  uncertainty k = 0.303518
         2         1         6        36     9      180.000000        1.803522         4    ;  uncertainty k = 0.239612
         2         3         4         5     9        0.000000       -0.223600         1    ;  uncertainty k = 0.157713
         2         3         4         5     9      180.000000       11.568616         2    ;  uncertainty k = 0.179231
         2         3         4         5     9        0.000000       -0.258462         3    ;  uncertainty k = 0.308096
         2         3         4         5     9      180.000000        0.927322         4    ;  uncertainty k = 0.382549
         2         3         4        24     9        0.000000        0.170731         1    ;  uncertainty k = 0.158425
         2         3         4        24     9      180.000000        7.614340         2    ;  uncertainty k = 0.515534
         2         3         4        24     9        0.000000        1.419304         3    ;  uncertainty k = 0.324304
         2         3         4        24     9      180.000000        1.648605         4    ;  uncertainty k = 0.176014
         2         3         7         8     9        0.000000        0.498514         1    ;  uncertainty k = 0.524506
         2         3         7         8     9      180.000000        1.133741         2    ;  uncertainty k = 0.079526
         2         3         7         8     9        0.000000        0.587703         3    ;  uncertainty k = 0.163044
         2         3         7         8     9      180.000000        0.190129         4    ;  uncertainty k = 0.022719
         2         3         7        26     9        0.000000       -0.320418         1    ;  uncertainty k = 0.211885
         2         3         7        26     9      180.000000        2.003217         2    ;  uncertainty k = 0.185211
         2         3         7        26     9        0.000000        0.351056         3    ;  uncertainty k = 0.052730
         2         3         7        26     9      180.000000        0.157160         4    ;  uncertainty k = 0.034815
         2         3         7        27     9        0.000000       -0.320418         1    ;  uncertainty k = 0.211885
         2         3         7        27     9      180.000000        2.003217         2    ;  uncertainty k = 0.185211
         2         3         7        27     9        0.000000        0.351056         3    ;  uncertainty k = 0.052730
         2         3         7        27     9      180.000000        0.157160         4    ;  uncertainty k = 0.034815
         3         2         1         6     9        0.000000       -0.082920         1    ;  uncertainty k = 0.143212
         3         2         1         6     9      180.000000       13.883906         2    ;  uncertainty k = 0.257398
         3         2         1         6     9        0.000000       -1.062723         3    ;  uncertainty k = 0.436728
         3         2         1         6     9      180.000000        0.697537         4    ;  uncertainty k = 0.233516
         3         2         1        23     9        0.000000        0.054075         1    ;  uncertainty k = 0.242163
         3         2         1        23     9      180.000000        7.175687         2    ;  uncertainty k = 0.441774
         3         2         1        23     9        0.000000        1.439275         3    ;  uncertainty k = 0.203798
         3         2         1        23     9      180.000000        1.765658         4    ;  uncertainty k = 0.096562
         3         4         5         6     9        0.000000       -0.143007         1    ;  uncertainty k = 0.182010
         3         4         5         6     9      180.000000       10.983077         2    ;  uncertainty k = 0.362698
         3         4         5         6     9        0.000000       -0.247244         3    ;  uncertainty k = 0.423409
         3         4         5         6     9      180.000000        1.004196         4    ;  uncertainty k = 0.399161
         3         4         5        38     9        0.000000        0.104308         1    ;  uncertainty k = 0.096498
         3         4         5        38     9      180.000000        9.272828         2    ;  uncertainty k = 0.490952
         3         4         5        38     9        0.000000        1.429537         3    ;  uncertainty k = 0.304974
         3         4         5        38     9      180.000000        1.818789         4    ;  uncertainty k = 0.144747
         3         7         8         9     9        0.000000       -1.074775         1    ;  uncertainty k = 0.695777
         3         7         8         9     9      180.000000        1.776003         2    ;  uncertainty k = 0.480357
         3         7         8         9     9        0.000000        0.471045         3    ;  uncertainty k = 0.185624
         3         7         8         9     9      180.000000        0.300062         4    ;  uncertainty k = 0.123383
         3         7         8        11     9        0.000000       -1.369913         1    ;  uncertainty k = 0.722189
         3         7         8        11     9      180.000000        3.767478         2    ;  uncertainty k = 0.493240
         3         7         8        11     9        0.000000        0.859743         3    ;  uncertainty k = 0.102424
         3         7         8        11     9      180.000000        0.452117         4    ;  uncertainty k = 0.147718
         4         3         2        37     9        0.000000        0.177445         1    ;  uncertainty k = 0.143737
         4         3         2        37     9      180.000000        7.319501         2    ;  uncertainty k = 0.585215
         4         3         2        37     9        0.000000        1.408291         3    ;  uncertainty k = 0.330442
         4         3         2        37     9      180.000000        1.643710         4    ;  uncertainty k = 0.189771
         4         3         7         8     9        0.000000        0.360487         1    ;  uncertainty k = 0.532566
         4         3         7         8     9      180.000000        1.196146         2    ;  uncertainty k = 0.136585
         4         3         7         8     9        0.000000        0.599916         3    ;  uncertainty k = 0.129045
         4         3         7         8     9      180.000000        0.193112         4    ;  uncertainty k = 0.026438
         4         3         7        26     9        0.000000       -0.206854         1    ;  uncertainty k = 0.237814
         4         3         7        26     9      180.000000        1.990587         2    ;  uncertainty k = 0.166626
         4         3         7        26     9        0.000000        0.361455         3    ;  uncertainty k = 0.069896
         4         3         7        26     9      180.000000        0.161252         4    ;  uncertainty k = 0.038849
         4         3         7        27     9        0.000000       -0.206854         1    ;  uncertainty k = 0.237814
         4         3         7        27     9      180.000000        1.990587         2    ;  uncertainty k = 0.166626
         4         3         7        27     9        0.000000        0.361455         3    ;  uncertainty k = 0.069896
         4         3         7        27     9      180.000000        0.161252         4    ;  uncertainty k = 0.038849
         4         5         6        36     9        0.000000        0.066361         1    ;  uncertainty k = 0.134511
         4         5         6        36     9      180.000000        7.171674         2    ;  uncertainty k = 0.419104
         4         5         6        36     9        0.000000        1.456936         3    ;  uncertainty k = 0.358535
         4         5         6        36     9      180.000000        1.625849         4    ;  uncertainty k = 0.159922
         4         5        38        39     9        0.000000        0.068206         1    ;  uncertainty k = 0.080164
         4         5        38        39     9      180.000000        1.199445         2    ;  uncertainty k = 0.134703
         4         5        38        39     9        0.000000        0.342490         3    ;  uncertainty k = 0.076911
         4         5        38        39     9      180.000000        0.176726         4    ;  uncertainty k = 0.032595
         4         5        38        40     9        0.000000        0.068206         1    ;  uncertainty k = 0.080164
         4         5        38        40     9      180.000000        1.199445         2    ;  uncertainty k = 0.134703
         4         5        38        40     9        0.000000        0.342490         3    ;  uncertainty k = 0.076911
         4         5        38        40     9      180.000000        0.176726         4    ;  uncertainty k = 0.032595
         4         5        38        41     9        0.000000        0.068206         1    ;  uncertainty k = 0.080164
         4         5        38        41     9      180.000000        1.199445         2    ;  uncertainty k = 0.134704
         4         5        38        41     9        0.000000        0.342491         3    ;  uncertainty k = 0.076911
         4         5        38        41     9      180.000000        0.176726         4    ;  uncertainty k = 0.032595
         5         4         3         7     9        0.000000        0.007773         1    ;  uncertainty k = 0.064851
         5         4         3         7     9      180.000000        9.261025         2    ;  uncertainty k = 0.427273
         5         4         3         7     9        0.000000        1.539377         3    ;  uncertainty k = 0.247305
         5         4         3         7     9      180.000000        1.754863         4    ;  uncertainty k = 0.132173
         5         6         1        23     9        0.000000        0.105666         1    ;  uncertainty k = 0.159496
         5         6         1        23     9      180.000000        7.221449         2    ;  uncertainty k = 0.325485
         5         6         1        23     9        0.000000        1.467138         3    ;  uncertainty k = 0.266296
         5         6         1        23     9      180.000000        1.813313         4    ;  uncertainty k = 0.183921
         6         1         2        37     9        0.000000        0.107782         1    ;  uncertainty k = 0.081183
         6         1         2        37     9      180.000000        7.795318         2    ;  uncertainty k = 0.413225
         6         1         2        37     9        0.000000        1.424396         3    ;  uncertainty k = 0.293176
         6         1         2        37     9      180.000000        1.813702         4    ;  uncertainty k = 0.176950
         6         5         4        24     9        0.000000        0.066399         1    ;  uncertainty k = 0.089597
         6         5         4        24     9      180.000000        7.399927         2    ;  uncertainty k = 0.403083
         6         5         4        24     9        0.000000        1.518468         3    ;  uncertainty k = 0.338539
         6         5         4        24     9      180.000000        1.665969         4    ;  uncertainty k = 0.176510
         6         5        38        39     9        0.000000        0.027945         1    ;  uncertainty k = 0.033129
         6         5        38        39     9      180.000000        1.114335         2    ;  uncertainty k = 0.050513
         6         5        38        39     9        0.000000        0.300177         3    ;  uncertainty k = 0.021085
         6         5        38        39     9      180.000000        0.174314         4    ;  uncertainty k = 0.031779
         6         5        38        40     9        0.000000        0.027945         1    ;  uncertainty k = 0.033129
         6         5        38        40     9      180.000000        1.114335         2    ;  uncertainty k = 0.050513
         6         5        38        40     9        0.000000        0.300177         3    ;  uncertainty k = 0.021085
         6         5        38        40     9      180.000000        0.174314         4    ;  uncertainty k = 0.031779
         6         5        38        41     9        0.000000        0.027946         1    ;  uncertainty k = 0.033129
         6         5        38        41     9      180.000000        1.114335         2    ;  uncertainty k = 0.050512
         6         5        38        41     9        0.000000        0.300178         3    ;  uncertainty k = 0.021085
         6         5        38        41     9      180.000000        0.174314         4    ;  uncertainty k = 0.031779
         7         3         2        37     9        0.000000       -0.155976         1    ;  uncertainty k = 0.275971
         7         3         2        37     9      180.000000        7.653513         2    ;  uncertainty k = 0.401121
         7         3         2        37     9        0.000000        0.613900         3    ;  uncertainty k = 0.340321
         7         3         2        37     9      180.000000        1.066478         4    ;  uncertainty k = 0.253976
         7         3         4        24     9        0.000000       -0.171489         1    ;  uncertainty k = 0.284367
         7         3         4        24     9      180.000000        7.840967         2    ;  uncertainty k = 0.396542
         7         3         4        24     9        0.000000        0.625785         3    ;  uncertainty k = 0.311300
         7         3         4        24     9      180.000000        1.091389         4    ;  uncertainty k = 0.253878
         7         8         9        10     9        0.000000        5.265470         1    ;  uncertainty k = 0.520999
         7         8         9        10     9      180.000000        7.755015         2    ;  uncertainty k = 0.310750
         7         8         9        10     9        0.000000        0.799640         3    ;  uncertainty k = 0.357445
         7         8         9        10     9      180.000000       -0.251117         4    ;  uncertainty k = 0.146389
         7         8         9        28     9        0.000000        0.862516         1    ;  uncertainty k = 0.732192
         7         8         9        28     9      180.000000        5.430089         2    ;  uncertainty k = 0.614327
         7         8         9        28     9        0.000000        1.635839         3    ;  uncertainty k = 0.162046
         7         8         9        28     9      180.000000        0.011949         4    ;  uncertainty k = 0.301059
         8         9        10        12     9        0.000000        2.063495         1    ;  uncertainty k = 1.271616
         8         9        10        12     9      180.000000        6.977829         2    ;  uncertainty k = 0.403739
         8         9        10        12     9        0.000000        0.924999         3    ;  uncertainty k = 0.214499
         8         9        10        12     9      180.000000       -0.245190         4    ;  uncertainty k = 0.228609
         8         9        10        16     9        0.000000       -0.168599         1    ;  uncertainty k = 1.307044
         8         9        10        16     9      180.000000        5.525097         2    ;  uncertainty k = 0.233014
         8         9        10        16     9        0.000000        0.538992         3    ;  uncertainty k = 0.125755
         8         9        10        16     9      180.000000       -0.239520         4    ;  uncertainty k = 0.175063
         9         8         7        26     9        0.000000       -1.452572         1    ;  uncertainty k = 0.133294
         9         8         7        26     9      180.000000        2.966290         2    ;  uncertainty k = 0.342929
         9         8         7        26     9        0.000000        0.222812         3    ;  uncertainty k = 0.098453
         9         8         7        26     9      180.000000        0.075415         4    ;  uncertainty k = 0.102204
         9         8         7        27     9        0.000000       -1.452572         1    ;  uncertainty k = 0.133294
         9         8         7        27     9      180.000000        2.966290         2    ;  uncertainty k = 0.342929
         9         8         7        27     9        0.000000        0.222812         3    ;  uncertainty k = 0.098453
         9         8         7        27     9      180.000000        0.075415         4    ;  uncertainty k = 0.102204
         9        10        12        13     9        0.000000       -0.287057         1    ;  uncertainty k = 0.846068
         9        10        12        13     9      180.000000       14.346967         2    ;  uncertainty k = 0.356749
         9        10        12        13     9        0.000000        1.990210         3    ;  uncertainty k = 0.555842
         9        10        12        13     9      180.000000        1.639940         4    ;  uncertainty k = 0.535044
         9        10        16        15     9        0.000000        0.126116         1    ;  uncertainty k = 0.694904
         9        10        16        15     9      180.000000       10.311010         2    ;  uncertainty k = 0.354821
         9        10        16        15     9        0.000000        1.009975         3    ;  uncertainty k = 0.371826
         9        10        16        15     9      180.000000        1.171697         4    ;  uncertainty k = 0.312850
         9        10        16        25     9        0.000000       -0.283095         1    ;  uncertainty k = 0.411758
         9        10        16        25     9      180.000000        7.046675         2    ;  uncertainty k = 0.484512
         9        10        16        25     9        0.000000        1.005820         3    ;  uncertainty k = 0.162759
         9        10        16        25     9      180.000000        0.948056         4    ;  uncertainty k = 0.400045
        10         9         8        11     9        0.000000        4.087435         1    ;  uncertainty k = 0.452045
        10         9         8        11     9      180.000000       17.121247         2    ;  uncertainty k = 0.251647
        10         9         8        11     9        0.000000        0.588289         3    ;  uncertainty k = 0.144665
        10         9         8        11     9      180.000000       -1.282246         4    ;  uncertainty k = 0.199091
        10        12        13        14     9        0.000000       -0.134451         1    ;  uncertainty k = 0.748386
        10        12        13        14     9      180.000000        9.912518         2    ;  uncertainty k = 0.360617
        10        12        13        14     9        0.000000        1.572808         3    ;  uncertainty k = 0.519990
        10        12        13        14     9      180.000000        1.200339         4    ;  uncertainty k = 0.408118
        10        12        13        19     9        0.000000        0.502342         1    ;  uncertainty k = 1.201616
        10        12        13        19     9      180.000000       14.176232         2    ;  uncertainty k = 0.344464
        10        12        13        19     9        0.000000        2.364145         3    ;  uncertainty k = 0.531148
        10        12        13        19     9      180.000000        1.505332         4    ;  uncertainty k = 0.188230
        10        16        15        14     9        0.000000       -0.073776         1    ;  uncertainty k = 0.309551
        10        16        15        14     9      180.000000        7.996001         2    ;  uncertainty k = 0.986235
        10        16        15        14     9        0.000000        0.157134         3    ;  uncertainty k = 0.423554
        10        16        15        14     9      180.000000        1.240112         4    ;  uncertainty k = 0.344697
        10        16        15        17     9        0.000000       -0.330766         1    ;  uncertainty k = 0.831441
        10        16        15        17     9      180.000000        9.847893         2    ;  uncertainty k = 0.474596
        10        16        15        17     9        0.000000        0.856731         3    ;  uncertainty k = 0.349573
        10        16        15        17     9      180.000000        1.151218         4    ;  uncertainty k = 0.263543
        11         8         7        26     9        0.000000        0.024057         1    ;  uncertainty k = 0.265863
        11         8         7        26     9      180.000000        4.166512         2    ;  uncertainty k = 0.335673
        11         8         7        26     9        0.000000        0.613844         3    ;  uncertainty k = 0.123615
        11         8         7        26     9      180.000000        0.307307         4    ;  uncertainty k = 0.077444
        11         8         7        27     9        0.000000        0.024057         1    ;  uncertainty k = 0.265863
        11         8         7        27     9      180.000000        4.166512         2    ;  uncertainty k = 0.335673
        11         8         7        27     9        0.000000        0.613844         3    ;  uncertainty k = 0.123615
        11         8         7        27     9      180.000000        0.307307         4    ;  uncertainty k = 0.077444
        11         8         9        28     9        0.000000        2.907209         1    ;  uncertainty k = 0.924974
        11         8         9        28     9      180.000000       14.120391         2    ;  uncertainty k = 0.307444
        11         8         9        28     9        0.000000        1.083959         3    ;  uncertainty k = 0.147738
        11         8         9        28     9      180.000000       -0.394443         4    ;  uncertainty k = 0.249588
        12        10         9        28     9        0.000000        7.193412         1    ;  uncertainty k = 0.462281
        12        10         9        28     9      180.000000        5.163654         2    ;  uncertainty k = 0.593263
        12        10         9        28     9        0.000000        0.023637         3    ;  uncertainty k = 0.285850
        12        10         9        28     9      180.000000        0.083833         4    ;  uncertainty k = 0.229426
        12        10        16        15     9        0.000000       -0.104497         1    ;  uncertainty k = 0.398292
        12        10        16        15     9      180.000000       11.295169         2    ;  uncertainty k = 0.714584
        12        10        16        15     9        0.000000       -0.676779         3    ;  uncertainty k = 0.671303
        12        10        16        15     9      180.000000        1.074034         4    ;  uncertainty k = 0.238313
        12        10        16        25     9        0.000000        0.361026         1    ;  uncertainty k = 0.745384
        12        10        16        25     9      180.000000        8.722461         2    ;  uncertainty k = 0.756875
        12        10        16        25     9        0.000000        1.235261         3    ;  uncertainty k = 0.310839
        12        10        16        25     9      180.000000        1.393341         4    ;  uncertainty k = 0.262392
        12        13        14        15     9        0.000000       -0.232504         1    ;  uncertainty k = 0.605166
        12        13        14        15     9      180.000000        6.713868         2    ;  uncertainty k = 1.045405
        12        13        14        15     9        0.000000       -0.187477         3    ;  uncertainty k = 0.207869
        12        13        14        15     9      180.000000        0.982166         4    ;  uncertainty k = 0.322222
        12        13        14        18     9        0.000000       -0.307075         1    ;  uncertainty k = 0.725834
        12        13        14        18     9      180.000000        8.809723         2    ;  uncertainty k = 0.975615
        12        13        14        18     9        0.000000        0.773771         3    ;  uncertainty k = 0.371796
        12        13        14        18     9      180.000000        0.999096         4    ;  uncertainty k = 0.428189
        12        13        19        20     9        0.000000        4.044461         1    ;  uncertainty k = 1.235908
        12        13        19        20     9      180.000000       11.441330         2    ;  uncertainty k = 0.111226
        12        13        19        20     9        0.000000        0.448241         3    ;  uncertainty k = 0.407084
        12        13        19        20     9      180.000000        0.151120         4    ;  uncertainty k = 0.132585
        13        12        10        16     9        0.000000       -0.316812         1    ;  uncertainty k = 1.246548
        13        12        10        16     9      180.000000       11.264849         2    ;  uncertainty k = 0.444789
        13        12        10        16     9        0.000000        0.995870         3    ;  uncertainty k = 0.423750
        13        12        10        16     9      180.000000        1.238036         4    ;  uncertainty k = 0.446611
        13        14        15        16     9        0.000000       -0.082073         1    ;  uncertainty k = 0.568705
        13        14        15        16     9      180.000000        6.238300         2    ;  uncertainty k = 1.292749
        13        14        15        16     9        0.000000        0.388475         3    ;  uncertainty k = 0.353584
        13        14        15        16     9      180.000000        1.227616         4    ;  uncertainty k = 0.243225
        13        14        15        17     9        0.000000       -0.727705         1    ;  uncertainty k = 0.553545
        13        14        15        17     9      180.000000        8.652593         2    ;  uncertainty k = 0.800092
        13        14        15        17     9        0.000000        0.735683         3    ;  uncertainty k = 0.183816
        13        14        15        17     9      180.000000        1.175797         4    ;  uncertainty k = 0.400624
        13        14        18        22     9        0.000000        0.000000         1    ;  uncertainty k = 0.000000
        13        14        18        22     9      180.000000        0.000000         2    ;  uncertainty k = 0.000000
        13        14        18        22     9        0.000000        0.000000         3    ;  uncertainty k = 0.000000
        13        14        18        22     9      180.000000        0.000000         4    ;  uncertainty k = 0.000000
        13        19        20        21     9        0.000000       -3.636196         1    ;  uncertainty k = 1.243292
        13        19        20        21     9      180.000000        1.423504         2    ;  uncertainty k = 0.333090
        13        19        20        21     9        0.000000        0.287747         3    ;  uncertainty k = 0.256573
        13        19        20        21     9      180.000000        0.676530         4    ;  uncertainty k = 0.137637
        13        19        20        31     9        0.000000        2.322710         1    ;  uncertainty k = 0.540626
        13        19        20        31     9      180.000000       -0.344542         2    ;  uncertainty k = 0.276977
        13        19        20        31     9        0.000000        0.082814         3    ;  uncertainty k = 0.079800
        13        19        20        31     9      180.000000        0.383140         4    ;  uncertainty k = 0.058960
        13        19        20        32     9        0.000000        2.322710         1    ;  uncertainty k = 0.540626
        13        19        20        32     9      180.000000       -0.344542         2    ;  uncertainty k = 0.276977
        13        19        20        32     9        0.000000        0.082814         3    ;  uncertainty k = 0.079800
        13        19        20        32     9      180.000000        0.383140         4    ;  uncertainty k = 0.058960
        14        13        19        20     9        0.000000       -0.309656         1    ;  uncertainty k = 0.988155
        14        13        19        20     9      180.000000        8.894149         2    ;  uncertainty k = 0.507454
        14        13        19        20     9        0.000000        0.138335         3    ;  uncertainty k = 0.570538
        14        13        19        20     9      180.000000       -0.035457         4    ;  uncertainty k = 0.143247
        14        15        16        25     9        0.000000        0.248056         1    ;  uncertainty k = 0.958381
        14        15        16        25     9      180.000000        6.811149         2    ;  uncertainty k = 0.465255
        14        15        16        25     9        0.000000        1.363311         3    ;  uncertainty k = 0.334370
        14        15        16        25     9      180.000000        1.320741         4    ;  uncertainty k = 0.267576
        14        15        17        29     9        0.000000       16.179241         1    ;  uncertainty k = 0.226508
        14        15        17        29     9      180.000000        8.686178         2    ;  uncertainty k = 0.232167
        14        15        17        29     9        0.000000        0.910135         3    ;  uncertainty k = 0.213786
        14        15        17        29     9      180.000000       -0.131487         4    ;  uncertainty k = 0.109493
        14        15        17        30     9        0.000000       16.179241         1    ;  uncertainty k = 0.226508
        14        15        17        30     9      180.000000        8.686178         2    ;  uncertainty k = 0.232167
        14        15        17        30     9        0.000000        0.910135         3    ;  uncertainty k = 0.213786
        14        15        17        30     9      180.000000       -0.131487         4    ;  uncertainty k = 0.109493
        15        14        13        19     9        0.000000        0.070743         1    ;  uncertainty k = 0.686436
        15        14        13        19     9      180.000000        6.610358         2    ;  uncertainty k = 0.662532
        15        14        13        19     9        0.000000        1.068355         3    ;  uncertainty k = 0.327950
        15        14        13        19     9      180.000000        1.138642         4    ;  uncertainty k = 0.433194
        15        14        18        22     9        0.000000        0.000000         1    ;  uncertainty k = 0.000000
        15        14        18        22     9      180.000000        0.000000         2    ;  uncertainty k = 0.000000
        15        14        18        22     9        0.000000        0.000000         3    ;  uncertainty k = 0.000000
        15        14        18        22     9      180.000000        0.000000         4    ;  uncertainty k = 0.000000
        16        10         9        28     9        0.000000        0.996703         1    ;  uncertainty k = 1.088402
        16        10         9        28     9      180.000000        5.158411         2    ;  uncertainty k = 0.639236
        16        10         9        28     9        0.000000        1.415645         3    ;  uncertainty k = 0.264055
        16        10         9        28     9      180.000000        0.157366         4    ;  uncertainty k = 0.160041
        16        15        14        18     9        0.000000        0.118231         1    ;  uncertainty k = 0.663075
        16        15        14        18     9      180.000000        7.761016         2    ;  uncertainty k = 0.752747
        16        15        14        18     9        0.000000        0.963725         3    ;  uncertainty k = 0.321347
        16        15        14        18     9      180.000000        1.184081         4    ;  uncertainty k = 0.547084
        16        15        17        29     9        0.000000       10.150943         1    ;  uncertainty k = 0.373654
        16        15        17        29     9      180.000000        9.585958         2    ;  uncertainty k = 0.358657
        16        15        17        29     9        0.000000        0.834747         3    ;  uncertainty k = 0.211714
        16        15        17        29     9      180.000000       -0.348757         4    ;  uncertainty k = 0.221362
        16        15        17        30     9        0.000000       10.150943         1    ;  uncertainty k = 0.373654
        16        15        17        30     9      180.000000        9.585958         2    ;  uncertainty k = 0.358657
        16        15        17        30     9        0.000000        0.834747         3    ;  uncertainty k = 0.211714
        16        15        17        30     9      180.000000       -0.348757         4    ;  uncertainty k = 0.221362
        17        15        14        18     9        0.000000       -0.379135         1    ;  uncertainty k = 0.501361
        17        15        14        18     9      180.000000       10.387938         2    ;  uncertainty k = 0.380197
        17        15        14        18     9        0.000000        0.811351         3    ;  uncertainty k = 0.545627
        17        15        14        18     9      180.000000        0.962118         4    ;  uncertainty k = 0.290345
        17        15        16        25     9        0.000000       -0.546000         1    ;  uncertainty k = 0.474114
        17        15        16        25     9      180.000000        7.797048         2    ;  uncertainty k = 0.566356
        17        15        16        25     9        0.000000        0.717830         3    ;  uncertainty k = 0.278527
        17        15        16        25     9      180.000000        0.908902         4    ;  uncertainty k = 0.384357
        18        14        13        19     9        0.000000       -0.590020         1    ;  uncertainty k = 0.555767
        18        14        13        19     9      180.000000        9.321267         2    ;  uncertainty k = 0.983764
        18        14        13        19     9        0.000000        0.830295         3    ;  uncertainty k = 0.529237
        18        14        13        19     9      180.000000        0.902366         4    ;  uncertainty k = 0.417523
        19        20        21        33     9        0.000000       -0.903707         1    ;  uncertainty k = 0.401255
        19        20        21        33     9      180.000000       -3.423220         2    ;  uncertainty k = 0.318602
        19        20        21        33     9        0.000000        1.623618         3    ;  uncertainty k = 0.078292
        19        20        21        33     9      180.000000       -0.201488         4    ;  uncertainty k = 0.051868
        19        20        21        34     9        0.000000       -0.903707         1    ;  uncertainty k = 0.401255
        19        20        21        34     9      180.000000       -3.423220         2    ;  uncertainty k = 0.318602
        19        20        21        34     9        0.000000        1.623618         3    ;  uncertainty k = 0.078292
        19        20        21        34     9      180.000000       -0.201488         4    ;  uncertainty k = 0.051868
        19        20        21        35     9        0.000000       -0.903707         1    ;  uncertainty k = 0.401255
        19        20        21        35     9      180.000000       -3.423220         2    ;  uncertainty k = 0.318602
        19        20        21        35     9        0.000000        1.623618         3    ;  uncertainty k = 0.078292
        19        20        21        35     9      180.000000       -0.201488         4    ;  uncertainty k = 0.051868
        23         1         2        37     9        0.000000       -0.004536         1    ;  uncertainty k = 0.147672
        23         1         2        37     9      180.000000        7.353755         2    ;  uncertainty k = 0.207204
        23         1         2        37     9        0.000000       -0.426883         3    ;  uncertainty k = 0.261671
        23         1         2        37     9      180.000000        0.123801         4    ;  uncertainty k = 0.129079
        23         1         6        36     9        0.000000        0.000551         1    ;  uncertainty k = 0.096151
        23         1         6        36     9      180.000000        7.522363         2    ;  uncertainty k = 0.270530
        23         1         6        36     9        0.000000       -0.444206         3    ;  uncertainty k = 0.261913
        23         1         6        36     9      180.000000        0.082424         4    ;  uncertainty k = 0.104199
        24         4         5        38     9        0.000000       -0.293457         1    ;  uncertainty k = 0.329738
        24         4         5        38     9      180.000000        8.330398         2    ;  uncertainty k = 0.267521
        24         4         5        38     9        0.000000        0.533563         3    ;  uncertainty k = 0.286061
        24         4         5        38     9      180.000000        0.974702         4    ;  uncertainty k = 0.202400
        31        20        21        33     9        0.000000        0.029588         1    ;  uncertainty k = 0.169406
        31        20        21        33     9      180.000000       -0.158076         2    ;  uncertainty k = 0.254590
        31        20        21        33     9        0.000000        0.680966         3    ;  uncertainty k = 0.039021
        31        20        21        33     9      180.000000       -0.063667         4    ;  uncertainty k = 0.062459
        31        20        21        34     9        0.000000        0.029588         1    ;  uncertainty k = 0.169406
        31        20        21        34     9      180.000000       -0.158076         2    ;  uncertainty k = 0.254590
        31        20        21        34     9        0.000000        0.680966         3    ;  uncertainty k = 0.039021
        31        20        21        34     9      180.000000       -0.063667         4    ;  uncertainty k = 0.062459
        31        20        21        35     9        0.000000        0.029588         1    ;  uncertainty k = 0.169406
        31        20        21        35     9      180.000000       -0.158076         2    ;  uncertainty k = 0.254590
        31        20        21        35     9        0.000000        0.680966         3    ;  uncertainty k = 0.039021
        31        20        21        35     9      180.000000       -0.063667         4    ;  uncertainty k = 0.062459
        32        20        21        33     9        0.000000        0.029588         1    ;  uncertainty k = 0.169406
        32        20        21        33     9      180.000000       -0.158076         2    ;  uncertainty k = 0.254590
        32        20        21        33     9        0.000000        0.680966         3    ;  uncertainty k = 0.039021
        32        20        21        33     9      180.000000       -0.063667         4    ;  uncertainty k = 0.062459
        32        20        21        34     9        0.000000        0.029588         1    ;  uncertainty k = 0.169406
        32        20        21        34     9      180.000000       -0.158076         2    ;  uncertainty k = 0.254590
        32        20        21        34     9        0.000000        0.680966         3    ;  uncertainty k = 0.039021
        32        20        21        34     9      180.000000       -0.063667         4    ;  uncertainty k = 0.062459
        32        20        21        35     9        0.000000        0.029588         1    ;  uncertainty k = 0.169406
        32        20        21        35     9      180.000000       -0.158076         2    ;  uncertainty k = 0.254590
        32        20        21        35     9        0.000000        0.680966         3    ;  uncertainty k = 0.039021
        32        20        21        35     9      180.000000       -0.063667         4    ;  uncertainty k = 0.062459
        36         6         5        38     9        0.000000       -0.357270         1    ;  uncertainty k = 0.406620
        36         6         5        38     9      180.000000        8.347977         2    ;  uncertainty k = 0.206203
        36         6         5        38     9        0.000000        0.497549         3    ;  uncertainty k = 0.256094
        36         6         5        38     9      180.000000        0.888222         4    ;  uncertainty k = 0.210655

[ dihedrals ] ; impropers
;       ai        aj        ak        al funct           phase               k        pn
         1         2         6        23     4      180.000000        4.710574         2    ;  uncertainty k = 0.075002
         1         6        23         2     4      180.000000        4.710574         2    ;  uncertainty k = 0.075002
         1        23         2         6     4      180.000000        4.710574         2    ;  uncertainty k = 0.075002
         2         1         3        37     4      180.000000        4.183943         2    ;  uncertainty k = 0.058533
         2         3        37         1     4      180.000000        4.183943         2    ;  uncertainty k = 0.058533
         2        37         1         3     4      180.000000        4.183943         2    ;  uncertainty k = 0.058533
         3         2         4         7     4      180.000000       13.740621         2    ;  uncertainty k = 0.040563
         3         4         7         2     4      180.000000       13.740621         2    ;  uncertainty k = 0.040563
         3         7         2         4     4      180.000000       13.740621         2    ;  uncertainty k = 0.040563
         4         3         5        24     4      180.000000        4.839647         2    ;  uncertainty k = 0.135615
         4         5        24         3     4      180.000000        4.839647         2    ;  uncertainty k = 0.135615
         4        24         3         5     4      180.000000        4.839647         2    ;  uncertainty k = 0.135615
         5         4         6        38     4      180.000000       15.843603         2    ;  uncertainty k = 0.045242
         5         6        38         4     4      180.000000       15.843603         2    ;  uncertainty k = 0.045242
         5        38         4         6     4      180.000000       15.843603         2    ;  uncertainty k = 0.045242
         6         1         5        36     4      180.000000        3.783832         2    ;  uncertainty k = 0.076954
         6         5        36         1     4      180.000000        3.783832         2    ;  uncertainty k = 0.076954
         6        36         1         5     4      180.000000        3.783832         2    ;  uncertainty k = 0.076954
         8         7         9        11     4      180.000000       54.264155         2    ;  uncertainty k = 0.011418
         8         9        11         7     4      180.000000       54.264155         2    ;  uncertainty k = 0.011418
         8        11         7         9     4      180.000000       54.264155         2    ;  uncertainty k = 0.011418
         9         8        10        28     4      180.000000        0.441348         2    ;  uncertainty k = 0.737910
         9        10        28         8     4      180.000000        0.441348         2    ;  uncertainty k = 0.737910
         9        28         8        10     4      180.000000        0.441348         2    ;  uncertainty k = 0.737910
        10         9        12        16     4      180.000000       30.056377         2    ;  uncertainty k = 0.135424
        10        12        16         9     4      180.000000       30.056377         2    ;  uncertainty k = 0.135424
        10        16         9        12     4      180.000000       30.056377         2    ;  uncertainty k = 0.135424
        13        12        14        19     4      180.000000       32.779551         2    ;  uncertainty k = 0.072320
        13        14        19        12     4      180.000000       32.779551         2    ;  uncertainty k = 0.072320
        13        19        12        14     4      180.000000       32.779551         2    ;  uncertainty k = 0.072320
        14        13        15        18     4      180.000000        5.427422         2    ;  uncertainty k = 0.449847
        14        15        18        13     4      180.000000        5.427422         2    ;  uncertainty k = 0.449847
        14        18        13        15     4      180.000000        5.427422         2    ;  uncertainty k = 0.449847
        15        14        16        17     4      180.000000       26.449005         2    ;  uncertainty k = 0.108353
        15        16        17        14     4      180.000000       26.449005         2    ;  uncertainty k = 0.108353
        15        17        14        16     4      180.000000       26.449005         2    ;  uncertainty k = 0.108353
        16        10        15        25     4      180.000000        0.521319         2    ;  uncertainty k = 0.605740
        16        15        25        10     4      180.000000        0.521319         2    ;  uncertainty k = 0.605740
        16        25        10        15     4      180.000000        0.521319         2    ;  uncertainty k = 0.605740

[ pairs ]
;       ai        aj funct
         1         4     1
         1         7     1
         1        38     1
         2         5     1
         2         8     1
         2        24     1
         2        26     1
         2        27     1
         2        36     1
         3         6     1
         3         9     1
         3        11     1
         3        23     1
         3        38     1
         4         8     1
         4        26     1
         4        27     1
         4        36     1
         4        37     1
         4        39     1
         4        40     1
         4        41     1
         5         7     1
         5        23     1
         6        24     1
         6        37     1
         6        39     1
         6        40     1
         6        41     1
         7        10     1
         7        24     1
         7        28     1
         7        37     1
         8        12     1
         8        16     1
         9        13     1
         9        15     1
         9        25     1
         9        26     1
         9        27     1
        10        11     1
        10        14     1
        10        17     1
        10        19     1
        11        26     1
        11        27     1
        11        28     1
        12        15     1
        12        18     1
        12        20     1
        12        25     1
        12        28     1
        13        16     1
        13        17     1
        13        21     1
        13        22     1
        13        31     1
        13        32     1
        14        20     1
        14        25     1
        14        29     1
        14        30     1
        15        19     1
        15        22     1
        16        18     1
        16        28     1
        16        29     1
        16        30     1
        17        18     1
        17        25     1
        18        19     1
        19        33     1
        19        34     1
        19        35     1
        23        36     1
        23        37     1
        24        38     1
        31        33     1
        31        34     1
        31        35     1
        32        33     1
        32        34     1
        32        35     1
        36        38     1
