; ITP file created by ByteFF-joint-25, 2026-02-17 09:10:42.594700

[ atomtypes ]
;name           bonded.type        at.num        mass        charge   ptype           sigma         epsilon
 c0bf                                   6      0.0000       0.00000       A     3.31513e-01     4.13187e-01    ;  uncertainty sigma = 0.000006, epsilon = 0.000569
 c1bf                                   6      0.0000       0.00000       A     3.31545e-01     4.13728e-01    ;  uncertainty sigma = 0.000013, epsilon = 0.000521
 c2bf                                   6      0.0000       0.00000       A     3.31532e-01     4.13452e-01    ;  uncertainty sigma = 0.000005, epsilon = 0.001035
 c3bf                                   6      0.0000       0.00000       A     3.31532e-01     4.13442e-01    ;  uncertainty sigma = 0.000005, epsilon = 0.000683
 c4bf                                   6      0.0000       0.00000       A     3.31517e-01     4.13285e-01    ;  uncertainty sigma = 0.000002, epsilon = 0.000567
 c5bf                                   6      0.0000       0.00000       A     3.31522e-01     4.13428e-01    ;  uncertainty sigma = 0.000004, epsilon = 0.000561
 c6bf                                   6      0.0000       0.00000       A     3.39762e-01     4.50806e-01    ;  uncertainty sigma = 0.000012, epsilon = 0.001242
 c7bf                                   6      0.0000       0.00000       A     3.31534e-01     4.13256e-01    ;  uncertainty sigma = 0.000033, epsilon = 0.001506
 n8bf                                   7      0.0000       0.00000       A     3.26977e-01     4.89929e-01    ;  uncertainty sigma = 0.000038, epsilon = 0.001227
 c9bf                                   6      0.0000       0.00000       A     3.31566e-01     4.12139e-01    ;  uncertainty sigma = 0.000019, epsilon = 0.000481
 o10bf                                  8      0.0000       0.00000       A     3.04854e-01     6.12416e-01    ;  uncertainty sigma = 0.000011, epsilon = 0.001606
 n11bf                                  7      0.0000       0.00000       A     3.38402e-01     3.92745e-01    ;  uncertainty sigma = 0.000021, epsilon = 0.001055
 c12bf                                  6      0.0000       0.00000       A     3.31495e-01     4.13844e-01    ;  uncertainty sigma = 0.000024, epsilon = 0.001862
 c13bf                                  6      0.0000       0.00000       A     3.31496e-01     4.13013e-01    ;  uncertainty sigma = 0.000032, epsilon = 0.002367
 c14bf                                  6      0.0000       0.00000       A     3.31518e-01     4.13443e-01    ;  uncertainty sigma = 0.000027, epsilon = 0.001034
 c15bf                                  6      0.0000       0.00000       A     3.31542e-01     4.13066e-01    ;  uncertainty sigma = 0.000013, epsilon = 0.002464
 o16bf                                  8      0.0000       0.00000       A     3.15605e-01     3.03741e-01    ;  uncertainty sigma = 0.000007, epsilon = 0.000565
 c17bf                                  6      0.0000       0.00000       A     3.39780e-01     4.50985e-01    ;  uncertainty sigma = 0.000005, epsilon = 0.000500
 n18bf                                  7      0.0000       0.00000       A     3.36843e-01     4.68873e-01    ;  uncertainty sigma = 0.000068, epsilon = 0.003219
 c19bf                                  6      0.0000       0.00000       A     3.47912e-01     6.68669e-01    ;  uncertainty sigma = 0.000017, epsilon = 0.001390
 o20bf                                  8      0.0000       0.00000       A     3.15569e-01     3.03059e-01    ;  uncertainty sigma = 0.000053, epsilon = 0.002176
 c21bf                                  6      0.0000       0.00000       A     3.39764e-01     4.50318e-01    ;  uncertainty sigma = 0.000014, epsilon = 0.000877
 c22bf                                  6      0.0000       0.00000       A     3.39775e-01     4.50959e-01    ;  uncertainty sigma = 0.000006, epsilon = 0.000494
 n23bf                                  7      0.0000       0.00000       A     3.27325e-01     4.59401e-01    ;  uncertainty sigma = 0.000040, epsilon = 0.001413
 h24bf                                  1      0.0000       0.00000       A     2.62559e-01     6.70763e-02    ;  uncertainty sigma = 0.000006, epsilon = 0.000396
 h25bf                                  1      0.0000       0.00000       A     2.62564e-01     6.70965e-02    ;  uncertainty sigma = 0.000011, epsilon = 0.000401
 h26bf                                  1      0.0000       0.00000       A     2.62548e-01     6.68678e-02    ;  uncertainty sigma = 0.000027, epsilon = 0.000692
 h27bf                                  1      0.0000       0.00000       A     2.60049e-01     8.69568e-02    ;  uncertainty sigma = 0.000011, epsilon = 0.000450
 h28bf                                  1      0.0000       0.00000       A     2.60049e-01     8.69568e-02    ;  uncertainty sigma = 0.000011, epsilon = 0.000450
 h29bf                                  1      0.0000       0.00000       A     1.10687e-01     4.15498e-02    ;  uncertainty sigma = 0.000117, epsilon = 0.001414
 h30bf                                  1      0.0000       0.00000       A     2.42205e-01     8.67537e-02    ;  uncertainty sigma = 0.000015, epsilon = 0.000623
 h31bf                                  1      0.0000       0.00000       A     2.42205e-01     8.67537e-02    ;  uncertainty sigma = 0.000015, epsilon = 0.000623
 h32bf                                  1      0.0000       0.00000       A     2.42205e-01     8.67537e-02    ;  uncertainty sigma = 0.000015, epsilon = 0.000623
 h33bf                                  1      0.0000       0.00000       A     1.10684e-01     4.11855e-02    ;  uncertainty sigma = 0.000050, epsilon = 0.000660
 h34bf                                  1      0.0000       0.00000       A     1.10684e-01     4.11855e-02    ;  uncertainty sigma = 0.000050, epsilon = 0.000660
 h35bf                                  1      0.0000       0.00000       A     2.42228e-01     8.67631e-02    ;  uncertainty sigma = 0.000026, epsilon = 0.000627
 h36bf                                  1      0.0000       0.00000       A     2.42228e-01     8.67631e-02    ;  uncertainty sigma = 0.000026, epsilon = 0.000627
 h37bf                                  1      0.0000       0.00000       A     2.60025e-01     8.66246e-02    ;  uncertainty sigma = 0.000011, epsilon = 0.000873
 h38bf                                  1      0.0000       0.00000       A     2.60025e-01     8.66246e-02    ;  uncertainty sigma = 0.000011, epsilon = 0.000873
 h39bf                                  1      0.0000       0.00000       A     2.60025e-01     8.66246e-02    ;  uncertainty sigma = 0.000011, epsilon = 0.000873
 h40bf                                  1      0.0000       0.00000       A     2.62562e-01     6.69705e-02    ;  uncertainty sigma = 0.000010, epsilon = 0.000501
 h41bf                                  1      0.0000       0.00000       A     2.62558e-01     6.70321e-02    ;  uncertainty sigma = 0.000010, epsilon = 0.000442

[ moleculetype ]
;name             nrexcl
 MOL                   3

[ atoms ]
;       nr            type      resi   res      atom      cgnr      charge          mass ; qtot
         1            c0bf         1   UNL        c0         1    -0.20598       12.0110 ; qtot   -0.206
         2            c1bf         1   UNL        c1         2     0.13256       12.0110 ; qtot   -0.073
         3            c2bf         1   UNL        c2         3    -0.11443       12.0110 ; qtot   -0.188
         4            c3bf         1   UNL        c3         4    -0.09380       12.0110 ; qtot   -0.282
         5            c4bf         1   UNL        c4         5    -0.14771       12.0110 ; qtot   -0.429
         6            c5bf         1   UNL        c5         6    -0.09915       12.0110 ; qtot   -0.529
         7            c6bf         1   UNL        c6         7    -0.10378       12.0110 ; qtot   -0.632
         8            c7bf         1   UNL        c7         8     0.68763       12.0110 ; qtot    0.055
         9            n8bf         1   UNL        n8         9    -0.56418       14.0070 ; qtot   -0.509
        10            c9bf         1   UNL        c9        10     0.61630       12.0110 ; qtot    0.107
        11           o10bf         1   UNL       o10        11    -0.56286       15.9990 ; qtot   -0.455
        12           n11bf         1   UNL       n11        12    -0.81283       14.0070 ; qtot   -1.268
        13           c12bf         1   UNL       c12        13     0.74893       12.0110 ; qtot   -0.519
        14           c13bf         1   UNL       c13        14    -0.27562       12.0110 ; qtot   -0.795
        15           c14bf         1   UNL       c14        15     0.29241       12.0110 ; qtot   -0.503
        16           c15bf         1   UNL       c15        16    -0.37328       12.0110 ; qtot   -0.876
        17           o16bf         1   UNL       o16        17    -0.33726       15.9990 ; qtot   -1.213
        18           c17bf         1   UNL       c17        18     0.12101       12.0110 ; qtot   -1.092
        19           n18bf         1   UNL       n18        19    -0.84340       14.0070 ; qtot   -1.935
        20           c19bf         1   UNL       c19        20     0.25799       12.0110 ; qtot   -1.677
        21           o20bf         1   UNL       o20        21    -0.43968       15.9990 ; qtot   -2.117
        22           c21bf         1   UNL       c21        22     0.14806       12.0110 ; qtot   -1.969
        23           c22bf         1   UNL       c22        23    -0.10946       12.0110 ; qtot   -2.079
        24           n23bf         1   UNL       n23        24    -0.37938       14.0070 ; qtot   -2.458
        25           h24bf         1   UNL       h24        25     0.13595        1.0080 ; qtot   -2.322
        26           h25bf         1   UNL       h25        26     0.14045        1.0080 ; qtot   -2.182
        27           h26bf         1   UNL       h26        27     0.17105        1.0080 ; qtot   -2.010
        28           h27bf         1   UNL       h27        28     0.08297        1.0080 ; qtot   -1.927
        29           h28bf         1   UNL       h28        29     0.08297        1.0080 ; qtot   -1.845
        30           h29bf         1   UNL       h29        30     0.34304        1.0080 ; qtot   -1.501
        31           h30bf         1   UNL       h30        31     0.04268        1.0080 ; qtot   -1.459
        32           h31bf         1   UNL       h31        32     0.04268        1.0080 ; qtot   -1.416
        33           h32bf         1   UNL       h32        33     0.04268        1.0080 ; qtot   -1.373
        34           h33bf         1   UNL       h33        34     0.42823        1.0080 ; qtot   -0.945
        35           h34bf         1   UNL       h34        35     0.42823        1.0080 ; qtot   -0.517
        36           h35bf         1   UNL       h35        36     0.05417        1.0080 ; qtot   -0.463
        37           h36bf         1   UNL       h36        37     0.05417        1.0080 ; qtot   -0.409
        38           h37bf         1   UNL       h37        38     0.04638        1.0080 ; qtot   -0.362
        39           h38bf         1   UNL       h38        39     0.04638        1.0080 ; qtot   -0.316
        40           h39bf         1   UNL       h39        40     0.04638        1.0080 ; qtot   -0.269
        41           h40bf         1   UNL       h40        41     0.13529        1.0080 ; qtot   -0.134
        42           h41bf         1   UNL       h41        42     0.13421        1.0080 ; qtot    0.000

[ bonds ]
;       ai        aj funct               r               k
         1         2     1        0.139841   349111.897656    ;  uncertainty r = 0.000028, k = 1.282605
         1         6     1        0.139662   372563.391309    ;  uncertainty r = 0.000031, k = 2.739011
         1        25     1        0.108760   338278.366357    ;  uncertainty r = 0.000030, k = 0.608574
         2         3     1        0.140529   338081.041113    ;  uncertainty r = 0.000088, k = 3.248273
         2        17     1        0.137279   323850.282617    ;  uncertainty r = 0.000038, k = 4.790454
         3         4     1        0.139654   351159.846143    ;  uncertainty r = 0.000034, k = 2.854687
         3         7     1        0.150882   230434.438428    ;  uncertainty r = 0.000070, k = 8.083600
         4         5     1        0.139671   370701.940332    ;  uncertainty r = 0.000045, k = 2.873266
         4        26     1        0.108793   332671.055566    ;  uncertainty r = 0.000030, k = 2.103511
         5         6     1        0.139454   376535.152393    ;  uncertainty r = 0.000007, k = 1.686061
         5        42     1        0.108810   333812.666504    ;  uncertainty r = 0.000014, k = 1.254088
         6        41     1        0.108779   333347.099463    ;  uncertainty r = 0.000012, k = 0.897872
         7         8     1        0.152827   199895.094531    ;  uncertainty r = 0.000116, k = 8.911908
         7        28     1        0.109501   313634.289697    ;  uncertainty r = 0.000045, k = 1.600835
         7        29     1        0.109501   313634.289697    ;  uncertainty r = 0.000045, k = 1.600835
         8         9     1        0.139063   380563.733545    ;  uncertainty r = 0.000122, k = 15.522499
         8        11     1        0.123489   716612.965625    ;  uncertainty r = 0.000142, k = 14.631314
         9        10     1        0.141552   453112.388477    ;  uncertainty r = 0.000171, k = 16.995177
         9        30     1        0.102183   460638.685352    ;  uncertainty r = 0.000033, k = 7.805120
        10        12     1        0.136164   462092.717285    ;  uncertainty r = 0.000237, k = 23.302980
        10        16     1        0.140146   393200.644434    ;  uncertainty r = 0.000118, k = 23.611463
        12        13     1        0.133170   365720.620703    ;  uncertainty r = 0.000147, k = 12.046328
        13        14     1        0.141968   371541.574951    ;  uncertainty r = 0.000143, k = 9.618427
        13        21     1        0.134001   309467.348486    ;  uncertainty r = 0.000208, k = 19.064264
        14        15     1        0.142732   398004.430078    ;  uncertainty r = 0.000133, k = 15.342148
        14        20     1        0.142633   330721.450488    ;  uncertainty r = 0.000093, k = 10.220795
        15        16     1        0.141328   422706.092920    ;  uncertainty r = 0.000138, k = 7.904458
        15        19     1        0.139026   371108.056982    ;  uncertainty r = 0.000153, k = 27.823547
        16        27     1        0.108832   343723.618652    ;  uncertainty r = 0.000047, k = 2.764878
        17        18     1        0.142309   248398.364795    ;  uncertainty r = 0.000036, k = 2.413757
        18        31     1        0.109585   311301.704590    ;  uncertainty r = 0.000018, k = 1.291915
        18        32     1        0.109585   311301.704590    ;  uncertainty r = 0.000018, k = 1.291915
        18        33     1        0.109585   311301.704590    ;  uncertainty r = 0.000018, k = 1.291915
        19        34     1        0.101300   420077.839160    ;  uncertainty r = 0.000037, k = 2.878755
        19        35     1        0.101300   420077.839160    ;  uncertainty r = 0.000037, k = 2.878755
        20        24     1        0.116793  1128378.016016    ;  uncertainty r = 0.000033, k = 2.941856
        21        22     1        0.143415   236826.453516    ;  uncertainty r = 0.000091, k = 8.064367
        22        23     1        0.152626   226341.248389    ;  uncertainty r = 0.000055, k = 5.899824
        22        36     1        0.109456   307655.133057    ;  uncertainty r = 0.000021, k = 1.559620
        22        37     1        0.109456   307655.133057    ;  uncertainty r = 0.000021, k = 1.559620
        23        38     1        0.109562   311419.839258    ;  uncertainty r = 0.000014, k = 1.901800
        23        39     1        0.109562   311419.839258    ;  uncertainty r = 0.000014, k = 1.901800
        23        40     1        0.109562   311419.839258    ;  uncertainty r = 0.000014, k = 1.901800

[ angles ]
;       ai        aj        ak funct           theta             cth
         1         2         3     1      124.006187      380.514517    ;  uncertainty theta = 0.003866, k = 0.081468
         1         2        17     1      119.771622      426.752039    ;  uncertainty theta = 0.004381, k = 0.085104
         1         6         5     1      119.166969      513.448515    ;  uncertainty theta = 0.001645, k = 0.030786
         1         6        41     1      120.334152      282.158245    ;  uncertainty theta = 0.001387, k = 0.075735
         2         1         6     1      120.043823      505.025386    ;  uncertainty theta = 0.001990, k = 0.092149
         2         1        25     1      118.082375      269.132595    ;  uncertainty theta = 0.002487, k = 0.072247
         2         3         4     1      120.370018      442.791100    ;  uncertainty theta = 0.003998, k = 0.137798
         2         3         7     1      118.748085      405.966684    ;  uncertainty theta = 0.003782, k = 0.102239
         2        17        18     1      110.959412      508.557647    ;  uncertainty theta = 0.001950, k = 0.062999
         3         2        17     1      116.583755      448.379641    ;  uncertainty theta = 0.003040, k = 0.121991
         3         4         5     1      122.085266      514.060926    ;  uncertainty theta = 0.002140, k = 0.090679
         3         4        26     1      117.244164      268.877416    ;  uncertainty theta = 0.001392, k = 0.040136
         3         7         8     1      111.759018      504.598885    ;  uncertainty theta = 0.002980, k = 0.184892
         3         7        28     1      107.924484      395.926099    ;  uncertainty theta = 0.002187, k = 0.117042
         3         7        29     1      107.924484      395.926099    ;  uncertainty theta = 0.002187, k = 0.117042
         4         3         7     1      120.969162      419.357195    ;  uncertainty theta = 0.002859, k = 0.045589
         4         5         6     1      118.191444      510.894293    ;  uncertainty theta = 0.001023, k = 0.021025
         4         5        42     1      120.447647      286.933493    ;  uncertainty theta = 0.002133, k = 0.034314
         5         4        26     1      120.251625      292.613552    ;  uncertainty theta = 0.001730, k = 0.039006
         5         6        41     1      120.853348      286.498276    ;  uncertainty theta = 0.000770, k = 0.010370
         6         1        25     1      120.679482      285.133254    ;  uncertainty theta = 0.002169, k = 0.020748
         6         5        42     1      120.800926      288.066861    ;  uncertainty theta = 0.001556, k = 0.029724
         7         8         9     1      112.067261      504.716866    ;  uncertainty theta = 0.005312, k = 0.088805
         7         8        11     1      125.105179      512.996444    ;  uncertainty theta = 0.003370, k = 0.162144
         8         7        28     1      106.411949      360.668480    ;  uncertainty theta = 0.002145, k = 0.179457
         8         7        29     1      106.411949      360.668480    ;  uncertainty theta = 0.002145, k = 0.179457
         8         9        10     1      120.651833      441.608476    ;  uncertainty theta = 0.003542, k = 0.155802
         8         9        30     1      117.210800      264.588809    ;  uncertainty theta = 0.004813, k = 0.856046
         9         8        11     1      123.519814      778.447003    ;  uncertainty theta = 0.002106, k = 0.093869
         9        10        12     1      120.224754      768.711044    ;  uncertainty theta = 0.005858, k = 0.157945
         9        10        16     1      122.278137      533.311278    ;  uncertainty theta = 0.005250, k = 0.406084
        10         9        30     1      117.066086      336.130415    ;  uncertainty theta = 0.002657, k = 0.114965
        10        12        13     1      118.396202      413.897744    ;  uncertainty theta = 0.010734, k = 0.179891
        10        16        15     1      113.982933      516.057066    ;  uncertainty theta = 0.005279, k = 0.322192
        10        16        27     1      121.581764      266.638242    ;  uncertainty theta = 0.003427, k = 0.119353
        12        10        16     1      123.014938      557.585482    ;  uncertainty theta = 0.009119, k = 0.103918
        12        13        14     1      126.561386      519.298843    ;  uncertainty theta = 0.004561, k = 0.250377
        12        13        21     1      118.442764      605.400208    ;  uncertainty theta = 0.004270, k = 0.151631
        13        14        15     1      121.217224      479.784922    ;  uncertainty theta = 0.002823, k = 0.428578
        13        14        20     1      121.196106      385.989897    ;  uncertainty theta = 0.008969, k = 0.106773
        13        21        22     1      109.510330      497.766718    ;  uncertainty theta = 0.002796, k = 0.106304
        14        13        21     1      116.129417      472.792607    ;  uncertainty theta = 0.003388, k = 0.179404
        14        15        16     1      117.484238      427.730909    ;  uncertainty theta = 0.002903, k = 0.240097
        14        15        19     1      120.585159      576.926586    ;  uncertainty theta = 0.004519, k = 0.090792
        14        20        24     1      180.000000      241.307265    ;  uncertainty theta = 0.000000, k = 0.719628
        15        14        20     1      117.830177      369.460747    ;  uncertainty theta = 0.006627, k = 0.174269
        15        16        27     1      121.593582      279.201047    ;  uncertainty theta = 0.003701, k = 0.115080
        15        19        34     1      113.768478      388.852256    ;  uncertainty theta = 0.002252, k = 0.082774
        15        19        35     1      113.768478      388.852256    ;  uncertainty theta = 0.002252, k = 0.082774
        16        15        19     1      126.082375      568.295682    ;  uncertainty theta = 0.002505, k = 0.080621
        17        18        31     1      108.975418      444.500650    ;  uncertainty theta = 0.001014, k = 0.026124
        17        18        32     1      108.975418      444.500650    ;  uncertainty theta = 0.001014, k = 0.026124
        17        18        33     1      108.975418      444.500650    ;  uncertainty theta = 0.001014, k = 0.026124
        21        22        23     1      109.110916      620.838029    ;  uncertainty theta = 0.001375, k = 0.075038
        21        22        36     1      105.721947      414.764888    ;  uncertainty theta = 0.001556, k = 0.030032
        21        22        37     1      105.721947      414.764888    ;  uncertainty theta = 0.001556, k = 0.030032
        22        23        38     1      107.823227      406.328545    ;  uncertainty theta = 0.001985, k = 0.034929
        22        23        39     1      107.823227      406.328545    ;  uncertainty theta = 0.001985, k = 0.034929
        22        23        40     1      107.823227      406.328545    ;  uncertainty theta = 0.001985, k = 0.034929
        23        22        36     1      110.683960      420.952626    ;  uncertainty theta = 0.001109, k = 0.013076
        23        22        37     1      110.683960      420.952626    ;  uncertainty theta = 0.001109, k = 0.013076
        28         7        29     1      105.772240      309.880341    ;  uncertainty theta = 0.005014, k = 0.036719
        31        18        32     1      109.085167      330.320914    ;  uncertainty theta = 0.001597, k = 0.020763
        31        18        33     1      109.085167      330.320914    ;  uncertainty theta = 0.001597, k = 0.020763
        32        18        33     1      109.085159      330.320914    ;  uncertainty theta = 0.001597, k = 0.020763
        34        19        35     1      107.812782      286.090864    ;  uncertainty theta = 0.005516, k = 0.089415
        36        22        37     1      107.605186      326.746644    ;  uncertainty theta = 0.002467, k = 0.048866
        38        23        39     1      105.445511      313.896945    ;  uncertainty theta = 0.002263, k = 0.009799
        38        23        40     1      105.445511      313.896977    ;  uncertainty theta = 0.002263, k = 0.009799
        39        23        40     1      105.445511      313.896977    ;  uncertainty theta = 0.002263, k = 0.009799

[ dihedrals ] ; propers for gromacs 4.5 or higher, use funct 9
;       ai        aj        ak        al funct           phase               k        pn
         1         2         3         4     9        0.000000       -0.272353         1    ;  uncertainty k = 0.275698
         1         2         3         4     9      180.000000        6.561589         2    ;  uncertainty k = 0.863783
         1         2         3         4     9        0.000000        0.304629         3    ;  uncertainty k = 0.237288
         1         2         3         4     9      180.000000        1.254283         4    ;  uncertainty k = 0.386033
         1         2         3         7     9        0.000000        0.501394         1    ;  uncertainty k = 0.328110
         1         2         3         7     9      180.000000        6.506004         2    ;  uncertainty k = 0.332760
         1         2         3         7     9        0.000000        1.203587         3    ;  uncertainty k = 0.416440
         1         2         3         7     9      180.000000        1.673607         4    ;  uncertainty k = 0.315957
         1         2        17        18     9        0.000000        2.340580         1    ;  uncertainty k = 0.564840
         1         2        17        18     9      180.000000        6.886434         2    ;  uncertainty k = 0.084591
         1         2        17        18     9        0.000000        0.225990         3    ;  uncertainty k = 0.185038
         1         2        17        18     9      180.000000        0.046491         4    ;  uncertainty k = 0.073843
         1         6         5         4     9        0.000000        0.071978         1    ;  uncertainty k = 0.208893
         1         6         5         4     9      180.000000       15.411762         2    ;  uncertainty k = 0.370757
         1         6         5         4     9        0.000000       -1.374872         3    ;  uncertainty k = 0.504643
         1         6         5         4     9      180.000000        0.499245         4    ;  uncertainty k = 0.317745
         1         6         5        42     9        0.000000        0.164606         1    ;  uncertainty k = 0.154822
         1         6         5        42     9      180.000000        7.777129         2    ;  uncertainty k = 0.420449
         1         6         5        42     9        0.000000        1.433205         3    ;  uncertainty k = 0.287077
         1         6         5        42     9      180.000000        1.801671         4    ;  uncertainty k = 0.145200
         2         1         6         5     9        0.000000       -0.128705         1    ;  uncertainty k = 0.178049
         2         1         6         5     9      180.000000       14.250707         2    ;  uncertainty k = 0.308022
         2         1         6         5     9        0.000000       -1.044422         3    ;  uncertainty k = 0.383514
         2         1         6         5     9      180.000000        0.716641         4    ;  uncertainty k = 0.250348
         2         1         6        41     9        0.000000       -0.025121         1    ;  uncertainty k = 0.323021
         2         1         6        41     9      180.000000        7.654645         2    ;  uncertainty k = 0.469733
         2         1         6        41     9        0.000000        1.280961         3    ;  uncertainty k = 0.235638
         2         1         6        41     9      180.000000        1.679244         4    ;  uncertainty k = 0.131081
         2         3         4         5     9        0.000000       -0.162556         1    ;  uncertainty k = 0.193579
         2         3         4         5     9      180.000000       11.919422         2    ;  uncertainty k = 0.365503
         2         3         4         5     9        0.000000       -0.157000         3    ;  uncertainty k = 0.153500
         2         3         4         5     9      180.000000        1.027288         4    ;  uncertainty k = 0.253848
         2         3         4        26     9        0.000000        0.109258         1    ;  uncertainty k = 0.124381
         2         3         4        26     9      180.000000        8.546626         2    ;  uncertainty k = 0.361463
         2         3         4        26     9        0.000000        1.233190         3    ;  uncertainty k = 0.317090
         2         3         4        26     9      180.000000        1.608339         4    ;  uncertainty k = 0.101691
         2         3         7         8     9        0.000000        1.987794         1    ;  uncertainty k = 1.056794
         2         3         7         8     9      180.000000        1.777343         2    ;  uncertainty k = 0.494015
         2         3         7         8     9        0.000000        0.449040         3    ;  uncertainty k = 0.191767
         2         3         7         8     9      180.000000        0.273253         4    ;  uncertainty k = 0.076044
         2         3         7        28     9        0.000000       -0.044178         1    ;  uncertainty k = 0.623117
         2         3         7        28     9      180.000000        2.644260         2    ;  uncertainty k = 0.229300
         2         3         7        28     9        0.000000        0.226385         3    ;  uncertainty k = 0.127963
         2         3         7        28     9      180.000000        0.378109         4    ;  uncertainty k = 0.106259
         2         3         7        29     9        0.000000       -0.044178         1    ;  uncertainty k = 0.623117
         2         3         7        29     9      180.000000        2.644260         2    ;  uncertainty k = 0.229300
         2         3         7        29     9        0.000000        0.226385         3    ;  uncertainty k = 0.127963
         2         3         7        29     9      180.000000        0.378109         4    ;  uncertainty k = 0.106259
         2        17        18        31     9        0.000000        1.079675         1    ;  uncertainty k = 0.222973
         2        17        18        31     9      180.000000       -1.934662         2    ;  uncertainty k = 0.142403
         2        17        18        31     9        0.000000        0.998470         3    ;  uncertainty k = 0.060149
         2        17        18        31     9      180.000000        0.257805         4    ;  uncertainty k = 0.062264
         2        17        18        32     9        0.000000        1.079675         1    ;  uncertainty k = 0.222973
         2        17        18        32     9      180.000000       -1.934662         2    ;  uncertainty k = 0.142403
         2        17        18        32     9        0.000000        0.998470         3    ;  uncertainty k = 0.060149
         2        17        18        32     9      180.000000        0.257805         4    ;  uncertainty k = 0.062264
         2        17        18        33     9        0.000000        1.079675         1    ;  uncertainty k = 0.222973
         2        17        18        33     9      180.000000       -1.934662         2    ;  uncertainty k = 0.142403
         2        17        18        33     9        0.000000        0.998470         3    ;  uncertainty k = 0.060149
         2        17        18        33     9      180.000000        0.257805         4    ;  uncertainty k = 0.062264
         3         2         1         6     9        0.000000        0.115338         1    ;  uncertainty k = 0.166151
         3         2         1         6     9      180.000000        8.252809         2    ;  uncertainty k = 0.627562
         3         2         1         6     9        0.000000        0.326484         3    ;  uncertainty k = 0.363438
         3         2         1         6     9      180.000000        1.347556         4    ;  uncertainty k = 0.290425
         3         2         1        25     9        0.000000        0.154954         1    ;  uncertainty k = 0.470241
         3         2         1        25     9      180.000000        5.906515         2    ;  uncertainty k = 0.642589
         3         2         1        25     9        0.000000        1.374962         3    ;  uncertainty k = 0.343392
         3         2         1        25     9      180.000000        1.594809         4    ;  uncertainty k = 0.047678
         3         2        17        18     9        0.000000       -2.148070         1    ;  uncertainty k = 0.654268
         3         2        17        18     9      180.000000        7.129275         2    ;  uncertainty k = 0.175745
         3         2        17        18     9        0.000000        0.561289         3    ;  uncertainty k = 0.278029
         3         2        17        18     9      180.000000        0.247826         4    ;  uncertainty k = 0.136826
         3         4         5         6     9        0.000000       -0.081538         1    ;  uncertainty k = 0.069658
         3         4         5         6     9      180.000000       13.331303         2    ;  uncertainty k = 0.320163
         3         4         5         6     9        0.000000       -1.061670         3    ;  uncertainty k = 0.573128
         3         4         5         6     9      180.000000        0.752913         4    ;  uncertainty k = 0.223943
         3         4         5        42     9        0.000000        0.102443         1    ;  uncertainty k = 0.419270
         3         4         5        42     9      180.000000        6.836244         2    ;  uncertainty k = 0.567853
         3         4         5        42     9        0.000000        1.428932         3    ;  uncertainty k = 0.201800
         3         4         5        42     9      180.000000        1.792062         4    ;  uncertainty k = 0.095615
         3         7         8         9     9        0.000000       -0.476158         1    ;  uncertainty k = 0.570917
         3         7         8         9     9      180.000000        2.233511         2    ;  uncertainty k = 0.471247
         3         7         8         9     9        0.000000        0.525088         3    ;  uncertainty k = 0.160942
         3         7         8         9     9      180.000000        0.219206         4    ;  uncertainty k = 0.127715
         3         7         8        11     9        0.000000       -1.522000         1    ;  uncertainty k = 0.685516
         3         7         8        11     9      180.000000        4.223654         2    ;  uncertainty k = 0.437189
         3         7         8        11     9        0.000000        0.966088         3    ;  uncertainty k = 0.200064
         3         7         8        11     9      180.000000        0.401112         4    ;  uncertainty k = 0.135819
         4         3         2        17     9        0.000000        0.214285         1    ;  uncertainty k = 0.190389
         4         3         2        17     9      180.000000       10.115126         2    ;  uncertainty k = 0.277217
         4         3         2        17     9        0.000000        1.170546         3    ;  uncertainty k = 0.301289
         4         3         2        17     9      180.000000        1.558776         4    ;  uncertainty k = 0.142208
         4         3         7         8     9        0.000000        0.730380         1    ;  uncertainty k = 0.720939
         4         3         7         8     9      180.000000        1.572561         2    ;  uncertainty k = 0.328365
         4         3         7         8     9        0.000000        0.358389         3    ;  uncertainty k = 0.192490
         4         3         7         8     9      180.000000        0.180852         4    ;  uncertainty k = 0.070269
         4         3         7        28     9        0.000000       -0.501964         1    ;  uncertainty k = 0.410405
         4         3         7        28     9      180.000000        2.256188         2    ;  uncertainty k = 0.227655
         4         3         7        28     9        0.000000        0.287606         3    ;  uncertainty k = 0.118164
         4         3         7        28     9      180.000000        0.195175         4    ;  uncertainty k = 0.053379
         4         3         7        29     9        0.000000       -0.501964         1    ;  uncertainty k = 0.410405
         4         3         7        29     9      180.000000        2.256188         2    ;  uncertainty k = 0.227655
         4         3         7        29     9        0.000000        0.287606         3    ;  uncertainty k = 0.118164
         4         3         7        29     9      180.000000        0.195175         4    ;  uncertainty k = 0.053379
         4         5         6        41     9        0.000000        0.101456         1    ;  uncertainty k = 0.139929
         4         5         6        41     9      180.000000        7.555364         2    ;  uncertainty k = 0.277068
         4         5         6        41     9        0.000000        1.424714         3    ;  uncertainty k = 0.315939
         4         5         6        41     9      180.000000        1.749856         4    ;  uncertainty k = 0.174655
         5         4         3         7     9        0.000000        0.031770         1    ;  uncertainty k = 0.163151
         5         4         3         7     9      180.000000        9.203699         2    ;  uncertainty k = 0.451877
         5         4         3         7     9        0.000000        1.536211         3    ;  uncertainty k = 0.235434
         5         4         3         7     9      180.000000        1.853887         4    ;  uncertainty k = 0.164049
         5         6         1        25     9        0.000000        0.151507         1    ;  uncertainty k = 0.133199
         5         6         1        25     9      180.000000        7.640534         2    ;  uncertainty k = 0.303396
         5         6         1        25     9        0.000000        1.487476         3    ;  uncertainty k = 0.296273
         5         6         1        25     9      180.000000        1.818615         4    ;  uncertainty k = 0.131642
         6         1         2        17     9        0.000000       -0.014069         1    ;  uncertainty k = 0.341775
         6         1         2        17     9      180.000000       11.528252         2    ;  uncertainty k = 0.249732
         6         1         2        17     9        0.000000        1.263268         3    ;  uncertainty k = 0.280357
         6         1         2        17     9      180.000000        1.630462         4    ;  uncertainty k = 0.134386
         6         5         4        26     9        0.000000        0.071985         1    ;  uncertainty k = 0.100876
         6         5         4        26     9      180.000000        7.608378         2    ;  uncertainty k = 0.409176
         6         5         4        26     9        0.000000        1.390884         3    ;  uncertainty k = 0.295324
         6         5         4        26     9      180.000000        1.773512         4    ;  uncertainty k = 0.150839
         7         3         2        17     9        0.000000        0.008046         1    ;  uncertainty k = 0.472505
         7         3         2        17     9      180.000000       11.892321         2    ;  uncertainty k = 0.545572
         7         3         2        17     9        0.000000        0.866370         3    ;  uncertainty k = 0.392156
         7         3         2        17     9      180.000000        1.343082         4    ;  uncertainty k = 0.224534
         7         3         4        26     9        0.000000       -0.190394         1    ;  uncertainty k = 0.205783
         7         3         4        26     9      180.000000        7.585824         2    ;  uncertainty k = 0.402752
         7         3         4        26     9        0.000000        0.628060         3    ;  uncertainty k = 0.419441
         7         3         4        26     9      180.000000        1.206480         4    ;  uncertainty k = 0.282757
         7         8         9        10     9        0.000000        4.658032         1    ;  uncertainty k = 0.689890
         7         8         9        10     9      180.000000        7.639867         2    ;  uncertainty k = 0.313848
         7         8         9        10     9        0.000000        0.818998         3    ;  uncertainty k = 0.362561
         7         8         9        10     9      180.000000       -0.187759         4    ;  uncertainty k = 0.238368
         7         8         9        30     9        0.000000        0.869049         1    ;  uncertainty k = 0.528453
         7         8         9        30     9      180.000000        5.509552         2    ;  uncertainty k = 0.559186
         7         8         9        30     9        0.000000        1.657838         3    ;  uncertainty k = 0.185983
         7         8         9        30     9      180.000000        0.031392         4    ;  uncertainty k = 0.278635
         8         9        10        12     9        0.000000        2.036595         1    ;  uncertainty k = 1.243319
         8         9        10        12     9      180.000000        7.082785         2    ;  uncertainty k = 0.367231
         8         9        10        12     9        0.000000        0.897247         3    ;  uncertainty k = 0.195168
         8         9        10        12     9      180.000000       -0.256758         4    ;  uncertainty k = 0.225803
         8         9        10        16     9        0.000000       -0.263671         1    ;  uncertainty k = 1.359134
         8         9        10        16     9      180.000000        5.560786         2    ;  uncertainty k = 0.239106
         8         9        10        16     9        0.000000        0.536590         3    ;  uncertainty k = 0.116520
         8         9        10        16     9      180.000000       -0.243126         4    ;  uncertainty k = 0.185800
         9         8         7        28     9        0.000000       -1.172116         1    ;  uncertainty k = 0.292734
         9         8         7        28     9      180.000000        2.845022         2    ;  uncertainty k = 0.367349
         9         8         7        28     9        0.000000        0.222933         3    ;  uncertainty k = 0.093490
         9         8         7        28     9      180.000000        0.068512         4    ;  uncertainty k = 0.106108
         9         8         7        29     9        0.000000       -1.172116         1    ;  uncertainty k = 0.292734
         9         8         7        29     9      180.000000        2.845022         2    ;  uncertainty k = 0.367349
         9         8         7        29     9        0.000000        0.222933         3    ;  uncertainty k = 0.093490
         9         8         7        29     9      180.000000        0.068512         4    ;  uncertainty k = 0.106108
         9        10        12        13     9        0.000000       -0.287058         1    ;  uncertainty k = 0.846068
         9        10        12        13     9      180.000000       14.346966         2    ;  uncertainty k = 0.356749
         9        10        12        13     9        0.000000        1.990211         3    ;  uncertainty k = 0.555843
         9        10        12        13     9      180.000000        1.639940         4    ;  uncertainty k = 0.535043
         9        10        16        15     9        0.000000        0.126116         1    ;  uncertainty k = 0.694904
         9        10        16        15     9      180.000000       10.311010         2    ;  uncertainty k = 0.354821
         9        10        16        15     9        0.000000        1.009975         3    ;  uncertainty k = 0.371826
         9        10        16        15     9      180.000000        1.171697         4    ;  uncertainty k = 0.312850
         9        10        16        27     9        0.000000       -0.283095         1    ;  uncertainty k = 0.411758
         9        10        16        27     9      180.000000        7.046675         2    ;  uncertainty k = 0.484512
         9        10        16        27     9        0.000000        1.005820         3    ;  uncertainty k = 0.162759
         9        10        16        27     9      180.000000        0.948056         4    ;  uncertainty k = 0.400045
        10         9         8        11     9        0.000000        4.133006         1    ;  uncertainty k = 0.494385
        10         9         8        11     9      180.000000       17.191458         2    ;  uncertainty k = 0.239049
        10         9         8        11     9        0.000000        0.572943         3    ;  uncertainty k = 0.140968
        10         9         8        11     9      180.000000       -1.289237         4    ;  uncertainty k = 0.196962
        10        12        13        14     9        0.000000       -0.134449         1    ;  uncertainty k = 0.748387
        10        12        13        14     9      180.000000        9.912518         2    ;  uncertainty k = 0.360617
        10        12        13        14     9        0.000000        1.572807         3    ;  uncertainty k = 0.519990
        10        12        13        14     9      180.000000        1.200340         4    ;  uncertainty k = 0.408118
        10        12        13        21     9        0.000000        0.502343         1    ;  uncertainty k = 1.201616
        10        12        13        21     9      180.000000       14.176230         2    ;  uncertainty k = 0.344464
        10        12        13        21     9        0.000000        2.364144         3    ;  uncertainty k = 0.531148
        10        12        13        21     9      180.000000        1.505332         4    ;  uncertainty k = 0.188230
        10        16        15        14     9        0.000000       -0.073776         1    ;  uncertainty k = 0.309551
        10        16        15        14     9      180.000000        7.996001         2    ;  uncertainty k = 0.986235
        10        16        15        14     9        0.000000        0.157134         3    ;  uncertainty k = 0.423554
        10        16        15        14     9      180.000000        1.240112         4    ;  uncertainty k = 0.344697
        10        16        15        19     9        0.000000       -0.330766         1    ;  uncertainty k = 0.831441
        10        16        15        19     9      180.000000        9.847893         2    ;  uncertainty k = 0.474596
        10        16        15        19     9        0.000000        0.856731         3    ;  uncertainty k = 0.349573
        10        16        15        19     9      180.000000        1.151218         4    ;  uncertainty k = 0.263543
        11         8         7        28     9        0.000000        0.078955         1    ;  uncertainty k = 0.280392
        11         8         7        28     9      180.000000        4.119276         2    ;  uncertainty k = 0.330204
        11         8         7        28     9        0.000000        0.596706         3    ;  uncertainty k = 0.098189
        11         8         7        28     9      180.000000        0.294390         4    ;  uncertainty k = 0.071666
        11         8         7        29     9        0.000000        0.078955         1    ;  uncertainty k = 0.280392
        11         8         7        29     9      180.000000        4.119276         2    ;  uncertainty k = 0.330204
        11         8         7        29     9        0.000000        0.596706         3    ;  uncertainty k = 0.098189
        11         8         7        29     9      180.000000        0.294390         4    ;  uncertainty k = 0.071666
        11         8         9        30     9        0.000000        2.750074         1    ;  uncertainty k = 0.897579
        11         8         9        30     9      180.000000       14.049828         2    ;  uncertainty k = 0.278745
        11         8         9        30     9        0.000000        1.102512         3    ;  uncertainty k = 0.141275
        11         8         9        30     9      180.000000       -0.359929         4    ;  uncertainty k = 0.195301
        12        10         9        30     9        0.000000        7.193412         1    ;  uncertainty k = 0.462281
        12        10         9        30     9      180.000000        5.163654         2    ;  uncertainty k = 0.593263
        12        10         9        30     9        0.000000        0.023637         3    ;  uncertainty k = 0.285850
        12        10         9        30     9      180.000000        0.083833         4    ;  uncertainty k = 0.229426
        12        10        16        15     9        0.000000       -0.104497         1    ;  uncertainty k = 0.398292
        12        10        16        15     9      180.000000       11.295169         2    ;  uncertainty k = 0.714584
        12        10        16        15     9        0.000000       -0.676779         3    ;  uncertainty k = 0.671303
        12        10        16        15     9      180.000000        1.074034         4    ;  uncertainty k = 0.238313
        12        10        16        27     9        0.000000        0.361026         1    ;  uncertainty k = 0.745384
        12        10        16        27     9      180.000000        8.722461         2    ;  uncertainty k = 0.756875
        12        10        16        27     9        0.000000        1.235261         3    ;  uncertainty k = 0.310839
        12        10        16        27     9      180.000000        1.393341         4    ;  uncertainty k = 0.262392
        12        13        14        15     9        0.000000       -0.232505         1    ;  uncertainty k = 0.605166
        12        13        14        15     9      180.000000        6.713869         2    ;  uncertainty k = 1.045405
        12        13        14        15     9        0.000000       -0.187477         3    ;  uncertainty k = 0.207868
        12        13        14        15     9      180.000000        0.982166         4    ;  uncertainty k = 0.322222
        12        13        14        20     9        0.000000       -0.307075         1    ;  uncertainty k = 0.725834
        12        13        14        20     9      180.000000        8.809722         2    ;  uncertainty k = 0.975615
        12        13        14        20     9        0.000000        0.773771         3    ;  uncertainty k = 0.371795
        12        13        14        20     9      180.000000        0.999096         4    ;  uncertainty k = 0.428189
        12        13        21        22     9        0.000000        4.044463         1    ;  uncertainty k = 1.235908
        12        13        21        22     9      180.000000       11.441330         2    ;  uncertainty k = 0.111226
        12        13        21        22     9        0.000000        0.448241         3    ;  uncertainty k = 0.407083
        12        13        21        22     9      180.000000        0.151120         4    ;  uncertainty k = 0.132585
        13        12        10        16     9        0.000000       -0.316812         1    ;  uncertainty k = 1.246550
        13        12        10        16     9      180.000000       11.264850         2    ;  uncertainty k = 0.444789
        13        12        10        16     9        0.000000        0.995871         3    ;  uncertainty k = 0.423750
        13        12        10        16     9      180.000000        1.238035         4    ;  uncertainty k = 0.446611
        13        14        15        16     9        0.000000       -0.082074         1    ;  uncertainty k = 0.568705
        13        14        15        16     9      180.000000        6.238299         2    ;  uncertainty k = 1.292749
        13        14        15        16     9        0.000000        0.388475         3    ;  uncertainty k = 0.353584
        13        14        15        16     9      180.000000        1.227616         4    ;  uncertainty k = 0.243226
        13        14        15        19     9        0.000000       -0.727706         1    ;  uncertainty k = 0.553546
        13        14        15        19     9      180.000000        8.652593         2    ;  uncertainty k = 0.800092
        13        14        15        19     9        0.000000        0.735684         3    ;  uncertainty k = 0.183816
        13        14        15        19     9      180.000000        1.175797         4    ;  uncertainty k = 0.400624
        13        14        20        24     9        0.000000        0.000000         1    ;  uncertainty k = 0.000000
        13        14        20        24     9      180.000000        0.000000         2    ;  uncertainty k = 0.000000
        13        14        20        24     9        0.000000        0.000000         3    ;  uncertainty k = 0.000000
        13        14        20        24     9      180.000000        0.000000         4    ;  uncertainty k = 0.000000
        13        21        22        23     9        0.000000       -3.636195         1    ;  uncertainty k = 1.243291
        13        21        22        23     9      180.000000        1.423504         2    ;  uncertainty k = 0.333091
        13        21        22        23     9        0.000000        0.287748         3    ;  uncertainty k = 0.256573
        13        21        22        23     9      180.000000        0.676530         4    ;  uncertainty k = 0.137637
        13        21        22        36     9        0.000000        2.322710         1    ;  uncertainty k = 0.540625
        13        21        22        36     9      180.000000       -0.344541         2    ;  uncertainty k = 0.276977
        13        21        22        36     9        0.000000        0.082814         3    ;  uncertainty k = 0.079800
        13        21        22        36     9      180.000000        0.383139         4    ;  uncertainty k = 0.058960
        13        21        22        37     9        0.000000        2.322710         1    ;  uncertainty k = 0.540625
        13        21        22        37     9      180.000000       -0.344541         2    ;  uncertainty k = 0.276977
        13        21        22        37     9        0.000000        0.082814         3    ;  uncertainty k = 0.079800
        13        21        22        37     9      180.000000        0.383139         4    ;  uncertainty k = 0.058960
        14        13        21        22     9        0.000000       -0.309655         1    ;  uncertainty k = 0.988157
        14        13        21        22     9      180.000000        8.894146         2    ;  uncertainty k = 0.507453
        14        13        21        22     9        0.000000        0.138336         3    ;  uncertainty k = 0.570538
        14        13        21        22     9      180.000000       -0.035457         4    ;  uncertainty k = 0.143247
        14        15        16        27     9        0.000000        0.248056         1    ;  uncertainty k = 0.958381
        14        15        16        27     9      180.000000        6.811149         2    ;  uncertainty k = 0.465255
        14        15        16        27     9        0.000000        1.363311         3    ;  uncertainty k = 0.334370
        14        15        16        27     9      180.000000        1.320741         4    ;  uncertainty k = 0.267576
        14        15        19        34     9        0.000000       16.179241         1    ;  uncertainty k = 0.226508
        14        15        19        34     9      180.000000        8.686178         2    ;  uncertainty k = 0.232167
        14        15        19        34     9        0.000000        0.910135         3    ;  uncertainty k = 0.213786
        14        15        19        34     9      180.000000       -0.131487         4    ;  uncertainty k = 0.109493
        14        15        19        35     9        0.000000       16.179241         1    ;  uncertainty k = 0.226508
        14        15        19        35     9      180.000000        8.686178         2    ;  uncertainty k = 0.232167
        14        15        19        35     9        0.000000        0.910135         3    ;  uncertainty k = 0.213786
        14        15        19        35     9      180.000000       -0.131487         4    ;  uncertainty k = 0.109493
        15        14        13        21     9        0.000000        0.070744         1    ;  uncertainty k = 0.686436
        15        14        13        21     9      180.000000        6.610358         2    ;  uncertainty k = 0.662533
        15        14        13        21     9        0.000000        1.068355         3    ;  uncertainty k = 0.327950
        15        14        13        21     9      180.000000        1.138642         4    ;  uncertainty k = 0.433194
        15        14        20        24     9        0.000000        0.000000         1    ;  uncertainty k = 0.000000
        15        14        20        24     9      180.000000        0.000000         2    ;  uncertainty k = 0.000000
        15        14        20        24     9        0.000000        0.000000         3    ;  uncertainty k = 0.000000
        15        14        20        24     9      180.000000        0.000000         4    ;  uncertainty k = 0.000000
        16        10         9        30     9        0.000000        0.996703         1    ;  uncertainty k = 1.088402
        16        10         9        30     9      180.000000        5.158411         2    ;  uncertainty k = 0.639236
        16        10         9        30     9        0.000000        1.415645         3    ;  uncertainty k = 0.264055
        16        10         9        30     9      180.000000        0.157366         4    ;  uncertainty k = 0.160041
        16        15        14        20     9        0.000000        0.118231         1    ;  uncertainty k = 0.663075
        16        15        14        20     9      180.000000        7.761016         2    ;  uncertainty k = 0.752747
        16        15        14        20     9        0.000000        0.963725         3    ;  uncertainty k = 0.321347
        16        15        14        20     9      180.000000        1.184081         4    ;  uncertainty k = 0.547084
        16        15        19        34     9        0.000000       10.150943         1    ;  uncertainty k = 0.373654
        16        15        19        34     9      180.000000        9.585958         2    ;  uncertainty k = 0.358657
        16        15        19        34     9        0.000000        0.834747         3    ;  uncertainty k = 0.211714
        16        15        19        34     9      180.000000       -0.348757         4    ;  uncertainty k = 0.221362
        16        15        19        35     9        0.000000       10.150943         1    ;  uncertainty k = 0.373654
        16        15        19        35     9      180.000000        9.585958         2    ;  uncertainty k = 0.358657
        16        15        19        35     9        0.000000        0.834747         3    ;  uncertainty k = 0.211714
        16        15        19        35     9      180.000000       -0.348757         4    ;  uncertainty k = 0.221362
        17         2         1        25     9        0.000000       -0.120117         1    ;  uncertainty k = 0.119139
        17         2         1        25     9      180.000000        8.931546         2    ;  uncertainty k = 0.293829
        17         2         1        25     9        0.000000        0.771229         3    ;  uncertainty k = 0.160941
        17         2         1        25     9      180.000000        1.186380         4    ;  uncertainty k = 0.249215
        19        15        14        20     9        0.000000       -0.379135         1    ;  uncertainty k = 0.501361
        19        15        14        20     9      180.000000       10.387938         2    ;  uncertainty k = 0.380197
        19        15        14        20     9        0.000000        0.811351         3    ;  uncertainty k = 0.545627
        19        15        14        20     9      180.000000        0.962118         4    ;  uncertainty k = 0.290345
        19        15        16        27     9        0.000000       -0.546000         1    ;  uncertainty k = 0.474114
        19        15        16        27     9      180.000000        7.797048         2    ;  uncertainty k = 0.566356
        19        15        16        27     9        0.000000        0.717830         3    ;  uncertainty k = 0.278527
        19        15        16        27     9      180.000000        0.908902         4    ;  uncertainty k = 0.384357
        20        14        13        21     9        0.000000       -0.590021         1    ;  uncertainty k = 0.555767
        20        14        13        21     9      180.000000        9.321266         2    ;  uncertainty k = 0.983765
        20        14        13        21     9        0.000000        0.830295         3    ;  uncertainty k = 0.529237
        20        14        13        21     9      180.000000        0.902366         4    ;  uncertainty k = 0.417523
        21        22        23        38     9        0.000000       -0.903707         1    ;  uncertainty k = 0.401255
        21        22        23        38     9      180.000000       -3.423219         2    ;  uncertainty k = 0.318602
        21        22        23        38     9        0.000000        1.623618         3    ;  uncertainty k = 0.078292
        21        22        23        38     9      180.000000       -0.201488         4    ;  uncertainty k = 0.051868
        21        22        23        39     9        0.000000       -0.903707         1    ;  uncertainty k = 0.401255
        21        22        23        39     9      180.000000       -3.423219         2    ;  uncertainty k = 0.318602
        21        22        23        39     9        0.000000        1.623618         3    ;  uncertainty k = 0.078292
        21        22        23        39     9      180.000000       -0.201488         4    ;  uncertainty k = 0.051868
        21        22        23        40     9        0.000000       -0.903707         1    ;  uncertainty k = 0.401255
        21        22        23        40     9      180.000000       -3.423219         2    ;  uncertainty k = 0.318602
        21        22        23        40     9        0.000000        1.623618         3    ;  uncertainty k = 0.078292
        21        22        23        40     9      180.000000       -0.201488         4    ;  uncertainty k = 0.051868
        25         1         6        41     9        0.000000       -0.102497         1    ;  uncertainty k = 0.109011
        25         1         6        41     9      180.000000        7.305318         2    ;  uncertainty k = 0.377753
        25         1         6        41     9        0.000000       -0.407916         3    ;  uncertainty k = 0.250428
        25         1         6        41     9      180.000000        0.091647         4    ;  uncertainty k = 0.122747
        26         4         5        42     9        0.000000       -0.003054         1    ;  uncertainty k = 0.095678
        26         4         5        42     9      180.000000        7.428395         2    ;  uncertainty k = 0.244880
        26         4         5        42     9        0.000000       -0.398719         3    ;  uncertainty k = 0.293998
        26         4         5        42     9      180.000000        0.112413         4    ;  uncertainty k = 0.117113
        36        22        23        38     9        0.000000        0.029588         1    ;  uncertainty k = 0.169405
        36        22        23        38     9      180.000000       -0.158076         2    ;  uncertainty k = 0.254590
        36        22        23        38     9        0.000000        0.680966         3    ;  uncertainty k = 0.039021
        36        22        23        38     9      180.000000       -0.063667         4    ;  uncertainty k = 0.062459
        36        22        23        39     9        0.000000        0.029588         1    ;  uncertainty k = 0.169405
        36        22        23        39     9      180.000000       -0.158076         2    ;  uncertainty k = 0.254590
        36        22        23        39     9        0.000000        0.680966         3    ;  uncertainty k = 0.039021
        36        22        23        39     9      180.000000       -0.063667         4    ;  uncertainty k = 0.062459
        36        22        23        40     9        0.000000        0.029588         1    ;  uncertainty k = 0.169405
        36        22        23        40     9      180.000000       -0.158076         2    ;  uncertainty k = 0.254590
        36        22        23        40     9        0.000000        0.680966         3    ;  uncertainty k = 0.039021
        36        22        23        40     9      180.000000       -0.063667         4    ;  uncertainty k = 0.062459
        37        22        23        38     9        0.000000        0.029588         1    ;  uncertainty k = 0.169405
        37        22        23        38     9      180.000000       -0.158076         2    ;  uncertainty k = 0.254590
        37        22        23        38     9        0.000000        0.680966         3    ;  uncertainty k = 0.039021
        37        22        23        38     9      180.000000       -0.063667         4    ;  uncertainty k = 0.062459
        37        22        23        39     9        0.000000        0.029588         1    ;  uncertainty k = 0.169405
        37        22        23        39     9      180.000000       -0.158076         2    ;  uncertainty k = 0.254590
        37        22        23        39     9        0.000000        0.680966         3    ;  uncertainty k = 0.039021
        37        22        23        39     9      180.000000       -0.063667         4    ;  uncertainty k = 0.062459
        37        22        23        40     9        0.000000        0.029588         1    ;  uncertainty k = 0.169405
        37        22        23        40     9      180.000000       -0.158076         2    ;  uncertainty k = 0.254590
        37        22        23        40     9        0.000000        0.680966         3    ;  uncertainty k = 0.039021
        37        22        23        40     9      180.000000       -0.063667         4    ;  uncertainty k = 0.062459
        41         6         5        42     9        0.000000        0.031449         1    ;  uncertainty k = 0.119589
        41         6         5        42     9      180.000000        7.365280         2    ;  uncertainty k = 0.382633
        41         6         5        42     9        0.000000       -0.398374         3    ;  uncertainty k = 0.303887
        41         6         5        42     9      180.000000        0.029709         4    ;  uncertainty k = 0.170550

[ dihedrals ] ; impropers
;       ai        aj        ak        al funct           phase               k        pn
         1         2         6        25     4      180.000000        2.859817         2    ;  uncertainty k = 0.206378
         1         6        25         2     4      180.000000        2.859817         2    ;  uncertainty k = 0.206378
         1        25         2         6     4      180.000000        2.859817         2    ;  uncertainty k = 0.206378
         2         1         3        17     4      180.000000       19.605150         2    ;  uncertainty k = 0.080192
         2         3        17         1     4      180.000000       19.605150         2    ;  uncertainty k = 0.080192
         2        17         1         3     4      180.000000       19.605150         2    ;  uncertainty k = 0.080192
         3         2         4         7     4      180.000000       11.346977         2    ;  uncertainty k = 0.131419
         3         4         7         2     4      180.000000       11.346977         2    ;  uncertainty k = 0.131419
         3         7         2         4     4      180.000000       11.346977         2    ;  uncertainty k = 0.131419
         4         3         5        26     4      180.000000        4.217441         2    ;  uncertainty k = 0.099218
         4         5        26         3     4      180.000000        4.217441         2    ;  uncertainty k = 0.099218
         4        26         3         5     4      180.000000        4.217441         2    ;  uncertainty k = 0.099218
         5         4         6        42     4      180.000000        3.564342         2    ;  uncertainty k = 0.103185
         5         6        42         4     4      180.000000        3.564342         2    ;  uncertainty k = 0.103185
         5        42         4         6     4      180.000000        3.564342         2    ;  uncertainty k = 0.103185
         6         1         5        41     4      180.000000        4.192565         2    ;  uncertainty k = 0.168455
         6         5        41         1     4      180.000000        4.192565         2    ;  uncertainty k = 0.168455
         6        41         1         5     4      180.000000        4.192565         2    ;  uncertainty k = 0.168455
         8         7         9        11     4      180.000000       54.396927         2    ;  uncertainty k = 0.011870
         8         9        11         7     4      180.000000       54.396927         2    ;  uncertainty k = 0.011870
         8        11         7         9     4      180.000000       54.396927         2    ;  uncertainty k = 0.011870
         9         8        10        30     4      180.000000        0.347695         2    ;  uncertainty k = 0.620136
         9        10        30         8     4      180.000000        0.347695         2    ;  uncertainty k = 0.620136
         9        30         8        10     4      180.000000        0.347695         2    ;  uncertainty k = 0.620136
        10         9        12        16     4      180.000000       30.056377         2    ;  uncertainty k = 0.135424
        10        12        16         9     4      180.000000       30.056377         2    ;  uncertainty k = 0.135424
        10        16         9        12     4      180.000000       30.056377         2    ;  uncertainty k = 0.135424
        13        12        14        21     4      180.000000       32.779545         2    ;  uncertainty k = 0.072320
        13        14        21        12     4      180.000000       32.779545         2    ;  uncertainty k = 0.072320
        13        21        12        14     4      180.000000       32.779545         2    ;  uncertainty k = 0.072320
        14        13        15        20     4      180.000000        5.427422         2    ;  uncertainty k = 0.449847
        14        15        20        13     4      180.000000        5.427422         2    ;  uncertainty k = 0.449847
        14        20        13        15     4      180.000000        5.427422         2    ;  uncertainty k = 0.449847
        15        14        16        19     4      180.000000       26.449005         2    ;  uncertainty k = 0.108353
        15        16        19        14     4      180.000000       26.449005         2    ;  uncertainty k = 0.108353
        15        19        14        16     4      180.000000       26.449005         2    ;  uncertainty k = 0.108353
        16        10        15        27     4      180.000000        0.521319         2    ;  uncertainty k = 0.605740
        16        15        27        10     4      180.000000        0.521319         2    ;  uncertainty k = 0.605740
        16        27        10        15     4      180.000000        0.521319         2    ;  uncertainty k = 0.605740

[ pairs ]
;       ai        aj funct
         1         4     1
         1         7     1
         1        18     1
         1        42     1
         2         5     1
         2         8     1
         2        26     1
         2        28     1
         2        29     1
         2        31     1
         2        32     1
         2        33     1
         2        41     1
         3         6     1
         3         9     1
         3        11     1
         3        18     1
         3        25     1
         3        42     1
         4         8     1
         4        17     1
         4        28     1
         4        29     1
         4        41     1
         5         7     1
         5        25     1
         6        17     1
         6        26     1
         7        10     1
         7        17     1
         7        26     1
         7        30     1
         8        12     1
         8        16     1
         9        13     1
         9        15     1
         9        27     1
         9        28     1
         9        29     1
        10        11     1
        10        14     1
        10        19     1
        10        21     1
        11        28     1
        11        29     1
        11        30     1
        12        15     1
        12        20     1
        12        22     1
        12        27     1
        12        30     1
        13        16     1
        13        19     1
        13        23     1
        13        24     1
        13        36     1
        13        37     1
        14        22     1
        14        27     1
        14        34     1
        14        35     1
        15        21     1
        15        24     1
        16        20     1
        16        30     1
        16        34     1
        16        35     1
        17        25     1
        19        20     1
        19        27     1
        20        21     1
        21        38     1
        21        39     1
        21        40     1
        25        41     1
        26        42     1
        36        38     1
        36        39     1
        36        40     1
        37        38     1
        37        39     1
        37        40     1
        41        42     1
