; ITP file created by ByteFF-joint-25, 2026-02-17 09:10:47.299556

[ atomtypes ]
;name           bonded.type        at.num        mass        charge   ptype           sigma         epsilon
 c0bf                                   6      0.0000       0.00000       A     3.31513e-01     4.13616e-01    ;  uncertainty sigma = 0.000016, epsilon = 0.000862
 c1bf                                   6      0.0000       0.00000       A     3.31548e-01     4.13556e-01    ;  uncertainty sigma = 0.000013, epsilon = 0.000731
 c2bf                                   6      0.0000       0.00000       A     3.31525e-01     4.13407e-01    ;  uncertainty sigma = 0.000010, epsilon = 0.001258
 c3bf                                   6      0.0000       0.00000       A     3.31563e-01     4.13344e-01    ;  uncertainty sigma = 0.000018, epsilon = 0.001082
 c4bf                                   6      0.0000       0.00000       A     3.31516e-01     4.12676e-01    ;  uncertainty sigma = 0.000011, epsilon = 0.001608
 c5bf                                   6      0.0000       0.00000       A     3.31494e-01     4.13292e-01    ;  uncertainty sigma = 0.000013, epsilon = 0.001728
 c6bf                                   6      0.0000       0.00000       A     3.39759e-01     4.50751e-01    ;  uncertainty sigma = 0.000013, epsilon = 0.001236
 c7bf                                   6      0.0000       0.00000       A     3.31534e-01     4.13256e-01    ;  uncertainty sigma = 0.000033, epsilon = 0.001506
 n8bf                                   7      0.0000       0.00000       A     3.26977e-01     4.89929e-01    ;  uncertainty sigma = 0.000038, epsilon = 0.001227
 c9bf                                   6      0.0000       0.00000       A     3.31566e-01     4.12139e-01    ;  uncertainty sigma = 0.000019, epsilon = 0.000481
 o10bf                                  8      0.0000       0.00000       A     3.04854e-01     6.12416e-01    ;  uncertainty sigma = 0.000011, epsilon = 0.001606
 n11bf                                  7      0.0000       0.00000       A     3.38402e-01     3.92745e-01    ;  uncertainty sigma = 0.000021, epsilon = 0.001055
 c12bf                                  6      0.0000       0.00000       A     3.31495e-01     4.13843e-01    ;  uncertainty sigma = 0.000024, epsilon = 0.001862
 c13bf                                  6      0.0000       0.00000       A     3.31496e-01     4.13013e-01    ;  uncertainty sigma = 0.000032, epsilon = 0.002367
 c14bf                                  6      0.0000       0.00000       A     3.31518e-01     4.13443e-01    ;  uncertainty sigma = 0.000027, epsilon = 0.001034
 c15bf                                  6      0.0000       0.00000       A     3.31542e-01     4.13066e-01    ;  uncertainty sigma = 0.000013, epsilon = 0.002464
 o16bf                                  8      0.0000       0.00000       A     3.15580e-01     3.03849e-01    ;  uncertainty sigma = 0.000027, epsilon = 0.001354
 c17bf                                  6      0.0000       0.00000       A     3.39776e-01     4.50837e-01    ;  uncertainty sigma = 0.000007, epsilon = 0.000807
 o18bf                                  8      0.0000       0.00000       A     3.15626e-01     3.03989e-01    ;  uncertainty sigma = 0.000007, epsilon = 0.000785
 c19bf                                  6      0.0000       0.00000       A     3.39780e-01     4.50985e-01    ;  uncertainty sigma = 0.000005, epsilon = 0.000500
 n20bf                                  7      0.0000       0.00000       A     3.36843e-01     4.68873e-01    ;  uncertainty sigma = 0.000068, epsilon = 0.003219
 c21bf                                  6      0.0000       0.00000       A     3.47912e-01     6.68669e-01    ;  uncertainty sigma = 0.000017, epsilon = 0.001390
 o22bf                                  8      0.0000       0.00000       A     3.15569e-01     3.03059e-01    ;  uncertainty sigma = 0.000053, epsilon = 0.002176
 c23bf                                  6      0.0000       0.00000       A     3.39764e-01     4.50318e-01    ;  uncertainty sigma = 0.000014, epsilon = 0.000877
 c24bf                                  6      0.0000       0.00000       A     3.39775e-01     4.50959e-01    ;  uncertainty sigma = 0.000006, epsilon = 0.000493
 n25bf                                  7      0.0000       0.00000       A     3.27325e-01     4.59401e-01    ;  uncertainty sigma = 0.000040, epsilon = 0.001413
 h26bf                                  1      0.0000       0.00000       A     2.62577e-01     6.74919e-02    ;  uncertainty sigma = 0.000011, epsilon = 0.000688
 h27bf                                  1      0.0000       0.00000       A     2.62557e-01     6.70419e-02    ;  uncertainty sigma = 0.000018, epsilon = 0.000622
 h28bf                                  1      0.0000       0.00000       A     2.62548e-01     6.68678e-02    ;  uncertainty sigma = 0.000027, epsilon = 0.000692
 h29bf                                  1      0.0000       0.00000       A     2.60049e-01     8.69568e-02    ;  uncertainty sigma = 0.000011, epsilon = 0.000450
 h30bf                                  1      0.0000       0.00000       A     2.60049e-01     8.69568e-02    ;  uncertainty sigma = 0.000011, epsilon = 0.000450
 h31bf                                  1      0.0000       0.00000       A     1.10687e-01     4.15498e-02    ;  uncertainty sigma = 0.000117, epsilon = 0.001414
 h32bf                                  1      0.0000       0.00000       A     2.42205e-01     8.67537e-02    ;  uncertainty sigma = 0.000015, epsilon = 0.000623
 h33bf                                  1      0.0000       0.00000       A     2.42205e-01     8.67537e-02    ;  uncertainty sigma = 0.000015, epsilon = 0.000623
 h34bf                                  1      0.0000       0.00000       A     2.42205e-01     8.67537e-02    ;  uncertainty sigma = 0.000015, epsilon = 0.000623
 h35bf                                  1      0.0000       0.00000       A     2.42205e-01     8.67537e-02    ;  uncertainty sigma = 0.000015, epsilon = 0.000623
 h36bf                                  1      0.0000       0.00000       A     2.42205e-01     8.67537e-02    ;  uncertainty sigma = 0.000015, epsilon = 0.000623
 h37bf                                  1      0.0000       0.00000       A     2.42205e-01     8.67537e-02    ;  uncertainty sigma = 0.000015, epsilon = 0.000623
 h38bf                                  1      0.0000       0.00000       A     1.10684e-01     4.11855e-02    ;  uncertainty sigma = 0.000050, epsilon = 0.000660
 h39bf                                  1      0.0000       0.00000       A     1.10684e-01     4.11855e-02    ;  uncertainty sigma = 0.000050, epsilon = 0.000660
 h40bf                                  1      0.0000       0.00000       A     2.42228e-01     8.67631e-02    ;  uncertainty sigma = 0.000026, epsilon = 0.000627
 h41bf                                  1      0.0000       0.00000       A     2.42228e-01     8.67631e-02    ;  uncertainty sigma = 0.000026, epsilon = 0.000627
 h42bf                                  1      0.0000       0.00000       A     2.60025e-01     8.66249e-02    ;  uncertainty sigma = 0.000011, epsilon = 0.000873
 h43bf                                  1      0.0000       0.00000       A     2.60025e-01     8.66249e-02    ;  uncertainty sigma = 0.000011, epsilon = 0.000873
 h44bf                                  1      0.0000       0.00000       A     2.60025e-01     8.66249e-02    ;  uncertainty sigma = 0.000011, epsilon = 0.000873
 o45bf                                  8      0.0000       0.00000       A     3.04795e-01     6.12064e-01    ;  uncertainty sigma = 0.000027, epsilon = 0.000989
 n46bf                                  7      0.0000       0.00000       A     3.36573e-01     3.57239e-01    ;  uncertainty sigma = 0.000025, epsilon = 0.001776
 o47bf                                  8      0.0000       0.00000       A     3.04795e-01     6.12064e-01    ;  uncertainty sigma = 0.000027, epsilon = 0.000989

[ moleculetype ]
;name             nrexcl
 MOL                   3

[ atoms ]
;       nr            type      resi   res      atom      cgnr      charge          mass ; qtot
         1            c0bf         1   UNL        c0         1    -0.11289       12.0110 ; qtot   -0.113
         2            c1bf         1   UNL        c1         2     0.11779       12.0110 ; qtot    0.005
         3            c2bf         1   UNL        c2         3    -0.04250       12.0110 ; qtot   -0.038
         4            c3bf         1   UNL        c3         4    -0.17377       12.0110 ; qtot   -0.211
         5            c4bf         1   UNL        c4         5     0.19047       12.0110 ; qtot   -0.021
         6            c5bf         1   UNL        c5         6    -0.17385       12.0110 ; qtot   -0.195
         7            c6bf         1   UNL        c6         7    -0.10434       12.0110 ; qtot   -0.299
         8            c7bf         1   UNL        c7         8     0.68773       12.0110 ; qtot    0.389
         9            n8bf         1   UNL        n8         9    -0.56418       14.0070 ; qtot   -0.176
        10            c9bf         1   UNL        c9        10     0.61630       12.0110 ; qtot    0.441
        11           o10bf         1   UNL       o10        11    -0.56286       15.9990 ; qtot   -0.122
        12           n11bf         1   UNL       n11        12    -0.81283       14.0070 ; qtot   -0.935
        13           c12bf         1   UNL       c12        13     0.74893       12.0110 ; qtot   -0.186
        14           c13bf         1   UNL       c13        14    -0.27562       12.0110 ; qtot   -0.462
        15           c14bf         1   UNL       c14        15     0.29241       12.0110 ; qtot   -0.169
        16           c15bf         1   UNL       c15        16    -0.37328       12.0110 ; qtot   -0.542
        17           o16bf         1   UNL       o16        17    -0.31073       15.9990 ; qtot   -0.853
        18           c17bf         1   UNL       c17        18     0.11430       12.0110 ; qtot   -0.739
        19           o18bf         1   UNL       o18        19    -0.33146       15.9990 ; qtot   -1.070
        20           c19bf         1   UNL       c19        20     0.12364       12.0110 ; qtot   -0.947
        21           n20bf         1   UNL       n20        21    -0.84340       14.0070 ; qtot   -1.790
        22           c21bf         1   UNL       c21        22     0.25799       12.0110 ; qtot   -1.532
        23           o22bf         1   UNL       o22        23    -0.43968       15.9990 ; qtot   -1.972
        24           c23bf         1   UNL       c23        24     0.14806       12.0110 ; qtot   -1.824
        25           c24bf         1   UNL       c24        25    -0.10946       12.0110 ; qtot   -1.933
        26           n25bf         1   UNL       n25        26    -0.37938       14.0070 ; qtot   -2.313
        27           h26bf         1   UNL       h26        27     0.17314        1.0080 ; qtot   -2.139
        28           h27bf         1   UNL       h27        28     0.15663        1.0080 ; qtot   -1.983
        29           h28bf         1   UNL       h28        29     0.17105        1.0080 ; qtot   -1.812
        30           h29bf         1   UNL       h29        30     0.08336        1.0080 ; qtot   -1.728
        31           h30bf         1   UNL       h30        31     0.08336        1.0080 ; qtot   -1.645
        32           h31bf         1   UNL       h31        32     0.34304        1.0080 ; qtot   -1.302
        33           h32bf         1   UNL       h32        33     0.05362        1.0080 ; qtot   -1.248
        34           h33bf         1   UNL       h33        34     0.05362        1.0080 ; qtot   -1.195
        35           h34bf         1   UNL       h34        35     0.05362        1.0080 ; qtot   -1.141
        36           h35bf         1   UNL       h35        36     0.04268        1.0080 ; qtot   -1.098
        37           h36bf         1   UNL       h36        37     0.04268        1.0080 ; qtot   -1.056
        38           h37bf         1   UNL       h37        38     0.04268        1.0080 ; qtot   -1.013
        39           h38bf         1   UNL       h38        39     0.42823        1.0080 ; qtot   -0.585
        40           h39bf         1   UNL       h39        40     0.42823        1.0080 ; qtot   -0.157
        41           h40bf         1   UNL       h40        41     0.05417        1.0080 ; qtot   -0.102
        42           h41bf         1   UNL       h41        42     0.05417        1.0080 ; qtot   -0.048
        43           h42bf         1   UNL       h42        43     0.04638        1.0080 ; qtot   -0.002
        44           h43bf         1   UNL       h43        44     0.04638        1.0080 ; qtot    0.044
        45           h44bf         1   UNL       h44        45     0.04638        1.0080 ; qtot    0.091
        46           o45bf         1   UNL       o45        46    -0.19129       15.9990 ; qtot   -0.100
        47           n46bf         1   UNL       n46        47     0.29179       14.0070 ; qtot    0.191
        48           o47bf         1   UNL       o47        48    -0.19131       15.9990 ; qtot    0.000

[ bonds ]
;       ai        aj funct               r               k
         1         2     1        0.138902   353252.024902    ;  uncertainty r = 0.000092, k = 4.814078
         1         6     1        0.139222   336528.078418    ;  uncertainty r = 0.000072, k = 6.227780
         1        27     1        0.108528   334410.439160    ;  uncertainty r = 0.000038, k = 3.131332
         2         3     1        0.140164   340833.737207    ;  uncertainty r = 0.000149, k = 9.748377
         2        19     1        0.136804   316260.091895    ;  uncertainty r = 0.000056, k = 5.999247
         3         4     1        0.138922   352820.549902    ;  uncertainty r = 0.000108, k = 5.748273
         3         7     1        0.150704   228236.842480    ;  uncertainty r = 0.000100, k = 6.987129
         4         5     1        0.139761   347143.216357    ;  uncertainty r = 0.000151, k = 9.147825
         4        28     1        0.108704   336304.322266    ;  uncertainty r = 0.000037, k = 1.157947
         5         6     1        0.140300   318835.841357    ;  uncertainty r = 0.000083, k = 9.038094
         5        17     1        0.135853   309550.829297    ;  uncertainty r = 0.000149, k = 9.693252
         6        47     1        0.145895   241030.959814    ;  uncertainty r = 0.000087, k = 8.095094
         7         8     1        0.152840   200176.373022    ;  uncertainty r = 0.000130, k = 8.396589
         7        30     1        0.109497   313719.200586    ;  uncertainty r = 0.000046, k = 1.713040
         7        31     1        0.109497   313719.200586    ;  uncertainty r = 0.000046, k = 1.713040
         8         9     1        0.139063   380563.733545    ;  uncertainty r = 0.000122, k = 15.522499
         8        11     1        0.123489   716612.965625    ;  uncertainty r = 0.000142, k = 14.631314
         9        10     1        0.141552   453112.388477    ;  uncertainty r = 0.000171, k = 16.995177
         9        32     1        0.102183   460638.685352    ;  uncertainty r = 0.000033, k = 7.805120
        10        12     1        0.136164   462092.717285    ;  uncertainty r = 0.000237, k = 23.302980
        10        16     1        0.140146   393200.644434    ;  uncertainty r = 0.000118, k = 23.611463
        12        13     1        0.133170   365720.569629    ;  uncertainty r = 0.000147, k = 12.046313
        13        14     1        0.141968   371541.574951    ;  uncertainty r = 0.000143, k = 9.618441
        13        23     1        0.134001   309467.322949    ;  uncertainty r = 0.000208, k = 19.064272
        14        15     1        0.142732   398004.430078    ;  uncertainty r = 0.000133, k = 15.342148
        14        22     1        0.142633   330721.450488    ;  uncertainty r = 0.000093, k = 10.220795
        15        16     1        0.141328   422706.092920    ;  uncertainty r = 0.000138, k = 7.904458
        15        21     1        0.139026   371108.056982    ;  uncertainty r = 0.000153, k = 27.823547
        16        29     1        0.108832   343723.618652    ;  uncertainty r = 0.000047, k = 2.764878
        17        18     1        0.142853   246650.962549    ;  uncertainty r = 0.000108, k = 5.037800
        18        33     1        0.109452   311300.989551    ;  uncertainty r = 0.000028, k = 1.067555
        18        34     1        0.109452   311300.989551    ;  uncertainty r = 0.000028, k = 1.067555
        18        35     1        0.109452   311300.989551    ;  uncertainty r = 0.000028, k = 1.067555
        19        20     1        0.142713   247916.454004    ;  uncertainty r = 0.000100, k = 2.531418
        20        36     1        0.109585   311301.704590    ;  uncertainty r = 0.000018, k = 1.291915
        20        37     1        0.109585   311301.704590    ;  uncertainty r = 0.000018, k = 1.291915
        20        38     1        0.109585   311301.704590    ;  uncertainty r = 0.000018, k = 1.291915
        21        39     1        0.101300   420077.839160    ;  uncertainty r = 0.000037, k = 2.878755
        21        40     1        0.101300   420077.839160    ;  uncertainty r = 0.000037, k = 2.878755
        22        26     1        0.116793  1128378.016016    ;  uncertainty r = 0.000033, k = 2.941856
        23        24     1        0.143415   236826.453516    ;  uncertainty r = 0.000091, k = 8.064395
        24        25     1        0.152626   226341.248389    ;  uncertainty r = 0.000055, k = 5.899825
        24        41     1        0.109456   307655.133057    ;  uncertainty r = 0.000021, k = 1.559626
        24        42     1        0.109456   307655.133057    ;  uncertainty r = 0.000021, k = 1.559626
        25        43     1        0.109562   311419.864795    ;  uncertainty r = 0.000014, k = 1.901802
        25        44     1        0.109562   311419.864795    ;  uncertainty r = 0.000014, k = 1.901802
        25        45     1        0.109562   311419.864795    ;  uncertainty r = 0.000014, k = 1.901802
        46        47     1        0.124059   558001.621777    ;  uncertainty r = 0.000074, k = 1.640772
        47        48     1        0.124059   558001.621777    ;  uncertainty r = 0.000074, k = 1.640701

[ angles ]
;       ai        aj        ak funct           theta             cth
         1         2         3     1      123.410912      397.325245    ;  uncertainty theta = 0.003047, k = 0.095764
         1         2        19     1      119.618935      419.362749    ;  uncertainty theta = 0.005543, k = 0.183083
         1         6         5     1      126.399918      406.704738    ;  uncertainty theta = 0.009486, k = 0.149357
         1         6        47     1      115.584656      439.909237    ;  uncertainty theta = 0.005677, k = 0.178210
         2         1         6     1      122.487404      467.576460    ;  uncertainty theta = 0.004427, k = 0.359801
         2         1        27     1      119.557884      265.968787    ;  uncertainty theta = 0.005303, k = 0.052141
         2         3         4     1      120.460915      450.147926    ;  uncertainty theta = 0.003656, k = 0.121558
         2         3         7     1      118.892151      401.962210    ;  uncertainty theta = 0.002528, k = 0.094306
         2        19        20     1      110.733131      515.089625    ;  uncertainty theta = 0.001723, k = 0.051918
         3         2        19     1      116.648880      439.720869    ;  uncertainty theta = 0.006344, k = 0.190969
         3         4         5     1      124.322769      503.898657    ;  uncertainty theta = 0.001802, k = 0.110037
         3         4        28     1      117.427429      271.214923    ;  uncertainty theta = 0.001634, k = 0.109400
         3         7         8     1      111.555237      504.990528    ;  uncertainty theta = 0.004039, k = 0.213137
         3         7        30     1      107.633949      395.926195    ;  uncertainty theta = 0.002206, k = 0.111370
         3         7        31     1      107.633949      395.926195    ;  uncertainty theta = 0.002206, k = 0.111370
         4         3         7     1      120.620522      418.101152    ;  uncertainty theta = 0.002858, k = 0.115574
         4         5         6     1      122.553062      370.563376    ;  uncertainty theta = 0.006045, k = 0.240097
         4         5        17     1      119.879166      432.293624    ;  uncertainty theta = 0.006359, k = 0.072757
         5         4        28     1      117.470665      268.074178    ;  uncertainty theta = 0.001984, k = 0.083357
         5         6        47     1      116.509682      422.627030    ;  uncertainty theta = 0.004536, k = 0.085163
         5        17        18     1      110.465164      488.112542    ;  uncertainty theta = 0.003247, k = 0.102383
         6         1        27     1      116.618896      256.880720    ;  uncertainty theta = 0.004695, k = 0.099955
         6         5        17     1      117.187805      439.479671    ;  uncertainty theta = 0.006713, k = 0.100716
         6        47        46     1      118.695358      466.360064    ;  uncertainty theta = 0.007980, k = 0.098298
         6        47        48     1      118.695358      466.360064    ;  uncertainty theta = 0.007980, k = 0.098299
         7         8         9     1      112.034767      504.810332    ;  uncertainty theta = 0.005508, k = 0.092226
         7         8        11     1      125.077797      512.440724    ;  uncertainty theta = 0.003357, k = 0.164776
         8         7        30     1      106.426987      360.312365    ;  uncertainty theta = 0.002126, k = 0.184600
         8         7        31     1      106.426987      360.312365    ;  uncertainty theta = 0.002126, k = 0.184600
         8         9        10     1      120.651833      441.608476    ;  uncertainty theta = 0.003542, k = 0.155802
         8         9        32     1      117.210800      264.588809    ;  uncertainty theta = 0.004813, k = 0.856046
         9         8        11     1      123.519814      778.447003    ;  uncertainty theta = 0.002106, k = 0.093869
         9        10        12     1      120.224754      768.711044    ;  uncertainty theta = 0.005858, k = 0.157945
         9        10        16     1      122.278137      533.311278    ;  uncertainty theta = 0.005250, k = 0.406084
        10         9        32     1      117.066086      336.130415    ;  uncertainty theta = 0.002657, k = 0.114965
        10        12        13     1      118.396202      413.897808    ;  uncertainty theta = 0.010734, k = 0.179891
        10        16        15     1      113.982933      516.057066    ;  uncertainty theta = 0.005279, k = 0.322192
        10        16        29     1      121.581764      266.638242    ;  uncertainty theta = 0.003427, k = 0.119353
        12        10        16     1      123.014938      557.585482    ;  uncertainty theta = 0.009119, k = 0.103918
        12        13        14     1      126.561386      519.298843    ;  uncertainty theta = 0.004561, k = 0.250377
        12        13        23     1      118.442764      605.400208    ;  uncertainty theta = 0.004270, k = 0.151631
        13        14        15     1      121.217224      479.784986    ;  uncertainty theta = 0.002823, k = 0.428578
        13        14        22     1      121.196106      385.989897    ;  uncertainty theta = 0.008969, k = 0.106773
        13        23        24     1      109.510330      497.766782    ;  uncertainty theta = 0.002796, k = 0.106304
        14        13        23     1      116.129417      472.792607    ;  uncertainty theta = 0.003388, k = 0.179404
        14        15        16     1      117.484238      427.730909    ;  uncertainty theta = 0.002903, k = 0.240097
        14        15        21     1      120.585159      576.926586    ;  uncertainty theta = 0.004519, k = 0.090792
        14        22        26     1      180.000000      241.307265    ;  uncertainty theta = 0.000000, k = 0.719628
        15        14        22     1      117.830177      369.460747    ;  uncertainty theta = 0.006627, k = 0.174269
        15        16        29     1      121.593582      279.201047    ;  uncertainty theta = 0.003701, k = 0.115080
        15        21        39     1      113.768478      388.852256    ;  uncertainty theta = 0.002252, k = 0.082774
        15        21        40     1      113.768478      388.852256    ;  uncertainty theta = 0.002252, k = 0.082774
        16        15        21     1      126.082375      568.295682    ;  uncertainty theta = 0.002505, k = 0.080621
        17        18        33     1      108.626610      437.197419    ;  uncertainty theta = 0.001383, k = 0.074245
        17        18        34     1      108.626610      437.197419    ;  uncertainty theta = 0.001383, k = 0.074245
        17        18        35     1      108.626610      437.197419    ;  uncertainty theta = 0.001383, k = 0.074245
        19        20        36     1      108.838852      444.628814    ;  uncertainty theta = 0.001216, k = 0.016815
        19        20        37     1      108.838852      444.628814    ;  uncertainty theta = 0.001216, k = 0.016815
        19        20        38     1      108.838852      444.628814    ;  uncertainty theta = 0.001216, k = 0.016815
        23        24        25     1      109.110916      620.838029    ;  uncertainty theta = 0.001375, k = 0.075038
        23        24        41     1      105.721947      414.764856    ;  uncertainty theta = 0.001556, k = 0.030033
        23        24        42     1      105.721947      414.764856    ;  uncertainty theta = 0.001556, k = 0.030033
        24        25        43     1      107.823227      406.328545    ;  uncertainty theta = 0.001985, k = 0.034929
        24        25        44     1      107.823227      406.328545    ;  uncertainty theta = 0.001985, k = 0.034929
        24        25        45     1      107.823227      406.328513    ;  uncertainty theta = 0.001985, k = 0.034929
        25        24        41     1      110.683975      420.952626    ;  uncertainty theta = 0.001109, k = 0.013076
        25        24        42     1      110.683975      420.952626    ;  uncertainty theta = 0.001109, k = 0.013076
        30         7        31     1      105.787987      310.078477    ;  uncertainty theta = 0.005198, k = 0.039222
        33        18        34     1      109.199234      331.799480    ;  uncertainty theta = 0.001111, k = 0.015637
        33        18        35     1      109.199234      331.799480    ;  uncertainty theta = 0.001111, k = 0.015637
        34        18        35     1      109.199234      331.799480    ;  uncertainty theta = 0.001111, k = 0.015637
        36        20        37     1      109.085159      330.320914    ;  uncertainty theta = 0.001597, k = 0.020763
        36        20        38     1      109.085159      330.320914    ;  uncertainty theta = 0.001597, k = 0.020763
        37        20        38     1      109.085159      330.320914    ;  uncertainty theta = 0.001597, k = 0.020763
        39        21        40     1      107.812782      286.090864    ;  uncertainty theta = 0.005516, k = 0.089415
        41        24        42     1      107.605186      326.746644    ;  uncertainty theta = 0.002467, k = 0.048865
        43        25        44     1      105.445511      313.896945    ;  uncertainty theta = 0.002263, k = 0.009799
        43        25        45     1      105.445511      313.896945    ;  uncertainty theta = 0.002263, k = 0.009799
        44        25        45     1      105.445511      313.896945    ;  uncertainty theta = 0.002263, k = 0.009799
        46        47        48     1      126.321899      935.782538    ;  uncertainty theta = 0.003360, k = 0.041779

[ dihedrals ] ; propers for gromacs 4.5 or higher, use funct 9
;       ai        aj        ak        al funct           phase               k        pn
         1         2         3         4     9        0.000000       -0.334234         1    ;  uncertainty k = 0.296384
         1         2         3         4     9      180.000000        6.146970         2    ;  uncertainty k = 0.629290
         1         2         3         4     9        0.000000        0.436305         3    ;  uncertainty k = 0.233090
         1         2         3         4     9      180.000000        1.252884         4    ;  uncertainty k = 0.371361
         1         2         3         7     9        0.000000        0.440292         1    ;  uncertainty k = 0.250964
         1         2         3         7     9      180.000000        6.041965         2    ;  uncertainty k = 0.373145
         1         2         3         7     9        0.000000        1.281267         3    ;  uncertainty k = 0.246726
         1         2         3         7     9      180.000000        1.693348         4    ;  uncertainty k = 0.312006
         1         2        19        20     9        0.000000        1.346693         1    ;  uncertainty k = 0.348075
         1         2        19        20     9      180.000000        6.296830         2    ;  uncertainty k = 0.114516
         1         2        19        20     9        0.000000       -0.093079         3    ;  uncertainty k = 0.172917
         1         2        19        20     9      180.000000        0.091577         4    ;  uncertainty k = 0.121255
         1         6         5         4     9        0.000000        0.129199         1    ;  uncertainty k = 0.460480
         1         6         5         4     9      180.000000        5.253361         2    ;  uncertainty k = 0.433419
         1         6         5         4     9        0.000000        0.484238         3    ;  uncertainty k = 0.331979
         1         6         5         4     9      180.000000        1.408699         4    ;  uncertainty k = 0.150804
         1         6         5        17     9        0.000000       -0.075888         1    ;  uncertainty k = 0.505108
         1         6         5        17     9      180.000000        8.780424         2    ;  uncertainty k = 0.511593
         1         6         5        17     9        0.000000        1.052947         3    ;  uncertainty k = 0.219913
         1         6         5        17     9      180.000000        1.534829         4    ;  uncertainty k = 0.036890
         1         6        47        46     9        0.000000       -1.658729         1    ;  uncertainty k = 1.476217
         1         6        47        46     9      180.000000        4.866361         2    ;  uncertainty k = 0.208377
         1         6        47        46     9        0.000000        0.791599         3    ;  uncertainty k = 0.335558
         1         6        47        46     9      180.000000        0.031522         4    ;  uncertainty k = 0.094893
         1         6        47        48     9        0.000000       -1.658728         1    ;  uncertainty k = 1.476217
         1         6        47        48     9      180.000000        4.866361         2    ;  uncertainty k = 0.208377
         1         6        47        48     9        0.000000        0.791599         3    ;  uncertainty k = 0.335559
         1         6        47        48     9      180.000000        0.031522         4    ;  uncertainty k = 0.094893
         2         1         6         5     9        0.000000        0.219759         1    ;  uncertainty k = 0.586197
         2         1         6         5     9      180.000000        9.849573         2    ;  uncertainty k = 0.466766
         2         1         6         5     9        0.000000        0.480380         3    ;  uncertainty k = 0.405484
         2         1         6         5     9      180.000000        1.408522         4    ;  uncertainty k = 0.210018
         2         1         6        47     9        0.000000        0.421216         1    ;  uncertainty k = 0.235636
         2         1         6        47     9      180.000000       10.485268         2    ;  uncertainty k = 0.710290
         2         1         6        47     9        0.000000        1.449415         3    ;  uncertainty k = 0.476469
         2         1         6        47     9      180.000000        1.819125         4    ;  uncertainty k = 0.275226
         2         3         4         5     9        0.000000        0.151759         1    ;  uncertainty k = 0.272501
         2         3         4         5     9      180.000000       10.489683         2    ;  uncertainty k = 0.361885
         2         3         4         5     9        0.000000        0.411738         3    ;  uncertainty k = 0.188870
         2         3         4         5     9      180.000000        1.365934         4    ;  uncertainty k = 0.252790
         2         3         4        28     9        0.000000        0.222677         1    ;  uncertainty k = 0.086041
         2         3         4        28     9      180.000000        8.485180         2    ;  uncertainty k = 0.429259
         2         3         4        28     9        0.000000        1.321766         3    ;  uncertainty k = 0.344210
         2         3         4        28     9      180.000000        1.700129         4    ;  uncertainty k = 0.072657
         2         3         7         8     9        0.000000        1.465361         1    ;  uncertainty k = 1.178405
         2         3         7         8     9      180.000000        2.118808         2    ;  uncertainty k = 0.518235
         2         3         7         8     9        0.000000        0.565322         3    ;  uncertainty k = 0.120556
         2         3         7         8     9      180.000000        0.278722         4    ;  uncertainty k = 0.049473
         2         3         7        30     9        0.000000       -0.348705         1    ;  uncertainty k = 0.581813
         2         3         7        30     9      180.000000        2.875407         2    ;  uncertainty k = 0.202590
         2         3         7        30     9        0.000000        0.333341         3    ;  uncertainty k = 0.171373
         2         3         7        30     9      180.000000        0.393548         4    ;  uncertainty k = 0.130539
         2         3         7        31     9        0.000000       -0.348705         1    ;  uncertainty k = 0.581813
         2         3         7        31     9      180.000000        2.875407         2    ;  uncertainty k = 0.202590
         2         3         7        31     9        0.000000        0.333341         3    ;  uncertainty k = 0.171373
         2         3         7        31     9      180.000000        0.393548         4    ;  uncertainty k = 0.130539
         2        19        20        36     9        0.000000        1.032893         1    ;  uncertainty k = 0.205989
         2        19        20        36     9      180.000000       -1.986401         2    ;  uncertainty k = 0.210653
         2        19        20        36     9        0.000000        0.993253         3    ;  uncertainty k = 0.046233
         2        19        20        36     9      180.000000        0.269406         4    ;  uncertainty k = 0.041326
         2        19        20        37     9        0.000000        1.032893         1    ;  uncertainty k = 0.205989
         2        19        20        37     9      180.000000       -1.986401         2    ;  uncertainty k = 0.210653
         2        19        20        37     9        0.000000        0.993253         3    ;  uncertainty k = 0.046233
         2        19        20        37     9      180.000000        0.269406         4    ;  uncertainty k = 0.041326
         2        19        20        38     9        0.000000        1.032893         1    ;  uncertainty k = 0.205989
         2        19        20        38     9      180.000000       -1.986401         2    ;  uncertainty k = 0.210653
         2        19        20        38     9        0.000000        0.993253         3    ;  uncertainty k = 0.046233
         2        19        20        38     9      180.000000        0.269406         4    ;  uncertainty k = 0.041326
         3         2         1         6     9        0.000000       -0.116103         1    ;  uncertainty k = 0.321753
         3         2         1         6     9      180.000000        6.991591         2    ;  uncertainty k = 0.418144
         3         2         1         6     9        0.000000        0.624022         3    ;  uncertainty k = 0.307902
         3         2         1         6     9      180.000000        1.367831         4    ;  uncertainty k = 0.247657
         3         2         1        27     9        0.000000        0.341232         1    ;  uncertainty k = 0.343187
         3         2         1        27     9      180.000000        5.775317         2    ;  uncertainty k = 0.378574
         3         2         1        27     9        0.000000        1.317650         3    ;  uncertainty k = 0.336841
         3         2         1        27     9      180.000000        1.686075         4    ;  uncertainty k = 0.077357
         3         2        19        20     9        0.000000       -1.854729         1    ;  uncertainty k = 0.895533
         3         2        19        20     9      180.000000        6.965264         2    ;  uncertainty k = 0.203767
         3         2        19        20     9        0.000000        0.529375         3    ;  uncertainty k = 0.187491
         3         2        19        20     9      180.000000        0.257812         4    ;  uncertainty k = 0.113934
         3         4         5         6     9        0.000000        0.274372         1    ;  uncertainty k = 0.500595
         3         4         5         6     9      180.000000        6.142577         2    ;  uncertainty k = 0.499026
         3         4         5         6     9        0.000000        0.551000         3    ;  uncertainty k = 0.175478
         3         4         5         6     9      180.000000        1.509641         4    ;  uncertainty k = 0.221368
         3         4         5        17     9        0.000000        0.130594         1    ;  uncertainty k = 0.183392
         3         4         5        17     9      180.000000        9.875996         2    ;  uncertainty k = 0.354251
         3         4         5        17     9        0.000000        1.108730         3    ;  uncertainty k = 0.322454
         3         4         5        17     9      180.000000        1.805814         4    ;  uncertainty k = 0.226521
         3         7         8         9     9        0.000000       -0.667502         1    ;  uncertainty k = 0.538989
         3         7         8         9     9      180.000000        2.284502         2    ;  uncertainty k = 0.587061
         3         7         8         9     9        0.000000        0.508426         3    ;  uncertainty k = 0.100579
         3         7         8         9     9      180.000000        0.190789         4    ;  uncertainty k = 0.114195
         3         7         8        11     9        0.000000       -0.986828         1    ;  uncertainty k = 0.649689
         3         7         8        11     9      180.000000        4.193871         2    ;  uncertainty k = 0.520345
         3         7         8        11     9        0.000000        0.989465         3    ;  uncertainty k = 0.231690
         3         7         8        11     9      180.000000        0.426498         4    ;  uncertainty k = 0.160219
         4         3         2        19     9        0.000000        0.104331         1    ;  uncertainty k = 0.359444
         4         3         2        19     9      180.000000        9.875304         2    ;  uncertainty k = 0.667104
         4         3         2        19     9        0.000000        1.177838         3    ;  uncertainty k = 0.295390
         4         3         2        19     9      180.000000        1.508488         4    ;  uncertainty k = 0.227602
         4         3         7         8     9        0.000000        0.235884         1    ;  uncertainty k = 1.105227
         4         3         7         8     9      180.000000        1.915071         2    ;  uncertainty k = 0.472949
         4         3         7         8     9        0.000000        0.332523         3    ;  uncertainty k = 0.184622
         4         3         7         8     9      180.000000        0.226527         4    ;  uncertainty k = 0.080884
         4         3         7        30     9        0.000000       -0.296748         1    ;  uncertainty k = 0.629347
         4         3         7        30     9      180.000000        2.513370         2    ;  uncertainty k = 0.275158
         4         3         7        30     9        0.000000        0.339520         3    ;  uncertainty k = 0.117798
         4         3         7        30     9      180.000000        0.231224         4    ;  uncertainty k = 0.043002
         4         3         7        31     9        0.000000       -0.296748         1    ;  uncertainty k = 0.629347
         4         3         7        31     9      180.000000        2.513370         2    ;  uncertainty k = 0.275158
         4         3         7        31     9        0.000000        0.339520         3    ;  uncertainty k = 0.117798
         4         3         7        31     9      180.000000        0.231224         4    ;  uncertainty k = 0.043002
         4         5         6        47     9        0.000000        0.872999         1    ;  uncertainty k = 0.602051
         4         5         6        47     9      180.000000        6.683914         2    ;  uncertainty k = 0.445803
         4         5         6        47     9        0.000000        1.467562         3    ;  uncertainty k = 0.311645
         4         5         6        47     9      180.000000        1.815892         4    ;  uncertainty k = 0.122479
         4         5        17        18     9        0.000000        2.338861         1    ;  uncertainty k = 1.197033
         4         5        17        18     9      180.000000        6.887464         2    ;  uncertainty k = 0.230529
         4         5        17        18     9        0.000000       -0.433776         3    ;  uncertainty k = 0.427382
         4         5        17        18     9      180.000000        0.029478         4    ;  uncertainty k = 0.125477
         5         4         3         7     9        0.000000        0.069797         1    ;  uncertainty k = 0.317980
         5         4         3         7     9      180.000000        8.738551         2    ;  uncertainty k = 0.367270
         5         4         3         7     9        0.000000        1.495034         3    ;  uncertainty k = 0.200825
         5         4         3         7     9      180.000000        1.886997         4    ;  uncertainty k = 0.136549
         5         6         1        27     9        0.000000        0.153563         1    ;  uncertainty k = 0.241400
         5         6         1        27     9      180.000000        7.709213         2    ;  uncertainty k = 0.379211
         5         6         1        27     9        0.000000        1.172028         3    ;  uncertainty k = 0.345307
         5         6         1        27     9      180.000000        1.526301         4    ;  uncertainty k = 0.200941
         5         6        47        46     9        0.000000        1.321049         1    ;  uncertainty k = 1.659193
         5         6        47        46     9      180.000000        4.760529         2    ;  uncertainty k = 0.382942
         5         6        47        46     9        0.000000        0.673114         3    ;  uncertainty k = 0.490615
         5         6        47        46     9      180.000000       -0.017633         4    ;  uncertainty k = 0.072315
         5         6        47        48     9        0.000000        1.321048         1    ;  uncertainty k = 1.659194
         5         6        47        48     9      180.000000        4.760529         2    ;  uncertainty k = 0.382943
         5         6        47        48     9        0.000000        0.673114         3    ;  uncertainty k = 0.490615
         5         6        47        48     9      180.000000       -0.017633         4    ;  uncertainty k = 0.072315
         5        17        18        33     9        0.000000        1.746315         1    ;  uncertainty k = 0.317363
         5        17        18        33     9      180.000000       -2.069827         2    ;  uncertainty k = 0.416387
         5        17        18        33     9        0.000000        0.689938         3    ;  uncertainty k = 0.094543
         5        17        18        33     9      180.000000        0.268172         4    ;  uncertainty k = 0.029233
         5        17        18        34     9        0.000000        1.746315         1    ;  uncertainty k = 0.317363
         5        17        18        34     9      180.000000       -2.069827         2    ;  uncertainty k = 0.416387
         5        17        18        34     9        0.000000        0.689938         3    ;  uncertainty k = 0.094543
         5        17        18        34     9      180.000000        0.268172         4    ;  uncertainty k = 0.029233
         5        17        18        35     9        0.000000        1.746315         1    ;  uncertainty k = 0.317363
         5        17        18        35     9      180.000000       -2.069827         2    ;  uncertainty k = 0.416387
         5        17        18        35     9        0.000000        0.689938         3    ;  uncertainty k = 0.094543
         5        17        18        35     9      180.000000        0.268172         4    ;  uncertainty k = 0.029233
         6         1         2        19     9        0.000000        0.027349         1    ;  uncertainty k = 0.301142
         6         1         2        19     9      180.000000       11.678480         2    ;  uncertainty k = 0.642801
         6         1         2        19     9        0.000000        1.203332         3    ;  uncertainty k = 0.246221
         6         1         2        19     9      180.000000        1.507792         4    ;  uncertainty k = 0.262055
         6         5         4        28     9        0.000000        0.172811         1    ;  uncertainty k = 0.248125
         6         5         4        28     9      180.000000        5.855157         2    ;  uncertainty k = 0.788463
         6         5         4        28     9        0.000000        1.428777         3    ;  uncertainty k = 0.204058
         6         5         4        28     9      180.000000        1.713107         4    ;  uncertainty k = 0.118158
         6         5        17        18     9        0.000000       -1.651652         1    ;  uncertainty k = 0.700417
         6         5        17        18     9      180.000000        8.536294         2    ;  uncertainty k = 0.153562
         6         5        17        18     9        0.000000       -0.889809         3    ;  uncertainty k = 0.394998
         6         5        17        18     9      180.000000        0.541892         4    ;  uncertainty k = 0.225308
         7         3         2        19     9        0.000000       -0.090688         1    ;  uncertainty k = 0.419403
         7         3         2        19     9      180.000000       11.450541         2    ;  uncertainty k = 0.540525
         7         3         2        19     9        0.000000        0.830421         3    ;  uncertainty k = 0.432078
         7         3         2        19     9      180.000000        1.312821         4    ;  uncertainty k = 0.262216
         7         3         4        28     9        0.000000       -0.225513         1    ;  uncertainty k = 0.267943
         7         3         4        28     9      180.000000        7.612010         2    ;  uncertainty k = 0.429024
         7         3         4        28     9        0.000000        0.619498         3    ;  uncertainty k = 0.403982
         7         3         4        28     9      180.000000        1.213465         4    ;  uncertainty k = 0.244668
         7         8         9        10     9        0.000000        4.671022         1    ;  uncertainty k = 0.699799
         7         8         9        10     9      180.000000        7.623967         2    ;  uncertainty k = 0.302874
         7         8         9        10     9        0.000000        0.817724         3    ;  uncertainty k = 0.357680
         7         8         9        10     9      180.000000       -0.182306         4    ;  uncertainty k = 0.241602
         7         8         9        32     9        0.000000        0.853657         1    ;  uncertainty k = 0.505894
         7         8         9        32     9      180.000000        5.539233         2    ;  uncertainty k = 0.534867
         7         8         9        32     9        0.000000        1.662963         3    ;  uncertainty k = 0.189506
         7         8         9        32     9      180.000000        0.023894         4    ;  uncertainty k = 0.271248
         8         9        10        12     9        0.000000        2.036595         1    ;  uncertainty k = 1.243319
         8         9        10        12     9      180.000000        7.082785         2    ;  uncertainty k = 0.367231
         8         9        10        12     9        0.000000        0.897247         3    ;  uncertainty k = 0.195168
         8         9        10        12     9      180.000000       -0.256758         4    ;  uncertainty k = 0.225803
         8         9        10        16     9        0.000000       -0.263671         1    ;  uncertainty k = 1.359134
         8         9        10        16     9      180.000000        5.560786         2    ;  uncertainty k = 0.239106
         8         9        10        16     9        0.000000        0.536590         3    ;  uncertainty k = 0.116520
         8         9        10        16     9      180.000000       -0.243126         4    ;  uncertainty k = 0.185800
         9         8         7        30     9        0.000000       -1.164087         1    ;  uncertainty k = 0.303850
         9         8         7        30     9      180.000000        2.838964         2    ;  uncertainty k = 0.369025
         9         8         7        30     9        0.000000        0.221109         3    ;  uncertainty k = 0.093496
         9         8         7        30     9      180.000000        0.066060         4    ;  uncertainty k = 0.106536
         9         8         7        31     9        0.000000       -1.164087         1    ;  uncertainty k = 0.303850
         9         8         7        31     9      180.000000        2.838964         2    ;  uncertainty k = 0.369025
         9         8         7        31     9        0.000000        0.221109         3    ;  uncertainty k = 0.093496
         9         8         7        31     9      180.000000        0.066060         4    ;  uncertainty k = 0.106536
         9        10        12        13     9        0.000000       -0.287057         1    ;  uncertainty k = 0.846068
         9        10        12        13     9      180.000000       14.346967         2    ;  uncertainty k = 0.356749
         9        10        12        13     9        0.000000        1.990210         3    ;  uncertainty k = 0.555842
         9        10        12        13     9      180.000000        1.639940         4    ;  uncertainty k = 0.535044
         9        10        16        15     9        0.000000        0.126116         1    ;  uncertainty k = 0.694904
         9        10        16        15     9      180.000000       10.311010         2    ;  uncertainty k = 0.354821
         9        10        16        15     9        0.000000        1.009975         3    ;  uncertainty k = 0.371826
         9        10        16        15     9      180.000000        1.171697         4    ;  uncertainty k = 0.312850
         9        10        16        29     9        0.000000       -0.283095         1    ;  uncertainty k = 0.411758
         9        10        16        29     9      180.000000        7.046675         2    ;  uncertainty k = 0.484512
         9        10        16        29     9        0.000000        1.005820         3    ;  uncertainty k = 0.162759
         9        10        16        29     9      180.000000        0.948056         4    ;  uncertainty k = 0.400045
        10         9         8        11     9        0.000000        4.133006         1    ;  uncertainty k = 0.494385
        10         9         8        11     9      180.000000       17.191458         2    ;  uncertainty k = 0.239049
        10         9         8        11     9        0.000000        0.572943         3    ;  uncertainty k = 0.140968
        10         9         8        11     9      180.000000       -1.289237         4    ;  uncertainty k = 0.196962
        10        12        13        14     9        0.000000       -0.134451         1    ;  uncertainty k = 0.748386
        10        12        13        14     9      180.000000        9.912518         2    ;  uncertainty k = 0.360617
        10        12        13        14     9        0.000000        1.572808         3    ;  uncertainty k = 0.519990
        10        12        13        14     9      180.000000        1.200339         4    ;  uncertainty k = 0.408118
        10        12        13        23     9        0.000000        0.502342         1    ;  uncertainty k = 1.201616
        10        12        13        23     9      180.000000       14.176232         2    ;  uncertainty k = 0.344464
        10        12        13        23     9        0.000000        2.364145         3    ;  uncertainty k = 0.531148
        10        12        13        23     9      180.000000        1.505332         4    ;  uncertainty k = 0.188230
        10        16        15        14     9        0.000000       -0.073776         1    ;  uncertainty k = 0.309551
        10        16        15        14     9      180.000000        7.996001         2    ;  uncertainty k = 0.986235
        10        16        15        14     9        0.000000        0.157134         3    ;  uncertainty k = 0.423554
        10        16        15        14     9      180.000000        1.240112         4    ;  uncertainty k = 0.344697
        10        16        15        21     9        0.000000       -0.330766         1    ;  uncertainty k = 0.831441
        10        16        15        21     9      180.000000        9.847893         2    ;  uncertainty k = 0.474596
        10        16        15        21     9        0.000000        0.856731         3    ;  uncertainty k = 0.349573
        10        16        15        21     9      180.000000        1.151218         4    ;  uncertainty k = 0.263543
        11         8         7        30     9        0.000000        0.080447         1    ;  uncertainty k = 0.268892
        11         8         7        30     9      180.000000        4.122898         2    ;  uncertainty k = 0.315571
        11         8         7        30     9        0.000000        0.598180         3    ;  uncertainty k = 0.096513
        11         8         7        30     9      180.000000        0.296107         4    ;  uncertainty k = 0.068140
        11         8         7        31     9        0.000000        0.080447         1    ;  uncertainty k = 0.268892
        11         8         7        31     9      180.000000        4.122898         2    ;  uncertainty k = 0.315571
        11         8         7        31     9        0.000000        0.598180         3    ;  uncertainty k = 0.096513
        11         8         7        31     9      180.000000        0.296107         4    ;  uncertainty k = 0.068140
        11         8         9        32     9        0.000000        2.750074         1    ;  uncertainty k = 0.897579
        11         8         9        32     9      180.000000       14.049828         2    ;  uncertainty k = 0.278745
        11         8         9        32     9        0.000000        1.102512         3    ;  uncertainty k = 0.141275
        11         8         9        32     9      180.000000       -0.359929         4    ;  uncertainty k = 0.195301
        12        10         9        32     9        0.000000        7.193412         1    ;  uncertainty k = 0.462281
        12        10         9        32     9      180.000000        5.163654         2    ;  uncertainty k = 0.593263
        12        10         9        32     9        0.000000        0.023637         3    ;  uncertainty k = 0.285850
        12        10         9        32     9      180.000000        0.083833         4    ;  uncertainty k = 0.229426
        12        10        16        15     9        0.000000       -0.104497         1    ;  uncertainty k = 0.398292
        12        10        16        15     9      180.000000       11.295169         2    ;  uncertainty k = 0.714584
        12        10        16        15     9        0.000000       -0.676779         3    ;  uncertainty k = 0.671303
        12        10        16        15     9      180.000000        1.074034         4    ;  uncertainty k = 0.238313
        12        10        16        29     9        0.000000        0.361026         1    ;  uncertainty k = 0.745384
        12        10        16        29     9      180.000000        8.722461         2    ;  uncertainty k = 0.756875
        12        10        16        29     9        0.000000        1.235261         3    ;  uncertainty k = 0.310839
        12        10        16        29     9      180.000000        1.393341         4    ;  uncertainty k = 0.262392
        12        13        14        15     9        0.000000       -0.232504         1    ;  uncertainty k = 0.605166
        12        13        14        15     9      180.000000        6.713868         2    ;  uncertainty k = 1.045405
        12        13        14        15     9        0.000000       -0.187477         3    ;  uncertainty k = 0.207869
        12        13        14        15     9      180.000000        0.982166         4    ;  uncertainty k = 0.322222
        12        13        14        22     9        0.000000       -0.307075         1    ;  uncertainty k = 0.725834
        12        13        14        22     9      180.000000        8.809723         2    ;  uncertainty k = 0.975615
        12        13        14        22     9        0.000000        0.773771         3    ;  uncertainty k = 0.371796
        12        13        14        22     9      180.000000        0.999096         4    ;  uncertainty k = 0.428189
        12        13        23        24     9        0.000000        4.044461         1    ;  uncertainty k = 1.235908
        12        13        23        24     9      180.000000       11.441330         2    ;  uncertainty k = 0.111226
        12        13        23        24     9        0.000000        0.448241         3    ;  uncertainty k = 0.407084
        12        13        23        24     9      180.000000        0.151120         4    ;  uncertainty k = 0.132585
        13        12        10        16     9        0.000000       -0.316812         1    ;  uncertainty k = 1.246548
        13        12        10        16     9      180.000000       11.264849         2    ;  uncertainty k = 0.444789
        13        12        10        16     9        0.000000        0.995870         3    ;  uncertainty k = 0.423750
        13        12        10        16     9      180.000000        1.238036         4    ;  uncertainty k = 0.446611
        13        14        15        16     9        0.000000       -0.082073         1    ;  uncertainty k = 0.568705
        13        14        15        16     9      180.000000        6.238300         2    ;  uncertainty k = 1.292749
        13        14        15        16     9        0.000000        0.388475         3    ;  uncertainty k = 0.353584
        13        14        15        16     9      180.000000        1.227616         4    ;  uncertainty k = 0.243225
        13        14        15        21     9        0.000000       -0.727705         1    ;  uncertainty k = 0.553545
        13        14        15        21     9      180.000000        8.652593         2    ;  uncertainty k = 0.800092
        13        14        15        21     9        0.000000        0.735683         3    ;  uncertainty k = 0.183816
        13        14        15        21     9      180.000000        1.175797         4    ;  uncertainty k = 0.400624
        13        14        22        26     9        0.000000        0.000000         1    ;  uncertainty k = 0.000000
        13        14        22        26     9      180.000000        0.000000         2    ;  uncertainty k = 0.000000
        13        14        22        26     9        0.000000        0.000000         3    ;  uncertainty k = 0.000000
        13        14        22        26     9      180.000000        0.000000         4    ;  uncertainty k = 0.000000
        13        23        24        25     9        0.000000       -3.636196         1    ;  uncertainty k = 1.243292
        13        23        24        25     9      180.000000        1.423504         2    ;  uncertainty k = 0.333090
        13        23        24        25     9        0.000000        0.287747         3    ;  uncertainty k = 0.256573
        13        23        24        25     9      180.000000        0.676530         4    ;  uncertainty k = 0.137637
        13        23        24        41     9        0.000000        2.322710         1    ;  uncertainty k = 0.540626
        13        23        24        41     9      180.000000       -0.344542         2    ;  uncertainty k = 0.276977
        13        23        24        41     9        0.000000        0.082814         3    ;  uncertainty k = 0.079800
        13        23        24        41     9      180.000000        0.383140         4    ;  uncertainty k = 0.058960
        13        23        24        42     9        0.000000        2.322710         1    ;  uncertainty k = 0.540626
        13        23        24        42     9      180.000000       -0.344542         2    ;  uncertainty k = 0.276977
        13        23        24        42     9        0.000000        0.082814         3    ;  uncertainty k = 0.079800
        13        23        24        42     9      180.000000        0.383140         4    ;  uncertainty k = 0.058960
        14        13        23        24     9        0.000000       -0.309656         1    ;  uncertainty k = 0.988155
        14        13        23        24     9      180.000000        8.894149         2    ;  uncertainty k = 0.507454
        14        13        23        24     9        0.000000        0.138335         3    ;  uncertainty k = 0.570538
        14        13        23        24     9      180.000000       -0.035457         4    ;  uncertainty k = 0.143247
        14        15        16        29     9        0.000000        0.248056         1    ;  uncertainty k = 0.958381
        14        15        16        29     9      180.000000        6.811149         2    ;  uncertainty k = 0.465255
        14        15        16        29     9        0.000000        1.363311         3    ;  uncertainty k = 0.334370
        14        15        16        29     9      180.000000        1.320741         4    ;  uncertainty k = 0.267576
        14        15        21        39     9        0.000000       16.179241         1    ;  uncertainty k = 0.226508
        14        15        21        39     9      180.000000        8.686178         2    ;  uncertainty k = 0.232167
        14        15        21        39     9        0.000000        0.910135         3    ;  uncertainty k = 0.213786
        14        15        21        39     9      180.000000       -0.131487         4    ;  uncertainty k = 0.109493
        14        15        21        40     9        0.000000       16.179241         1    ;  uncertainty k = 0.226508
        14        15        21        40     9      180.000000        8.686178         2    ;  uncertainty k = 0.232167
        14        15        21        40     9        0.000000        0.910135         3    ;  uncertainty k = 0.213786
        14        15        21        40     9      180.000000       -0.131487         4    ;  uncertainty k = 0.109493
        15        14        13        23     9        0.000000        0.070743         1    ;  uncertainty k = 0.686436
        15        14        13        23     9      180.000000        6.610358         2    ;  uncertainty k = 0.662532
        15        14        13        23     9        0.000000        1.068355         3    ;  uncertainty k = 0.327950
        15        14        13        23     9      180.000000        1.138642         4    ;  uncertainty k = 0.433194
        15        14        22        26     9        0.000000        0.000000         1    ;  uncertainty k = 0.000000
        15        14        22        26     9      180.000000        0.000000         2    ;  uncertainty k = 0.000000
        15        14        22        26     9        0.000000        0.000000         3    ;  uncertainty k = 0.000000
        15        14        22        26     9      180.000000        0.000000         4    ;  uncertainty k = 0.000000
        16        10         9        32     9        0.000000        0.996703         1    ;  uncertainty k = 1.088402
        16        10         9        32     9      180.000000        5.158411         2    ;  uncertainty k = 0.639236
        16        10         9        32     9        0.000000        1.415645         3    ;  uncertainty k = 0.264055
        16        10         9        32     9      180.000000        0.157366         4    ;  uncertainty k = 0.160041
        16        15        14        22     9        0.000000        0.118231         1    ;  uncertainty k = 0.663075
        16        15        14        22     9      180.000000        7.761016         2    ;  uncertainty k = 0.752747
        16        15        14        22     9        0.000000        0.963725         3    ;  uncertainty k = 0.321347
        16        15        14        22     9      180.000000        1.184081         4    ;  uncertainty k = 0.547084
        16        15        21        39     9        0.000000       10.150943         1    ;  uncertainty k = 0.373654
        16        15        21        39     9      180.000000        9.585958         2    ;  uncertainty k = 0.358657
        16        15        21        39     9        0.000000        0.834747         3    ;  uncertainty k = 0.211714
        16        15        21        39     9      180.000000       -0.348757         4    ;  uncertainty k = 0.221362
        16        15        21        40     9        0.000000       10.150943         1    ;  uncertainty k = 0.373654
        16        15        21        40     9      180.000000        9.585958         2    ;  uncertainty k = 0.358657
        16        15        21        40     9        0.000000        0.834747         3    ;  uncertainty k = 0.211714
        16        15        21        40     9      180.000000       -0.348757         4    ;  uncertainty k = 0.221362
        17         5         4        28     9        0.000000       -0.099162         1    ;  uncertainty k = 0.095891
        17         5         4        28     9      180.000000        8.635712         2    ;  uncertainty k = 0.371084
        17         5         4        28     9        0.000000        0.799361         3    ;  uncertainty k = 0.210704
        17         5         4        28     9      180.000000        1.430900         4    ;  uncertainty k = 0.295728
        17         5         6        47     9        0.000000       -0.131302         1    ;  uncertainty k = 0.441477
        17         5         6        47     9      180.000000        9.876722         2    ;  uncertainty k = 0.278812
        17         5         6        47     9        0.000000        1.069605         3    ;  uncertainty k = 0.493876
        17         5         6        47     9      180.000000        1.485071         4    ;  uncertainty k = 0.216792
        19         2         1        27     9        0.000000       -0.092932         1    ;  uncertainty k = 0.350360
        19         2         1        27     9      180.000000        8.977363         2    ;  uncertainty k = 0.263638
        19         2         1        27     9        0.000000        0.761936         3    ;  uncertainty k = 0.241368
        19         2         1        27     9      180.000000        1.315043         4    ;  uncertainty k = 0.280848
        21        15        14        22     9        0.000000       -0.379135         1    ;  uncertainty k = 0.501361
        21        15        14        22     9      180.000000       10.387938         2    ;  uncertainty k = 0.380197
        21        15        14        22     9        0.000000        0.811351         3    ;  uncertainty k = 0.545627
        21        15        14        22     9      180.000000        0.962118         4    ;  uncertainty k = 0.290345
        21        15        16        29     9        0.000000       -0.546000         1    ;  uncertainty k = 0.474114
        21        15        16        29     9      180.000000        7.797048         2    ;  uncertainty k = 0.566356
        21        15        16        29     9        0.000000        0.717830         3    ;  uncertainty k = 0.278527
        21        15        16        29     9      180.000000        0.908902         4    ;  uncertainty k = 0.384357
        22        14        13        23     9        0.000000       -0.590020         1    ;  uncertainty k = 0.555767
        22        14        13        23     9      180.000000        9.321267         2    ;  uncertainty k = 0.983764
        22        14        13        23     9        0.000000        0.830295         3    ;  uncertainty k = 0.529237
        22        14        13        23     9      180.000000        0.902366         4    ;  uncertainty k = 0.417523
        23        24        25        43     9        0.000000       -0.903707         1    ;  uncertainty k = 0.401255
        23        24        25        43     9      180.000000       -3.423220         2    ;  uncertainty k = 0.318602
        23        24        25        43     9        0.000000        1.623618         3    ;  uncertainty k = 0.078292
        23        24        25        43     9      180.000000       -0.201488         4    ;  uncertainty k = 0.051868
        23        24        25        44     9        0.000000       -0.903707         1    ;  uncertainty k = 0.401255
        23        24        25        44     9      180.000000       -3.423220         2    ;  uncertainty k = 0.318602
        23        24        25        44     9        0.000000        1.623618         3    ;  uncertainty k = 0.078292
        23        24        25        44     9      180.000000       -0.201488         4    ;  uncertainty k = 0.051868
        23        24        25        45     9        0.000000       -0.903707         1    ;  uncertainty k = 0.401255
        23        24        25        45     9      180.000000       -3.423220         2    ;  uncertainty k = 0.318602
        23        24        25        45     9        0.000000        1.623618         3    ;  uncertainty k = 0.078292
        23        24        25        45     9      180.000000       -0.201488         4    ;  uncertainty k = 0.051868
        27         1         6        47     9        0.000000        0.008900         1    ;  uncertainty k = 0.500285
        27         1         6        47     9      180.000000        8.778485         2    ;  uncertainty k = 0.139516
        27         1         6        47     9        0.000000        1.081249         3    ;  uncertainty k = 0.297593
        27         1         6        47     9      180.000000        1.474789         4    ;  uncertainty k = 0.118145
        41        24        25        43     9        0.000000        0.029588         1    ;  uncertainty k = 0.169406
        41        24        25        43     9      180.000000       -0.158076         2    ;  uncertainty k = 0.254590
        41        24        25        43     9        0.000000        0.680966         3    ;  uncertainty k = 0.039021
        41        24        25        43     9      180.000000       -0.063667         4    ;  uncertainty k = 0.062459
        41        24        25        44     9        0.000000        0.029588         1    ;  uncertainty k = 0.169406
        41        24        25        44     9      180.000000       -0.158076         2    ;  uncertainty k = 0.254590
        41        24        25        44     9        0.000000        0.680966         3    ;  uncertainty k = 0.039021
        41        24        25        44     9      180.000000       -0.063667         4    ;  uncertainty k = 0.062459
        41        24        25        45     9        0.000000        0.029588         1    ;  uncertainty k = 0.169406
        41        24        25        45     9      180.000000       -0.158076         2    ;  uncertainty k = 0.254590
        41        24        25        45     9        0.000000        0.680966         3    ;  uncertainty k = 0.039021
        41        24        25        45     9      180.000000       -0.063667         4    ;  uncertainty k = 0.062459
        42        24        25        43     9        0.000000        0.029588         1    ;  uncertainty k = 0.169406
        42        24        25        43     9      180.000000       -0.158076         2    ;  uncertainty k = 0.254590
        42        24        25        43     9        0.000000        0.680966         3    ;  uncertainty k = 0.039021
        42        24        25        43     9      180.000000       -0.063667         4    ;  uncertainty k = 0.062459
        42        24        25        44     9        0.000000        0.029587         1    ;  uncertainty k = 0.169406
        42        24        25        44     9      180.000000       -0.158076         2    ;  uncertainty k = 0.254590
        42        24        25        44     9        0.000000        0.680966         3    ;  uncertainty k = 0.039021
        42        24        25        44     9      180.000000       -0.063667         4    ;  uncertainty k = 0.062459
        42        24        25        45     9        0.000000        0.029587         1    ;  uncertainty k = 0.169406
        42        24        25        45     9      180.000000       -0.158076         2    ;  uncertainty k = 0.254590
        42        24        25        45     9        0.000000        0.680966         3    ;  uncertainty k = 0.039021
        42        24        25        45     9      180.000000       -0.063667         4    ;  uncertainty k = 0.062459

[ dihedrals ] ; impropers
;       ai        aj        ak        al funct           phase               k        pn
         1         2         6        27     4      180.000000        3.573858         2    ;  uncertainty k = 0.170742
         1         6        27         2     4      180.000000        3.573858         2    ;  uncertainty k = 0.170742
         1        27         2         6     4      180.000000        3.573858         2    ;  uncertainty k = 0.170742
         2         1         3        19     4      180.000000       17.352879         2    ;  uncertainty k = 0.089313
         2         3        19         1     4      180.000000       17.352879         2    ;  uncertainty k = 0.089313
         2        19         1         3     4      180.000000       17.352879         2    ;  uncertainty k = 0.089313
         3         2         4         7     4      180.000000       13.580317         2    ;  uncertainty k = 0.124496
         3         4         7         2     4      180.000000       13.580317         2    ;  uncertainty k = 0.124496
         3         7         2         4     4      180.000000       13.580317         2    ;  uncertainty k = 0.124496
         4         3         5        28     4      180.000000        2.749136         2    ;  uncertainty k = 0.394401
         4         5        28         3     4      180.000000        2.749136         2    ;  uncertainty k = 0.394401
         4        28         3         5     4      180.000000        2.749136         2    ;  uncertainty k = 0.394401
         5         4         6        17     4      180.000000       19.345216         2    ;  uncertainty k = 0.116724
         5         6        17         4     4      180.000000       19.345216         2    ;  uncertainty k = 0.116724
         5        17         4         6     4      180.000000       19.345216         2    ;  uncertainty k = 0.116724
         6         1         5        47     4      180.000000        7.588730         2    ;  uncertainty k = 0.324023
         6         5        47         1     4      180.000000        7.588730         2    ;  uncertainty k = 0.324023
         6        47         1         5     4      180.000000        7.588730         2    ;  uncertainty k = 0.324023
         8         7         9        11     4      180.000000       54.402417         2    ;  uncertainty k = 0.011975
         8         9        11         7     4      180.000000       54.402417         2    ;  uncertainty k = 0.011975
         8        11         7         9     4      180.000000       54.402417         2    ;  uncertainty k = 0.011975
         9         8        10        32     4      180.000000        0.347695         2    ;  uncertainty k = 0.620136
         9        10        32         8     4      180.000000        0.347695         2    ;  uncertainty k = 0.620136
         9        32         8        10     4      180.000000        0.347695         2    ;  uncertainty k = 0.620136
        10         9        12        16     4      180.000000       30.056377         2    ;  uncertainty k = 0.135424
        10        12        16         9     4      180.000000       30.056377         2    ;  uncertainty k = 0.135424
        10        16         9        12     4      180.000000       30.056377         2    ;  uncertainty k = 0.135424
        13        12        14        23     4      180.000000       32.779551         2    ;  uncertainty k = 0.072320
        13        14        23        12     4      180.000000       32.779551         2    ;  uncertainty k = 0.072320
        13        23        12        14     4      180.000000       32.779551         2    ;  uncertainty k = 0.072320
        14        13        15        22     4      180.000000        5.427422         2    ;  uncertainty k = 0.449847
        14        15        22        13     4      180.000000        5.427422         2    ;  uncertainty k = 0.449847
        14        22        13        15     4      180.000000        5.427422         2    ;  uncertainty k = 0.449847
        15        14        16        21     4      180.000000       26.449005         2    ;  uncertainty k = 0.108353
        15        16        21        14     4      180.000000       26.449005         2    ;  uncertainty k = 0.108353
        15        21        14        16     4      180.000000       26.449005         2    ;  uncertainty k = 0.108353
        16        10        15        29     4      180.000000        0.521319         2    ;  uncertainty k = 0.605740
        16        15        29        10     4      180.000000        0.521319         2    ;  uncertainty k = 0.605740
        16        29        10        15     4      180.000000        0.521319         2    ;  uncertainty k = 0.605740
        47         6        46        48     4      180.000000       64.360256         2    ;  uncertainty k = 0.021866
        47        46        48         6     4      180.000000       64.360256         2    ;  uncertainty k = 0.021866
        47        48         6        46     4      180.000000       64.360256         2    ;  uncertainty k = 0.021866

[ pairs ]
;       ai        aj funct
         1         4     1
         1         7     1
         1        17     1
         1        20     1
         1        46     1
         1        48     1
         2         5     1
         2         8     1
         2        28     1
         2        30     1
         2        31     1
         2        36     1
         2        37     1
         2        38     1
         2        47     1
         3         6     1
         3         9     1
         3        11     1
         3        17     1
         3        20     1
         3        27     1
         4         8     1
         4        18     1
         4        19     1
         4        30     1
         4        31     1
         4        47     1
         5         7     1
         5        27     1
         5        33     1
         5        34     1
         5        35     1
         5        46     1
         5        48     1
         6        18     1
         6        19     1
         6        28     1
         7        10     1
         7        19     1
         7        28     1
         7        32     1
         8        12     1
         8        16     1
         9        13     1
         9        15     1
         9        29     1
         9        30     1
         9        31     1
        10        11     1
        10        14     1
        10        21     1
        10        23     1
        11        30     1
        11        31     1
        11        32     1
        12        15     1
        12        22     1
        12        24     1
        12        29     1
        12        32     1
        13        16     1
        13        21     1
        13        25     1
        13        26     1
        13        41     1
        13        42     1
        14        24     1
        14        29     1
        14        39     1
        14        40     1
        15        23     1
        15        26     1
        16        22     1
        16        32     1
        16        39     1
        16        40     1
        17        28     1
        17        47     1
        19        27     1
        21        22     1
        21        29     1
        22        23     1
        23        43     1
        23        44     1
        23        45     1
        27        47     1
        41        43     1
        41        44     1
        41        45     1
        42        43     1
        42        44     1
        42        45     1
