; ITP file created by ByteFF-joint-25, 2026-02-17 09:12:03.895437

[ atomtypes ]
;name           bonded.type        at.num        mass        charge   ptype           sigma         epsilon
 c0bf                                   6      0.0000       0.00000       A     3.31524e-01     4.13594e-01    ;  uncertainty sigma = 0.000017, epsilon = 0.001043
 c1bf                                   6      0.0000       0.00000       A     3.31533e-01     4.13988e-01    ;  uncertainty sigma = 0.000012, epsilon = 0.000741
 c2bf                                   6      0.0000       0.00000       A     3.31526e-01     4.13372e-01    ;  uncertainty sigma = 0.000006, epsilon = 0.000931
 c3bf                                   6      0.0000       0.00000       A     3.31549e-01     4.13051e-01    ;  uncertainty sigma = 0.000013, epsilon = 0.000976
 c4bf                                   6      0.0000       0.00000       A     3.31521e-01     4.12910e-01    ;  uncertainty sigma = 0.000010, epsilon = 0.000976
 c5bf                                   6      0.0000       0.00000       A     3.31511e-01     4.13714e-01    ;  uncertainty sigma = 0.000025, epsilon = 0.001545
 c6bf                                   6      0.0000       0.00000       A     3.39759e-01     4.50751e-01    ;  uncertainty sigma = 0.000013, epsilon = 0.001236
 c7bf                                   6      0.0000       0.00000       A     3.31534e-01     4.13256e-01    ;  uncertainty sigma = 0.000033, epsilon = 0.001506
 n8bf                                   7      0.0000       0.00000       A     3.26977e-01     4.89929e-01    ;  uncertainty sigma = 0.000038, epsilon = 0.001227
 c9bf                                   6      0.0000       0.00000       A     3.31566e-01     4.12139e-01    ;  uncertainty sigma = 0.000019, epsilon = 0.000481
 o10bf                                  8      0.0000       0.00000       A     3.04854e-01     6.12416e-01    ;  uncertainty sigma = 0.000011, epsilon = 0.001606
 n11bf                                  7      0.0000       0.00000       A     3.38409e-01     3.92656e-01    ;  uncertainty sigma = 0.000021, epsilon = 0.000948
 c12bf                                  6      0.0000       0.00000       A     3.31493e-01     4.13846e-01    ;  uncertainty sigma = 0.000030, epsilon = 0.001925
 c13bf                                  6      0.0000       0.00000       A     3.31495e-01     4.12965e-01    ;  uncertainty sigma = 0.000032, epsilon = 0.002271
 c14bf                                  6      0.0000       0.00000       A     3.31518e-01     4.13443e-01    ;  uncertainty sigma = 0.000027, epsilon = 0.001034
 c15bf                                  6      0.0000       0.00000       A     3.31542e-01     4.13066e-01    ;  uncertainty sigma = 0.000013, epsilon = 0.002464
 o16bf                                  8      0.0000       0.00000       A     3.15601e-01     3.04805e-01    ;  uncertainty sigma = 0.000023, epsilon = 0.001306
 c17bf                                  6      0.0000       0.00000       A     3.39776e-01     4.50782e-01    ;  uncertainty sigma = 0.000006, epsilon = 0.000532
 o18bf                                  8      0.0000       0.00000       A     3.15616e-01     3.03840e-01    ;  uncertainty sigma = 0.000006, epsilon = 0.000610
 c19bf                                  6      0.0000       0.00000       A     3.39780e-01     4.50985e-01    ;  uncertainty sigma = 0.000005, epsilon = 0.000500
 n20bf                                  7      0.0000       0.00000       A     3.36843e-01     4.68873e-01    ;  uncertainty sigma = 0.000068, epsilon = 0.003219
 c21bf                                  6      0.0000       0.00000       A     3.47912e-01     6.68669e-01    ;  uncertainty sigma = 0.000017, epsilon = 0.001390
 o22bf                                  8      0.0000       0.00000       A     3.15535e-01     3.02162e-01    ;  uncertainty sigma = 0.000028, epsilon = 0.003109
 c23bf                                  6      0.0000       0.00000       A     3.39773e-01     4.50669e-01    ;  uncertainty sigma = 0.000009, epsilon = 0.001168
 c24bf                                  6      0.0000       0.00000       A     3.39773e-01     4.50601e-01    ;  uncertainty sigma = 0.000003, epsilon = 0.000663
 n25bf                                  7      0.0000       0.00000       A     3.27325e-01     4.59401e-01    ;  uncertainty sigma = 0.000040, epsilon = 0.001413
 h26bf                                  1      0.0000       0.00000       A     2.62576e-01     6.74846e-02    ;  uncertainty sigma = 0.000022, epsilon = 0.000770
 h27bf                                  1      0.0000       0.00000       A     2.62569e-01     6.70233e-02    ;  uncertainty sigma = 0.000015, epsilon = 0.000591
 h28bf                                  1      0.0000       0.00000       A     2.62548e-01     6.68678e-02    ;  uncertainty sigma = 0.000027, epsilon = 0.000692
 h29bf                                  1      0.0000       0.00000       A     2.60049e-01     8.69568e-02    ;  uncertainty sigma = 0.000011, epsilon = 0.000450
 h30bf                                  1      0.0000       0.00000       A     2.60049e-01     8.69568e-02    ;  uncertainty sigma = 0.000011, epsilon = 0.000450
 h31bf                                  1      0.0000       0.00000       A     1.10687e-01     4.15498e-02    ;  uncertainty sigma = 0.000117, epsilon = 0.001414
 h32bf                                  1      0.0000       0.00000       A     2.42205e-01     8.67537e-02    ;  uncertainty sigma = 0.000015, epsilon = 0.000623
 h33bf                                  1      0.0000       0.00000       A     2.42205e-01     8.67537e-02    ;  uncertainty sigma = 0.000015, epsilon = 0.000623
 h34bf                                  1      0.0000       0.00000       A     2.42205e-01     8.67537e-02    ;  uncertainty sigma = 0.000015, epsilon = 0.000623
 h35bf                                  1      0.0000       0.00000       A     2.42205e-01     8.67537e-02    ;  uncertainty sigma = 0.000015, epsilon = 0.000623
 h36bf                                  1      0.0000       0.00000       A     2.42205e-01     8.67537e-02    ;  uncertainty sigma = 0.000015, epsilon = 0.000623
 h37bf                                  1      0.0000       0.00000       A     2.42205e-01     8.67537e-02    ;  uncertainty sigma = 0.000015, epsilon = 0.000623
 h38bf                                  1      0.0000       0.00000       A     1.10684e-01     4.11855e-02    ;  uncertainty sigma = 0.000050, epsilon = 0.000660
 h39bf                                  1      0.0000       0.00000       A     1.10684e-01     4.11855e-02    ;  uncertainty sigma = 0.000050, epsilon = 0.000660
 h40bf                                  1      0.0000       0.00000       A     2.42173e-01     8.68777e-02    ;  uncertainty sigma = 0.000049, epsilon = 0.000444
 h41bf                                  1      0.0000       0.00000       A     2.60028e-01     8.66117e-02    ;  uncertainty sigma = 0.000010, epsilon = 0.000666
 h42bf                                  1      0.0000       0.00000       A     2.60028e-01     8.66117e-02    ;  uncertainty sigma = 0.000010, epsilon = 0.000666
 h43bf                                  1      0.0000       0.00000       A     2.60028e-01     8.66117e-02    ;  uncertainty sigma = 0.000010, epsilon = 0.000666
 s44bf                                 16      0.0000       0.00000       A     4.05831e-01     2.55864e-01    ;  uncertainty sigma = 0.000019, epsilon = 0.001483
 o45bf                                  8      0.0000       0.00000       A     3.04824e-01     6.12041e-01    ;  uncertainty sigma = 0.000010, epsilon = 0.001298
 o46bf                                  8      0.0000       0.00000       A     3.04824e-01     6.12041e-01    ;  uncertainty sigma = 0.000010, epsilon = 0.001298
 c47bf                                  6      0.0000       0.00000       A     3.39787e-01     4.50814e-01    ;  uncertainty sigma = 0.000005, epsilon = 0.000860
 h48bf                                  1      0.0000       0.00000       A     2.42167e-01     8.68275e-02    ;  uncertainty sigma = 0.000012, epsilon = 0.000620
 h49bf                                  1      0.0000       0.00000       A     2.42167e-01     8.68275e-02    ;  uncertainty sigma = 0.000012, epsilon = 0.000620
 h50bf                                  1      0.0000       0.00000       A     2.42167e-01     8.68275e-02    ;  uncertainty sigma = 0.000012, epsilon = 0.000620
 c51bf                                  6      0.0000       0.00000       A     3.39773e-01     4.50601e-01    ;  uncertainty sigma = 0.000003, epsilon = 0.000663
 h52bf                                  1      0.0000       0.00000       A     2.60028e-01     8.66116e-02    ;  uncertainty sigma = 0.000010, epsilon = 0.000666
 h53bf                                  1      0.0000       0.00000       A     2.60028e-01     8.66117e-02    ;  uncertainty sigma = 0.000010, epsilon = 0.000666
 h54bf                                  1      0.0000       0.00000       A     2.60028e-01     8.66116e-02    ;  uncertainty sigma = 0.000010, epsilon = 0.000666

[ moleculetype ]
;name             nrexcl
 MOL                   3

[ atoms ]
;       nr            type      resi   res      atom      cgnr      charge          mass ; qtot
         1            c0bf         1   UNL        c0         1    -0.08936       12.0110 ; qtot   -0.089
         2            c1bf         1   UNL        c1         2     0.10708       12.0110 ; qtot    0.018
         3            c2bf         1   UNL        c2         3    -0.04521       12.0110 ; qtot   -0.027
         4            c3bf         1   UNL        c3         4    -0.16715       12.0110 ; qtot   -0.195
         5            c4bf         1   UNL        c4         5     0.19708       12.0110 ; qtot    0.002
         6            c5bf         1   UNL        c5         6    -0.23585       12.0110 ; qtot   -0.233
         7            c6bf         1   UNL        c6         7    -0.10270       12.0110 ; qtot   -0.336
         8            c7bf         1   UNL        c7         8     0.68773       12.0110 ; qtot    0.352
         9            n8bf         1   UNL        n8         9    -0.56418       14.0070 ; qtot   -0.213
        10            c9bf         1   UNL        c9        10     0.61616       12.0110 ; qtot    0.404
        11           o10bf         1   UNL       o10        11    -0.56286       15.9990 ; qtot   -0.159
        12           n11bf         1   UNL       n11        12    -0.80940       14.0070 ; qtot   -0.969
        13           c12bf         1   UNL       c12        13     0.75177       12.0110 ; qtot   -0.217
        14           c13bf         1   UNL       c13        14    -0.27400       12.0110 ; qtot   -0.491
        15           c14bf         1   UNL       c14        15     0.29243       12.0110 ; qtot   -0.198
        16           c15bf         1   UNL       c15        16    -0.37328       12.0110 ; qtot   -0.572
        17           o16bf         1   UNL       o16        17    -0.33820       15.9990 ; qtot   -0.910
        18           c17bf         1   UNL       c17        18     0.12572       12.0110 ; qtot   -0.784
        19           o18bf         1   UNL       o18        19    -0.33367       15.9990 ; qtot   -1.118
        20           c19bf         1   UNL       c19        20     0.12161       12.0110 ; qtot   -0.996
        21           n20bf         1   UNL       n20        21    -0.84340       14.0070 ; qtot   -1.840
        22           c21bf         1   UNL       c21        22     0.25821       12.0110 ; qtot   -1.581
        23           o22bf         1   UNL       o22        23    -0.44927       15.9990 ; qtot   -2.031
        24           c23bf         1   UNL       c23        24     0.15651       12.0110 ; qtot   -1.874
        25           c24bf         1   UNL       c24        25    -0.10728       12.0110 ; qtot   -1.982
        26           n25bf         1   UNL       n25        26    -0.37938       14.0070 ; qtot   -2.361
        27           h26bf         1   UNL       h26        27     0.16789        1.0080 ; qtot   -2.193
        28           h27bf         1   UNL       h27        28     0.15546        1.0080 ; qtot   -2.038
        29           h28bf         1   UNL       h28        29     0.17105        1.0080 ; qtot   -1.866
        30           h29bf         1   UNL       h29        30     0.08336        1.0080 ; qtot   -1.783
        31           h30bf         1   UNL       h30        31     0.08336        1.0080 ; qtot   -1.700
        32           h31bf         1   UNL       h31        32     0.34304        1.0080 ; qtot   -1.357
        33           h32bf         1   UNL       h32        33     0.04697        1.0080 ; qtot   -1.310
        34           h33bf         1   UNL       h33        34     0.04697        1.0080 ; qtot   -1.263
        35           h34bf         1   UNL       h34        35     0.04697        1.0080 ; qtot   -1.216
        36           h35bf         1   UNL       h35        36     0.04268        1.0080 ; qtot   -1.173
        37           h36bf         1   UNL       h36        37     0.04268        1.0080 ; qtot   -1.130
        38           h37bf         1   UNL       h37        38     0.04268        1.0080 ; qtot   -1.088
        39           h38bf         1   UNL       h38        39     0.42823        1.0080 ; qtot   -0.660
        40           h39bf         1   UNL       h39        40     0.42823        1.0080 ; qtot   -0.231
        41           h40bf         1   UNL       h40        41     0.06188        1.0080 ; qtot   -0.169
        42           h41bf         1   UNL       h41        42     0.04730        1.0080 ; qtot   -0.122
        43           h42bf         1   UNL       h42        43     0.04730        1.0080 ; qtot   -0.075
        44           h43bf         1   UNL       h43        44     0.04730        1.0080 ; qtot   -0.028
        45           s44bf         1   UNL       s44        45     1.02531       32.0670 ; qtot    0.998
        46           o45bf         1   UNL       o45        46    -0.58034       15.9990 ; qtot    0.417
        47           o46bf         1   UNL       o46        47    -0.58034       15.9990 ; qtot   -0.163
        48           c47bf         1   UNL       c47        48    -0.18454       12.0110 ; qtot   -0.347
        49           h48bf         1   UNL       h48        49     0.10426        1.0080 ; qtot   -0.243
        50           h49bf         1   UNL       h49        50     0.10426        1.0080 ; qtot   -0.139
        51           h50bf         1   UNL       h50        51     0.10426        1.0080 ; qtot   -0.035
        52           c51bf         1   UNL       c51        52    -0.10728       12.0110 ; qtot   -0.142
        53           h52bf         1   UNL       h52        53     0.04730        1.0080 ; qtot   -0.095
        54           h53bf         1   UNL       h53        54     0.04730        1.0080 ; qtot   -0.047
        55           h54bf         1   UNL       h54        55     0.04735        1.0080 ; qtot    0.000

[ bonds ]
;       ai        aj funct               r               k
         1         2     1        0.139264   349742.408887    ;  uncertainty r = 0.000047, k = 7.514293
         1         6     1        0.139245   349078.341895    ;  uncertainty r = 0.000145, k = 4.328962
         1        27     1        0.108594   331170.469482    ;  uncertainty r = 0.000047, k = 2.885877
         2         3     1        0.140065   344018.316895    ;  uncertainty r = 0.000174, k = 11.374016
         2        19     1        0.137023   317134.584668    ;  uncertainty r = 0.000062, k = 7.271502
         3         4     1        0.139037   352247.088574    ;  uncertainty r = 0.000149, k = 5.142071
         3         7     1        0.150777   229384.710010    ;  uncertainty r = 0.000076, k = 8.343099
         4         5     1        0.139480   348227.496484    ;  uncertainty r = 0.000165, k = 14.449831
         4        28     1        0.108717   335838.167871    ;  uncertainty r = 0.000034, k = 1.327403
         5         6     1        0.140202   346876.328027    ;  uncertainty r = 0.000123, k = 12.505056
         5        17     1        0.136755   312478.939795    ;  uncertainty r = 0.000126, k = 9.335417
         6        45     1        0.180048   142119.070020    ;  uncertainty r = 0.000140, k = 5.842198
         7         8     1        0.152840   200176.373022    ;  uncertainty r = 0.000130, k = 8.396589
         7        30     1        0.109497   313719.200586    ;  uncertainty r = 0.000046, k = 1.713040
         7        31     1        0.109497   313719.200586    ;  uncertainty r = 0.000046, k = 1.713040
         8         9     1        0.139063   380563.733545    ;  uncertainty r = 0.000122, k = 15.522499
         8        11     1        0.123489   716612.965625    ;  uncertainty r = 0.000142, k = 14.631314
         9        10     1        0.141552   453112.388477    ;  uncertainty r = 0.000171, k = 16.995177
         9        32     1        0.102183   460638.685352    ;  uncertainty r = 0.000033, k = 7.805120
        10        12     1        0.136153   463089.481738    ;  uncertainty r = 0.000254, k = 22.888188
        10        16     1        0.140146   393200.644434    ;  uncertainty r = 0.000118, k = 23.611463
        12        13     1        0.133257   367800.720410    ;  uncertainty r = 0.000189, k = 9.372354
        13        14     1        0.141967   371199.939502    ;  uncertainty r = 0.000126, k = 12.750214
        13        23     1        0.133830   299854.899609    ;  uncertainty r = 0.000253, k = 19.156493
        14        15     1        0.142732   396537.731738    ;  uncertainty r = 0.000130, k = 15.072270
        14        22     1        0.142647   330454.051416    ;  uncertainty r = 0.000101, k = 10.283794
        15        16     1        0.141328   422706.092920    ;  uncertainty r = 0.000138, k = 7.904458
        15        21     1        0.139026   371108.056982    ;  uncertainty r = 0.000153, k = 27.823547
        16        29     1        0.108832   343723.618652    ;  uncertainty r = 0.000047, k = 2.764878
        17        18     1        0.143290   246833.042139    ;  uncertainty r = 0.000059, k = 2.554665
        18        33     1        0.109514   311275.120459    ;  uncertainty r = 0.000035, k = 1.086412
        18        34     1        0.109514   311275.120459    ;  uncertainty r = 0.000035, k = 1.086412
        18        35     1        0.109514   311275.120459    ;  uncertainty r = 0.000035, k = 1.086412
        19        20     1        0.142427   248080.019189    ;  uncertainty r = 0.000051, k = 1.553099
        20        36     1        0.109585   311301.704590    ;  uncertainty r = 0.000018, k = 1.291915
        20        37     1        0.109585   311301.704590    ;  uncertainty r = 0.000018, k = 1.291915
        20        38     1        0.109585   311301.704590    ;  uncertainty r = 0.000018, k = 1.291915
        21        39     1        0.101300   420077.839160    ;  uncertainty r = 0.000037, k = 2.878755
        21        40     1        0.101300   420077.839160    ;  uncertainty r = 0.000037, k = 2.878755
        22        26     1        0.116793  1128378.016016    ;  uncertainty r = 0.000033, k = 2.941856
        23        24     1        0.144555   219804.872021    ;  uncertainty r = 0.000052, k = 11.169412
        24        25     1        0.152560   217522.314111    ;  uncertainty r = 0.000023, k = 4.287973
        24        41     1        0.109374   306566.358398    ;  uncertainty r = 0.000055, k = 2.469941
        24        52     1        0.152560   217522.314111    ;  uncertainty r = 0.000023, k = 4.287973
        25        42     1        0.109563   311075.062744    ;  uncertainty r = 0.000009, k = 1.649583
        25        43     1        0.109563   311075.062744    ;  uncertainty r = 0.000009, k = 1.649583
        25        44     1        0.109563   311075.062744    ;  uncertainty r = 0.000009, k = 1.649583
        45        46     1        0.147574   506687.558496    ;  uncertainty r = 0.000060, k = 3.473324
        45        47     1        0.147574   506687.558496    ;  uncertainty r = 0.000060, k = 3.473324
        45        48     1        0.181050   176826.478760    ;  uncertainty r = 0.000058, k = 14.025331
        48        49     1        0.109281   321544.639160    ;  uncertainty r = 0.000028, k = 1.287488
        48        50     1        0.109281   321544.639160    ;  uncertainty r = 0.000028, k = 1.287488
        48        51     1        0.109281   321544.639160    ;  uncertainty r = 0.000028, k = 1.287488
        52        53     1        0.109563   311075.062744    ;  uncertainty r = 0.000009, k = 1.649583
        52        54     1        0.109563   311075.062744    ;  uncertainty r = 0.000009, k = 1.649583
        52        55     1        0.109563   311075.062744    ;  uncertainty r = 0.000009, k = 1.649583

[ angles ]
;       ai        aj        ak funct           theta             cth
         1         2         3     1      123.507980      393.583899    ;  uncertainty theta = 0.002673, k = 0.142259
         1         2        19     1      119.522949      424.845311    ;  uncertainty theta = 0.005439, k = 0.257559
         1         6         5     1      124.915482      427.294799    ;  uncertainty theta = 0.007482, k = 0.129089
         1         6        45     1      116.433372      340.902630    ;  uncertainty theta = 0.006469, k = 0.383552
         2         1         6     1      121.980957      480.395930    ;  uncertainty theta = 0.002955, k = 0.120259
         2         1        27     1      119.043053      266.125457    ;  uncertainty theta = 0.007339, k = 0.033390
         2         3         4     1      120.754044      448.866793    ;  uncertainty theta = 0.002985, k = 0.113180
         2         3         7     1      118.805832      400.255852    ;  uncertainty theta = 0.003537, k = 0.083147
         2        19        20     1      110.712975      512.960405    ;  uncertainty theta = 0.001801, k = 0.042575
         3         2        19     1      116.745926      442.198990    ;  uncertainty theta = 0.004742, k = 0.119349
         3         4         5     1      123.252647      496.870621    ;  uncertainty theta = 0.002220, k = 0.133032
         3         4        28     1      117.619484      268.607041    ;  uncertainty theta = 0.002380, k = 0.079881
         3         7         8     1      111.622513      502.208388    ;  uncertainty theta = 0.003616, k = 0.200863
         3         7        30     1      107.782028      396.909724    ;  uncertainty theta = 0.002392, k = 0.109580
         3         7        31     1      107.782028      396.909724    ;  uncertainty theta = 0.002392, k = 0.109580
         4         3         7     1      120.497360      417.665393    ;  uncertainty theta = 0.002945, k = 0.111523
         4         5         6     1      122.562683      366.779574    ;  uncertainty theta = 0.004768, k = 0.155092
         4         5        17     1      120.390831      437.925833    ;  uncertainty theta = 0.004335, k = 0.192057
         5         4        28     1      117.585938      266.742162    ;  uncertainty theta = 0.002864, k = 0.131357
         5         6        45     1      117.621582      338.940327    ;  uncertainty theta = 0.002278, k = 0.356171
         5        17        18     1      111.161087      497.042965    ;  uncertainty theta = 0.002177, k = 0.069935
         6         1        27     1      118.183411      257.661054    ;  uncertainty theta = 0.005191, k = 0.139013
         6         5        17     1      117.430176      448.769497    ;  uncertainty theta = 0.006856, k = 0.149416
         6        45        46     1      112.534988      562.175330    ;  uncertainty theta = 0.002308, k = 0.179265
         6        45        47     1      112.534988      562.175330    ;  uncertainty theta = 0.002308, k = 0.179265
         6        45        48     1      104.113632      607.593654    ;  uncertainty theta = 0.001794, k = 0.041921
         7         8         9     1      112.034767      504.810332    ;  uncertainty theta = 0.005508, k = 0.092226
         7         8        11     1      125.077797      512.440724    ;  uncertainty theta = 0.003357, k = 0.164776
         8         7        30     1      106.426987      360.312365    ;  uncertainty theta = 0.002126, k = 0.184600
         8         7        31     1      106.426987      360.312365    ;  uncertainty theta = 0.002126, k = 0.184600
         8         9        10     1      120.651833      441.608476    ;  uncertainty theta = 0.003542, k = 0.155802
         8         9        32     1      117.210800      264.588809    ;  uncertainty theta = 0.004813, k = 0.856046
         9         8        11     1      123.519814      778.447003    ;  uncertainty theta = 0.002106, k = 0.093869
         9        10        12     1      120.200584      772.276535    ;  uncertainty theta = 0.006004, k = 0.138938
         9        10        16     1      122.278137      533.311278    ;  uncertainty theta = 0.005250, k = 0.406084
        10         9        32     1      117.066086      336.130415    ;  uncertainty theta = 0.002657, k = 0.114965
        10        12        13     1      118.391014      411.434275    ;  uncertainty theta = 0.011507, k = 0.207886
        10        16        15     1      113.982933      516.057066    ;  uncertainty theta = 0.005279, k = 0.322192
        10        16        29     1      121.581764      266.638242    ;  uncertainty theta = 0.003427, k = 0.119353
        12        10        16     1      122.961044      558.127507    ;  uncertainty theta = 0.009136, k = 0.096342
        12        13        14     1      126.340919      519.765278    ;  uncertainty theta = 0.005132, k = 0.244011
        12        13        23     1      118.344772      592.673917    ;  uncertainty theta = 0.004780, k = 0.158580
        13        14        15     1      121.241661      477.584039    ;  uncertainty theta = 0.002634, k = 0.444784
        13        14        22     1      121.118423      386.974352    ;  uncertainty theta = 0.009473, k = 0.102844
        13        23        24     1      110.028793      482.572649    ;  uncertainty theta = 0.001665, k = 0.124158
        14        13        23     1      116.081932      470.107220    ;  uncertainty theta = 0.004413, k = 0.194042
        14        15        16     1      117.414352      425.894567    ;  uncertainty theta = 0.002614, k = 0.231713
        14        15        21     1      120.497971      580.324490    ;  uncertainty theta = 0.004479, k = 0.068254
        14        22        26     1      180.000000      240.754195    ;  uncertainty theta = 0.000000, k = 0.717612
        15        14        22     1      117.858421      370.256548    ;  uncertainty theta = 0.007085, k = 0.172053
        15        16        29     1      121.593582      279.201047    ;  uncertainty theta = 0.003701, k = 0.115080
        15        21        39     1      113.768478      388.852256    ;  uncertainty theta = 0.002252, k = 0.082774
        15        21        40     1      113.768478      388.852256    ;  uncertainty theta = 0.002252, k = 0.082774
        16        15        21     1      126.082375      568.295682    ;  uncertainty theta = 0.002505, k = 0.080621
        17        18        33     1      108.621521      440.477853    ;  uncertainty theta = 0.001077, k = 0.068738
        17        18        34     1      108.621521      440.477853    ;  uncertainty theta = 0.001077, k = 0.068738
        17        18        35     1      108.621521      440.477853    ;  uncertainty theta = 0.001077, k = 0.068738
        19        20        36     1      108.933083      444.942154    ;  uncertainty theta = 0.001080, k = 0.017696
        19        20        37     1      108.933083      444.942154    ;  uncertainty theta = 0.001080, k = 0.017696
        19        20        38     1      108.933083      444.942154    ;  uncertainty theta = 0.001080, k = 0.017696
        23        24        25     1      107.864723      578.087375    ;  uncertainty theta = 0.003028, k = 0.076371
        23        24        41     1      104.639481      419.815714    ;  uncertainty theta = 0.003161, k = 0.039309
        23        24        52     1      107.864723      578.087375    ;  uncertainty theta = 0.003028, k = 0.076371
        24        25        42     1      107.354858      397.518146    ;  uncertainty theta = 0.001136, k = 0.051866
        24        25        43     1      107.354858      397.518114    ;  uncertainty theta = 0.001136, k = 0.051866
        24        25        44     1      107.354858      397.518114    ;  uncertainty theta = 0.001136, k = 0.051866
        24        52        53     1      107.354858      397.518114    ;  uncertainty theta = 0.001136, k = 0.051866
        24        52        54     1      107.354858      397.518114    ;  uncertainty theta = 0.001136, k = 0.051866
        24        52        55     1      107.354858      397.518114    ;  uncertainty theta = 0.001136, k = 0.051866
        25        24        41     1      109.443871      413.754800    ;  uncertainty theta = 0.002693, k = 0.055612
        25        24        52     1      112.589806      595.561526    ;  uncertainty theta = 0.001471, k = 0.058627
        30         7        31     1      105.787987      310.078477    ;  uncertainty theta = 0.005198, k = 0.039222
        33        18        34     1      109.118187      330.875931    ;  uncertainty theta = 0.001351, k = 0.013309
        33        18        35     1      109.118187      330.875931    ;  uncertainty theta = 0.001351, k = 0.013309
        34        18        35     1      109.118187      330.875931    ;  uncertainty theta = 0.001351, k = 0.013309
        36        20        37     1      109.085159      330.320914    ;  uncertainty theta = 0.001597, k = 0.020763
        36        20        38     1      109.085159      330.320914    ;  uncertainty theta = 0.001597, k = 0.020763
        37        20        38     1      109.085159      330.320914    ;  uncertainty theta = 0.001597, k = 0.020763
        39        21        40     1      107.812782      286.090864    ;  uncertainty theta = 0.005516, k = 0.089415
        41        24        52     1      109.443871      413.754800    ;  uncertainty theta = 0.002693, k = 0.055612
        42        25        43     1      105.492569      316.233176    ;  uncertainty theta = 0.001759, k = 0.008197
        42        25        44     1      105.492569      316.233176    ;  uncertainty theta = 0.001759, k = 0.008197
        43        25        44     1      105.492569      316.233176    ;  uncertainty theta = 0.001759, k = 0.008197
        45        48        49     1      106.963608      363.394152    ;  uncertainty theta = 0.001041, k = 0.027528
        45        48        50     1      106.963608      363.394152    ;  uncertainty theta = 0.001041, k = 0.027528
        45        48        51     1      106.963608      363.394152    ;  uncertainty theta = 0.001041, k = 0.027528
        46        45        47     1      123.930466      841.942216    ;  uncertainty theta = 0.001439, k = 0.062553
        46        45        48     1      112.847672      739.993798    ;  uncertainty theta = 0.002196, k = 0.063657
        47        45        48     1      112.847672      739.993798    ;  uncertainty theta = 0.002196, k = 0.063657
        49        48        50     1      108.842796      295.919714    ;  uncertainty theta = 0.002087, k = 0.023449
        49        48        51     1      108.842796      295.919714    ;  uncertainty theta = 0.002087, k = 0.023449
        50        48        51     1      108.842796      295.919714    ;  uncertainty theta = 0.002087, k = 0.023449
        53        52        54     1      105.492569      316.233112    ;  uncertainty theta = 0.001759, k = 0.008196
        53        52        55     1      105.492569      316.233144    ;  uncertainty theta = 0.001759, k = 0.008197
        54        52        55     1      105.492569      316.233112    ;  uncertainty theta = 0.001759, k = 0.008196

[ dihedrals ] ; propers for gromacs 4.5 or higher, use funct 9
;       ai        aj        ak        al funct           phase               k        pn
         1         2         3         4     9        0.000000       -0.136742         1    ;  uncertainty k = 0.344146
         1         2         3         4     9      180.000000        6.455328         2    ;  uncertainty k = 0.674594
         1         2         3         4     9        0.000000        0.334945         3    ;  uncertainty k = 0.317183
         1         2         3         4     9      180.000000        1.202014         4    ;  uncertainty k = 0.425433
         1         2         3         7     9        0.000000        0.425483         1    ;  uncertainty k = 0.255198
         1         2         3         7     9      180.000000        6.292241         2    ;  uncertainty k = 0.493472
         1         2         3         7     9        0.000000        1.252984         3    ;  uncertainty k = 0.264646
         1         2         3         7     9      180.000000        1.674067         4    ;  uncertainty k = 0.317072
         1         2        19        20     9        0.000000        1.118654         1    ;  uncertainty k = 0.442754
         1         2        19        20     9      180.000000        6.378893         2    ;  uncertainty k = 0.100014
         1         2        19        20     9        0.000000       -0.086267         3    ;  uncertainty k = 0.202216
         1         2        19        20     9      180.000000        0.099443         4    ;  uncertainty k = 0.109059
         1         6         5         4     9        0.000000       -0.365584         1    ;  uncertainty k = 0.352515
         1         6         5         4     9      180.000000        5.895010         2    ;  uncertainty k = 0.820056
         1         6         5         4     9        0.000000        0.350918         3    ;  uncertainty k = 0.415885
         1         6         5         4     9      180.000000        1.257118         4    ;  uncertainty k = 0.179249
         1         6         5        17     9        0.000000        0.222610         1    ;  uncertainty k = 0.303978
         1         6         5        17     9      180.000000        9.688034         2    ;  uncertainty k = 0.401440
         1         6         5        17     9        0.000000        1.033513         3    ;  uncertainty k = 0.205851
         1         6         5        17     9      180.000000        1.529313         4    ;  uncertainty k = 0.255491
         1         6        45        46     9        0.000000       -1.370880         1    ;  uncertainty k = 1.016738
         1         6        45        46     9      180.000000        0.249963         2    ;  uncertainty k = 0.291137
         1         6        45        46     9        0.000000        0.087876         3    ;  uncertainty k = 0.212630
         1         6        45        46     9      180.000000        0.124648         4    ;  uncertainty k = 0.206904
         1         6        45        47     9        0.000000       -1.370880         1    ;  uncertainty k = 1.016738
         1         6        45        47     9      180.000000        0.249963         2    ;  uncertainty k = 0.291137
         1         6        45        47     9        0.000000        0.087876         3    ;  uncertainty k = 0.212630
         1         6        45        47     9      180.000000        0.124648         4    ;  uncertainty k = 0.206904
         1         6        45        48     9        0.000000        3.067971         1    ;  uncertainty k = 1.047216
         1         6        45        48     9      180.000000       -0.167081         2    ;  uncertainty k = 0.391328
         1         6        45        48     9        0.000000       -0.212470         3    ;  uncertainty k = 0.438258
         1         6        45        48     9      180.000000        0.504870         4    ;  uncertainty k = 0.195919
         2         1         6         5     9        0.000000        0.009716         1    ;  uncertainty k = 0.346580
         2         1         6         5     9      180.000000        9.836057         2    ;  uncertainty k = 0.398357
         2         1         6         5     9        0.000000        0.260491         3    ;  uncertainty k = 0.367124
         2         1         6         5     9      180.000000        1.322026         4    ;  uncertainty k = 0.209049
         2         1         6        45     9        0.000000        0.066414         1    ;  uncertainty k = 0.372463
         2         1         6        45     9      180.000000        8.554252         2    ;  uncertainty k = 0.694192
         2         1         6        45     9        0.000000        1.491138         3    ;  uncertainty k = 0.457575
         2         1         6        45     9      180.000000        1.863446         4    ;  uncertainty k = 0.185705
         2         3         4         5     9        0.000000        0.156626         1    ;  uncertainty k = 0.210400
         2         3         4         5     9      180.000000       10.620624         2    ;  uncertainty k = 0.361706
         2         3         4         5     9        0.000000        0.381821         3    ;  uncertainty k = 0.220370
         2         3         4         5     9      180.000000        1.263570         4    ;  uncertainty k = 0.243225
         2         3         4        28     9        0.000000        0.223056         1    ;  uncertainty k = 0.220655
         2         3         4        28     9      180.000000        8.517141         2    ;  uncertainty k = 0.380022
         2         3         4        28     9        0.000000        1.318315         3    ;  uncertainty k = 0.331510
         2         3         4        28     9      180.000000        1.687752         4    ;  uncertainty k = 0.059243
         2         3         7         8     9        0.000000        1.603325         1    ;  uncertainty k = 1.002048
         2         3         7         8     9      180.000000        1.978134         2    ;  uncertainty k = 0.573695
         2         3         7         8     9        0.000000        0.558435         3    ;  uncertainty k = 0.166534
         2         3         7         8     9      180.000000        0.282020         4    ;  uncertainty k = 0.069391
         2         3         7        30     9        0.000000       -0.274009         1    ;  uncertainty k = 0.594563
         2         3         7        30     9      180.000000        2.783169         2    ;  uncertainty k = 0.173241
         2         3         7        30     9        0.000000        0.311556         3    ;  uncertainty k = 0.160769
         2         3         7        30     9      180.000000        0.392921         4    ;  uncertainty k = 0.121509
         2         3         7        31     9        0.000000       -0.274009         1    ;  uncertainty k = 0.594563
         2         3         7        31     9      180.000000        2.783169         2    ;  uncertainty k = 0.173241
         2         3         7        31     9        0.000000        0.311556         3    ;  uncertainty k = 0.160769
         2         3         7        31     9      180.000000        0.392921         4    ;  uncertainty k = 0.121509
         2        19        20        36     9        0.000000        1.023029         1    ;  uncertainty k = 0.176322
         2        19        20        36     9      180.000000       -1.962093         2    ;  uncertainty k = 0.159253
         2        19        20        36     9        0.000000        0.993448         3    ;  uncertainty k = 0.032797
         2        19        20        36     9      180.000000        0.274599         4    ;  uncertainty k = 0.058274
         2        19        20        37     9        0.000000        1.023029         1    ;  uncertainty k = 0.176322
         2        19        20        37     9      180.000000       -1.962093         2    ;  uncertainty k = 0.159253
         2        19        20        37     9        0.000000        0.993448         3    ;  uncertainty k = 0.032797
         2        19        20        37     9      180.000000        0.274599         4    ;  uncertainty k = 0.058274
         2        19        20        38     9        0.000000        1.023029         1    ;  uncertainty k = 0.176322
         2        19        20        38     9      180.000000       -1.962093         2    ;  uncertainty k = 0.159253
         2        19        20        38     9        0.000000        0.993448         3    ;  uncertainty k = 0.032797
         2        19        20        38     9      180.000000        0.274599         4    ;  uncertainty k = 0.058274
         3         2         1         6     9        0.000000        0.189440         1    ;  uncertainty k = 0.435366
         3         2         1         6     9      180.000000        7.220094         2    ;  uncertainty k = 0.764455
         3         2         1         6     9        0.000000        0.562529         3    ;  uncertainty k = 0.448311
         3         2         1         6     9      180.000000        1.333693         4    ;  uncertainty k = 0.303306
         3         2         1        27     9        0.000000        0.282426         1    ;  uncertainty k = 0.347216
         3         2         1        27     9      180.000000        5.874684         2    ;  uncertainty k = 0.448794
         3         2         1        27     9        0.000000        1.299197         3    ;  uncertainty k = 0.322019
         3         2         1        27     9      180.000000        1.622602         4    ;  uncertainty k = 0.110426
         3         2        19        20     9        0.000000       -1.872461         1    ;  uncertainty k = 0.946122
         3         2        19        20     9      180.000000        6.785650         2    ;  uncertainty k = 0.218214
         3         2        19        20     9        0.000000        0.484853         3    ;  uncertainty k = 0.185059
         3         2        19        20     9      180.000000        0.254705         4    ;  uncertainty k = 0.125431
         3         4         5         6     9        0.000000        0.215473         1    ;  uncertainty k = 0.339260
         3         4         5         6     9      180.000000        6.770893         2    ;  uncertainty k = 0.968086
         3         4         5         6     9        0.000000        0.515885         3    ;  uncertainty k = 0.448298
         3         4         5         6     9      180.000000        1.374064         4    ;  uncertainty k = 0.340254
         3         4         5        17     9        0.000000        0.045993         1    ;  uncertainty k = 0.283880
         3         4         5        17     9      180.000000       10.685475         2    ;  uncertainty k = 0.298201
         3         4         5        17     9        0.000000        1.186900         3    ;  uncertainty k = 0.328592
         3         4         5        17     9      180.000000        1.701111         4    ;  uncertainty k = 0.145723
         3         7         8         9     9        0.000000       -0.654841         1    ;  uncertainty k = 0.531734
         3         7         8         9     9      180.000000        2.263349         2    ;  uncertainty k = 0.535082
         3         7         8         9     9        0.000000        0.503420         3    ;  uncertainty k = 0.113864
         3         7         8         9     9      180.000000        0.208309         4    ;  uncertainty k = 0.120037
         3         7         8        11     9        0.000000       -1.236811         1    ;  uncertainty k = 0.665191
         3         7         8        11     9      180.000000        4.197789         2    ;  uncertainty k = 0.475073
         3         7         8        11     9        0.000000        0.958919         3    ;  uncertainty k = 0.231542
         3         7         8        11     9      180.000000        0.410910         4    ;  uncertainty k = 0.168066
         4         3         2        19     9        0.000000        0.146454         1    ;  uncertainty k = 0.350380
         4         3         2        19     9      180.000000       10.320456         2    ;  uncertainty k = 0.583363
         4         3         2        19     9        0.000000        1.169532         3    ;  uncertainty k = 0.322979
         4         3         2        19     9      180.000000        1.494757         4    ;  uncertainty k = 0.211562
         4         3         7         8     9        0.000000        0.330446         1    ;  uncertainty k = 0.788863
         4         3         7         8     9      180.000000        1.929573         2    ;  uncertainty k = 0.317451
         4         3         7         8     9        0.000000        0.359095         3    ;  uncertainty k = 0.252879
         4         3         7         8     9      180.000000        0.211457         4    ;  uncertainty k = 0.087845
         4         3         7        30     9        0.000000       -0.312232         1    ;  uncertainty k = 0.667215
         4         3         7        30     9      180.000000        2.430024         2    ;  uncertainty k = 0.321056
         4         3         7        30     9        0.000000        0.326535         3    ;  uncertainty k = 0.131420
         4         3         7        30     9      180.000000        0.229823         4    ;  uncertainty k = 0.057435
         4         3         7        31     9        0.000000       -0.312232         1    ;  uncertainty k = 0.667215
         4         3         7        31     9      180.000000        2.430024         2    ;  uncertainty k = 0.321056
         4         3         7        31     9        0.000000        0.326535         3    ;  uncertainty k = 0.131420
         4         3         7        31     9      180.000000        0.229823         4    ;  uncertainty k = 0.057435
         4         5         6        45     9        0.000000        0.781920         1    ;  uncertainty k = 0.585001
         4         5         6        45     9      180.000000        6.557272         2    ;  uncertainty k = 0.491642
         4         5         6        45     9        0.000000        1.159751         3    ;  uncertainty k = 0.222780
         4         5         6        45     9      180.000000        1.535151         4    ;  uncertainty k = 0.230581
         4         5        17        18     9        0.000000        3.022139         1    ;  uncertainty k = 1.096345
         4         5        17        18     9      180.000000        7.213466         2    ;  uncertainty k = 0.121848
         4         5        17        18     9        0.000000        0.041863         3    ;  uncertainty k = 0.188168
         4         5        17        18     9      180.000000       -0.036802         4    ;  uncertainty k = 0.158799
         5         4         3         7     9        0.000000        0.124111         1    ;  uncertainty k = 0.349632
         5         4         3         7     9      180.000000        8.948174         2    ;  uncertainty k = 0.351652
         5         4         3         7     9        0.000000        1.532704         3    ;  uncertainty k = 0.177149
         5         4         3         7     9      180.000000        1.868405         4    ;  uncertainty k = 0.090897
         5         6         1        27     9        0.000000       -0.005131         1    ;  uncertainty k = 0.344987
         5         6         1        27     9      180.000000        7.320024         2    ;  uncertainty k = 0.214129
         5         6         1        27     9        0.000000        1.216839         3    ;  uncertainty k = 0.343926
         5         6         1        27     9      180.000000        1.593173         4    ;  uncertainty k = 0.109913
         5         6        45        46     9        0.000000       -3.412889         1    ;  uncertainty k = 1.621500
         5         6        45        46     9      180.000000       -0.033584         2    ;  uncertainty k = 0.447008
         5         6        45        46     9        0.000000        1.052292         3    ;  uncertainty k = 0.314773
         5         6        45        46     9      180.000000        0.098022         4    ;  uncertainty k = 0.206369
         5         6        45        47     9        0.000000       -3.412889         1    ;  uncertainty k = 1.621500
         5         6        45        47     9      180.000000       -0.033584         2    ;  uncertainty k = 0.447008
         5         6        45        47     9        0.000000        1.052292         3    ;  uncertainty k = 0.314773
         5         6        45        47     9      180.000000        0.098022         4    ;  uncertainty k = 0.206369
         5         6        45        48     9        0.000000        4.003611         1    ;  uncertainty k = 1.172296
         5         6        45        48     9      180.000000       -0.569209         2    ;  uncertainty k = 0.444233
         5         6        45        48     9        0.000000        0.632266         3    ;  uncertainty k = 0.366480
         5         6        45        48     9      180.000000        0.495423         4    ;  uncertainty k = 0.093590
         5        17        18        33     9        0.000000        1.229817         1    ;  uncertainty k = 0.228791
         5        17        18        33     9      180.000000       -2.199710         2    ;  uncertainty k = 0.273572
         5        17        18        33     9        0.000000        0.960431         3    ;  uncertainty k = 0.078458
         5        17        18        33     9      180.000000        0.279852         4    ;  uncertainty k = 0.057440
         5        17        18        34     9        0.000000        1.229817         1    ;  uncertainty k = 0.228791
         5        17        18        34     9      180.000000       -2.199710         2    ;  uncertainty k = 0.273572
         5        17        18        34     9        0.000000        0.960431         3    ;  uncertainty k = 0.078458
         5        17        18        34     9      180.000000        0.279852         4    ;  uncertainty k = 0.057440
         5        17        18        35     9        0.000000        1.229817         1    ;  uncertainty k = 0.228791
         5        17        18        35     9      180.000000       -2.199710         2    ;  uncertainty k = 0.273572
         5        17        18        35     9        0.000000        0.960431         3    ;  uncertainty k = 0.078458
         5        17        18        35     9      180.000000        0.279852         4    ;  uncertainty k = 0.057440
         6         1         2        19     9        0.000000       -0.028740         1    ;  uncertainty k = 0.464591
         6         1         2        19     9      180.000000       11.702624         2    ;  uncertainty k = 0.548118
         6         1         2        19     9        0.000000        1.038641         3    ;  uncertainty k = 0.310609
         6         1         2        19     9      180.000000        1.466463         4    ;  uncertainty k = 0.203231
         6         5         4        28     9        0.000000        0.010202         1    ;  uncertainty k = 0.487988
         6         5         4        28     9      180.000000        6.107376         2    ;  uncertainty k = 0.523330
         6         5         4        28     9        0.000000        1.247532         3    ;  uncertainty k = 0.307853
         6         5         4        28     9      180.000000        1.593769         4    ;  uncertainty k = 0.075132
         6         5        17        18     9        0.000000       -5.073225         1    ;  uncertainty k = 1.604380
         6         5        17        18     9      180.000000        9.262344         2    ;  uncertainty k = 0.179702
         6         5        17        18     9        0.000000       -0.444152         3    ;  uncertainty k = 0.189255
         6         5        17        18     9      180.000000        0.386108         4    ;  uncertainty k = 0.096679
         6        45        48        49     9        0.000000        2.792337         1    ;  uncertainty k = 0.997782
         6        45        48        49     9      180.000000       -2.926592         2    ;  uncertainty k = 0.764375
         6        45        48        49     9        0.000000        0.020199         3    ;  uncertainty k = 0.069117
         6        45        48        49     9      180.000000       -0.007693         4    ;  uncertainty k = 0.120158
         6        45        48        50     9        0.000000        2.792337         1    ;  uncertainty k = 0.997782
         6        45        48        50     9      180.000000       -2.926592         2    ;  uncertainty k = 0.764375
         6        45        48        50     9        0.000000        0.020199         3    ;  uncertainty k = 0.069117
         6        45        48        50     9      180.000000       -0.007693         4    ;  uncertainty k = 0.120158
         6        45        48        51     9        0.000000        2.792337         1    ;  uncertainty k = 0.997782
         6        45        48        51     9      180.000000       -2.926592         2    ;  uncertainty k = 0.764375
         6        45        48        51     9        0.000000        0.020199         3    ;  uncertainty k = 0.069117
         6        45        48        51     9      180.000000       -0.007693         4    ;  uncertainty k = 0.120158
         7         3         2        19     9        0.000000       -0.141420         1    ;  uncertainty k = 0.436383
         7         3         2        19     9      180.000000       11.766382         2    ;  uncertainty k = 0.501424
         7         3         2        19     9        0.000000        0.870361         3    ;  uncertainty k = 0.420528
         7         3         2        19     9      180.000000        1.308425         4    ;  uncertainty k = 0.246936
         7         3         4        28     9        0.000000       -0.283425         1    ;  uncertainty k = 0.271781
         7         3         4        28     9      180.000000        7.619016         2    ;  uncertainty k = 0.500269
         7         3         4        28     9        0.000000        0.651757         3    ;  uncertainty k = 0.395261
         7         3         4        28     9      180.000000        1.182577         4    ;  uncertainty k = 0.279919
         7         8         9        10     9        0.000000        4.671022         1    ;  uncertainty k = 0.699799
         7         8         9        10     9      180.000000        7.623967         2    ;  uncertainty k = 0.302874
         7         8         9        10     9        0.000000        0.817724         3    ;  uncertainty k = 0.357680
         7         8         9        10     9      180.000000       -0.182306         4    ;  uncertainty k = 0.241602
         7         8         9        32     9        0.000000        0.853657         1    ;  uncertainty k = 0.505894
         7         8         9        32     9      180.000000        5.539233         2    ;  uncertainty k = 0.534867
         7         8         9        32     9        0.000000        1.662963         3    ;  uncertainty k = 0.189506
         7         8         9        32     9      180.000000        0.023894         4    ;  uncertainty k = 0.271248
         8         9        10        12     9        0.000000        2.072811         1    ;  uncertainty k = 1.298569
         8         9        10        12     9      180.000000        7.117389         2    ;  uncertainty k = 0.356370
         8         9        10        12     9        0.000000        0.898369         3    ;  uncertainty k = 0.198027
         8         9        10        12     9      180.000000       -0.261395         4    ;  uncertainty k = 0.217798
         8         9        10        16     9        0.000000       -0.263671         1    ;  uncertainty k = 1.359134
         8         9        10        16     9      180.000000        5.560786         2    ;  uncertainty k = 0.239106
         8         9        10        16     9        0.000000        0.536590         3    ;  uncertainty k = 0.116520
         8         9        10        16     9      180.000000       -0.243126         4    ;  uncertainty k = 0.185800
         9         8         7        30     9        0.000000       -1.164087         1    ;  uncertainty k = 0.303850
         9         8         7        30     9      180.000000        2.838964         2    ;  uncertainty k = 0.369025
         9         8         7        30     9        0.000000        0.221109         3    ;  uncertainty k = 0.093496
         9         8         7        30     9      180.000000        0.066060         4    ;  uncertainty k = 0.106536
         9         8         7        31     9        0.000000       -1.164087         1    ;  uncertainty k = 0.303850
         9         8         7        31     9      180.000000        2.838964         2    ;  uncertainty k = 0.369025
         9         8         7        31     9        0.000000        0.221109         3    ;  uncertainty k = 0.093496
         9         8         7        31     9      180.000000        0.066060         4    ;  uncertainty k = 0.106536
         9        10        12        13     9        0.000000       -0.322967         1    ;  uncertainty k = 0.832474
         9        10        12        13     9      180.000000       14.334838         2    ;  uncertainty k = 0.379553
         9        10        12        13     9        0.000000        1.987150         3    ;  uncertainty k = 0.567160
         9        10        12        13     9      180.000000        1.657822         4    ;  uncertainty k = 0.566515
         9        10        16        15     9        0.000000        0.126116         1    ;  uncertainty k = 0.694904
         9        10        16        15     9      180.000000       10.311010         2    ;  uncertainty k = 0.354821
         9        10        16        15     9        0.000000        1.009975         3    ;  uncertainty k = 0.371826
         9        10        16        15     9      180.000000        1.171697         4    ;  uncertainty k = 0.312850
         9        10        16        29     9        0.000000       -0.283095         1    ;  uncertainty k = 0.411758
         9        10        16        29     9      180.000000        7.046675         2    ;  uncertainty k = 0.484512
         9        10        16        29     9        0.000000        1.005820         3    ;  uncertainty k = 0.162759
         9        10        16        29     9      180.000000        0.948056         4    ;  uncertainty k = 0.400045
        10         9         8        11     9        0.000000        4.133006         1    ;  uncertainty k = 0.494385
        10         9         8        11     9      180.000000       17.191458         2    ;  uncertainty k = 0.239049
        10         9         8        11     9        0.000000        0.572943         3    ;  uncertainty k = 0.140968
        10         9         8        11     9      180.000000       -1.289237         4    ;  uncertainty k = 0.196962
        10        12        13        14     9        0.000000       -0.235397         1    ;  uncertainty k = 0.722738
        10        12        13        14     9      180.000000        9.895879         2    ;  uncertainty k = 0.277181
        10        12        13        14     9        0.000000        1.563267         3    ;  uncertainty k = 0.497356
        10        12        13        14     9      180.000000        1.199711         4    ;  uncertainty k = 0.406846
        10        12        13        23     9        0.000000        0.543642         1    ;  uncertainty k = 0.926527
        10        12        13        23     9      180.000000       14.298601         2    ;  uncertainty k = 0.313229
        10        12        13        23     9        0.000000        2.455079         3    ;  uncertainty k = 0.515779
        10        12        13        23     9      180.000000        1.507107         4    ;  uncertainty k = 0.157220
        10        16        15        14     9        0.000000       -0.077426         1    ;  uncertainty k = 0.287828
        10        16        15        14     9      180.000000        8.018422         2    ;  uncertainty k = 0.962199
        10        16        15        14     9        0.000000        0.155322         3    ;  uncertainty k = 0.417496
        10        16        15        14     9      180.000000        1.239091         4    ;  uncertainty k = 0.347276
        10        16        15        21     9        0.000000       -0.330766         1    ;  uncertainty k = 0.831441
        10        16        15        21     9      180.000000        9.847893         2    ;  uncertainty k = 0.474596
        10        16        15        21     9        0.000000        0.856731         3    ;  uncertainty k = 0.349573
        10        16        15        21     9      180.000000        1.151218         4    ;  uncertainty k = 0.263543
        11         8         7        30     9        0.000000        0.080447         1    ;  uncertainty k = 0.268892
        11         8         7        30     9      180.000000        4.122898         2    ;  uncertainty k = 0.315571
        11         8         7        30     9        0.000000        0.598180         3    ;  uncertainty k = 0.096513
        11         8         7        30     9      180.000000        0.296107         4    ;  uncertainty k = 0.068140
        11         8         7        31     9        0.000000        0.080447         1    ;  uncertainty k = 0.268892
        11         8         7        31     9      180.000000        4.122898         2    ;  uncertainty k = 0.315571
        11         8         7        31     9        0.000000        0.598180         3    ;  uncertainty k = 0.096513
        11         8         7        31     9      180.000000        0.296107         4    ;  uncertainty k = 0.068140
        11         8         9        32     9        0.000000        2.750074         1    ;  uncertainty k = 0.897579
        11         8         9        32     9      180.000000       14.049828         2    ;  uncertainty k = 0.278745
        11         8         9        32     9        0.000000        1.102512         3    ;  uncertainty k = 0.141275
        11         8         9        32     9      180.000000       -0.359929         4    ;  uncertainty k = 0.195301
        12        10         9        32     9        0.000000        7.171788         1    ;  uncertainty k = 0.448166
        12        10         9        32     9      180.000000        5.192301         2    ;  uncertainty k = 0.589420
        12        10         9        32     9        0.000000        0.016513         3    ;  uncertainty k = 0.275622
        12        10         9        32     9      180.000000        0.086158         4    ;  uncertainty k = 0.231740
        12        10        16        15     9        0.000000       -0.110563         1    ;  uncertainty k = 0.396565
        12        10        16        15     9      180.000000       11.285300         2    ;  uncertainty k = 0.694427
        12        10        16        15     9        0.000000       -0.649633         3    ;  uncertainty k = 0.646004
        12        10        16        15     9      180.000000        1.071863         4    ;  uncertainty k = 0.235668
        12        10        16        29     9        0.000000        0.327710         1    ;  uncertainty k = 0.728967
        12        10        16        29     9      180.000000        8.733751         2    ;  uncertainty k = 0.758483
        12        10        16        29     9        0.000000        1.229707         3    ;  uncertainty k = 0.305775
        12        10        16        29     9      180.000000        1.390908         4    ;  uncertainty k = 0.268809
        12        13        14        15     9        0.000000       -0.213807         1    ;  uncertainty k = 0.521511
        12        13        14        15     9      180.000000        6.714554         2    ;  uncertainty k = 1.015540
        12        13        14        15     9        0.000000       -0.136809         3    ;  uncertainty k = 0.212518
        12        13        14        15     9      180.000000        0.997654         4    ;  uncertainty k = 0.316035
        12        13        14        22     9        0.000000       -0.291775         1    ;  uncertainty k = 0.682733
        12        13        14        22     9      180.000000        8.776104         2    ;  uncertainty k = 0.996847
        12        13        14        22     9        0.000000        0.792393         3    ;  uncertainty k = 0.342767
        12        13        14        22     9      180.000000        1.039710         4    ;  uncertainty k = 0.403036
        12        13        23        24     9        0.000000        3.845024         1    ;  uncertainty k = 1.735107
        12        13        23        24     9      180.000000       10.962201         2    ;  uncertainty k = 0.170666
        12        13        23        24     9        0.000000        0.533665         3    ;  uncertainty k = 0.336405
        12        13        23        24     9      180.000000        0.052921         4    ;  uncertainty k = 0.114749
        13        12        10        16     9        0.000000       -0.348116         1    ;  uncertainty k = 1.381347
        13        12        10        16     9      180.000000       11.295141         2    ;  uncertainty k = 0.418791
        13        12        10        16     9        0.000000        0.991725         3    ;  uncertainty k = 0.376035
        13        12        10        16     9      180.000000        1.247861         4    ;  uncertainty k = 0.460620
        13        14        15        16     9        0.000000       -0.060788         1    ;  uncertainty k = 0.649272
        13        14        15        16     9      180.000000        6.221837         2    ;  uncertainty k = 1.340671
        13        14        15        16     9        0.000000        0.368111         3    ;  uncertainty k = 0.326154
        13        14        15        16     9      180.000000        1.222464         4    ;  uncertainty k = 0.239914
        13        14        15        21     9        0.000000       -0.650474         1    ;  uncertainty k = 0.497641
        13        14        15        21     9      180.000000        8.567924         2    ;  uncertainty k = 0.793851
        13        14        15        21     9        0.000000        0.693934         3    ;  uncertainty k = 0.182977
        13        14        15        21     9      180.000000        1.177614         4    ;  uncertainty k = 0.407027
        13        14        22        26     9        0.000000        0.000000         1    ;  uncertainty k = 0.000000
        13        14        22        26     9      180.000000        0.000000         2    ;  uncertainty k = 0.000000
        13        14        22        26     9        0.000000        0.000000         3    ;  uncertainty k = 0.000000
        13        14        22        26     9      180.000000        0.000000         4    ;  uncertainty k = 0.000000
        13        23        24        25     9        0.000000       -2.838223         1    ;  uncertainty k = 1.422352
        13        23        24        25     9      180.000000        1.559318         2    ;  uncertainty k = 0.637177
        13        23        24        25     9        0.000000        0.375262         3    ;  uncertainty k = 0.166329
        13        23        24        25     9      180.000000        0.641995         4    ;  uncertainty k = 0.168605
        13        23        24        41     9        0.000000        2.134775         1    ;  uncertainty k = 0.592408
        13        23        24        41     9      180.000000       -0.555534         2    ;  uncertainty k = 0.289557
        13        23        24        41     9        0.000000        0.067937         3    ;  uncertainty k = 0.080606
        13        23        24        41     9      180.000000        0.222753         4    ;  uncertainty k = 0.127350
        13        23        24        52     9        0.000000       -2.838223         1    ;  uncertainty k = 1.422352
        13        23        24        52     9      180.000000        1.559318         2    ;  uncertainty k = 0.637177
        13        23        24        52     9        0.000000        0.375262         3    ;  uncertainty k = 0.166329
        13        23        24        52     9      180.000000        0.641995         4    ;  uncertainty k = 0.168605
        14        13        23        24     9        0.000000       -0.334888         1    ;  uncertainty k = 2.066229
        14        13        23        24     9      180.000000        8.801734         2    ;  uncertainty k = 0.444603
        14        13        23        24     9        0.000000       -0.019894         3    ;  uncertainty k = 0.650724
        14        13        23        24     9      180.000000       -0.076886         4    ;  uncertainty k = 0.136612
        14        15        16        29     9        0.000000        0.230609         1    ;  uncertainty k = 0.972531
        14        15        16        29     9      180.000000        6.819145         2    ;  uncertainty k = 0.463249
        14        15        16        29     9        0.000000        1.349621         3    ;  uncertainty k = 0.327194
        14        15        16        29     9      180.000000        1.316894         4    ;  uncertainty k = 0.263402
        14        15        21        39     9        0.000000       16.073828         1    ;  uncertainty k = 0.237482
        14        15        21        39     9      180.000000        8.682958         2    ;  uncertainty k = 0.247596
        14        15        21        39     9        0.000000        0.926115         3    ;  uncertainty k = 0.219069
        14        15        21        39     9      180.000000       -0.132994         4    ;  uncertainty k = 0.105352
        14        15        21        40     9        0.000000       16.073828         1    ;  uncertainty k = 0.237482
        14        15        21        40     9      180.000000        8.682958         2    ;  uncertainty k = 0.247596
        14        15        21        40     9        0.000000        0.926115         3    ;  uncertainty k = 0.219069
        14        15        21        40     9      180.000000       -0.132994         4    ;  uncertainty k = 0.105352
        15        14        13        23     9        0.000000        0.011902         1    ;  uncertainty k = 0.729491
        15        14        13        23     9      180.000000        6.874143         2    ;  uncertainty k = 0.657826
        15        14        13        23     9        0.000000        1.111749         3    ;  uncertainty k = 0.317449
        15        14        13        23     9      180.000000        1.123128         4    ;  uncertainty k = 0.363132
        15        14        22        26     9        0.000000        0.000000         1    ;  uncertainty k = 0.000000
        15        14        22        26     9      180.000000        0.000000         2    ;  uncertainty k = 0.000000
        15        14        22        26     9        0.000000        0.000000         3    ;  uncertainty k = 0.000000
        15        14        22        26     9      180.000000        0.000000         4    ;  uncertainty k = 0.000000
        16        10         9        32     9        0.000000        0.996703         1    ;  uncertainty k = 1.088402
        16        10         9        32     9      180.000000        5.158411         2    ;  uncertainty k = 0.639236
        16        10         9        32     9        0.000000        1.415645         3    ;  uncertainty k = 0.264055
        16        10         9        32     9      180.000000        0.157366         4    ;  uncertainty k = 0.160041
        16        15        14        22     9        0.000000        0.110401         1    ;  uncertainty k = 0.619265
        16        15        14        22     9      180.000000        7.753287         2    ;  uncertainty k = 0.749893
        16        15        14        22     9        0.000000        0.964707         3    ;  uncertainty k = 0.310734
        16        15        14        22     9      180.000000        1.190350         4    ;  uncertainty k = 0.549847
        16        15        21        39     9        0.000000       10.150943         1    ;  uncertainty k = 0.373654
        16        15        21        39     9      180.000000        9.585958         2    ;  uncertainty k = 0.358657
        16        15        21        39     9        0.000000        0.834747         3    ;  uncertainty k = 0.211714
        16        15        21        39     9      180.000000       -0.348757         4    ;  uncertainty k = 0.221362
        16        15        21        40     9        0.000000       10.150943         1    ;  uncertainty k = 0.373654
        16        15        21        40     9      180.000000        9.585958         2    ;  uncertainty k = 0.358657
        16        15        21        40     9        0.000000        0.834747         3    ;  uncertainty k = 0.211714
        16        15        21        40     9      180.000000       -0.348757         4    ;  uncertainty k = 0.221362
        17         5         4        28     9        0.000000       -0.114845         1    ;  uncertainty k = 0.237781
        17         5         4        28     9      180.000000        9.210818         2    ;  uncertainty k = 0.375621
        17         5         4        28     9        0.000000        0.743208         3    ;  uncertainty k = 0.100172
        17         5         4        28     9      180.000000        1.240392         4    ;  uncertainty k = 0.342353
        17         5         6        45     9        0.000000       -0.577512         1    ;  uncertainty k = 0.444525
        17         5         6        45     9      180.000000        9.310327         2    ;  uncertainty k = 0.394298
        17         5         6        45     9        0.000000        1.065007         3    ;  uncertainty k = 0.346333
        17         5         6        45     9      180.000000        1.265062         4    ;  uncertainty k = 0.384425
        19         2         1        27     9        0.000000       -0.106805         1    ;  uncertainty k = 0.409665
        19         2         1        27     9      180.000000        9.090471         2    ;  uncertainty k = 0.232540
        19         2         1        27     9        0.000000        0.826488         3    ;  uncertainty k = 0.225629
        19         2         1        27     9      180.000000        1.316798         4    ;  uncertainty k = 0.225316
        21        15        14        22     9        0.000000       -0.378780         1    ;  uncertainty k = 0.484969
        21        15        14        22     9      180.000000       10.389049         2    ;  uncertainty k = 0.370042
        21        15        14        22     9        0.000000        0.802995         3    ;  uncertainty k = 0.537679
        21        15        14        22     9      180.000000        0.964590         4    ;  uncertainty k = 0.286377
        21        15        16        29     9        0.000000       -0.546000         1    ;  uncertainty k = 0.474114
        21        15        16        29     9      180.000000        7.797048         2    ;  uncertainty k = 0.566356
        21        15        16        29     9        0.000000        0.717830         3    ;  uncertainty k = 0.278527
        21        15        16        29     9      180.000000        0.908902         4    ;  uncertainty k = 0.384357
        22        14        13        23     9        0.000000       -0.679770         1    ;  uncertainty k = 0.509743
        22        14        13        23     9      180.000000        9.474840         2    ;  uncertainty k = 1.100560
        22        14        13        23     9        0.000000        0.792935         3    ;  uncertainty k = 0.519026
        22        14        13        23     9      180.000000        0.899866         4    ;  uncertainty k = 0.407083
        23        24        25        42     9        0.000000       -1.043463         1    ;  uncertainty k = 0.514211
        23        24        25        42     9      180.000000       -3.263951         2    ;  uncertainty k = 0.387712
        23        24        25        42     9        0.000000        1.076659         3    ;  uncertainty k = 0.104689
        23        24        25        42     9      180.000000       -0.336784         4    ;  uncertainty k = 0.090118
        23        24        25        43     9        0.000000       -1.043463         1    ;  uncertainty k = 0.514211
        23        24        25        43     9      180.000000       -3.263951         2    ;  uncertainty k = 0.387712
        23        24        25        43     9        0.000000        1.076659         3    ;  uncertainty k = 0.104689
        23        24        25        43     9      180.000000       -0.336784         4    ;  uncertainty k = 0.090118
        23        24        25        44     9        0.000000       -1.043463         1    ;  uncertainty k = 0.514211
        23        24        25        44     9      180.000000       -3.263951         2    ;  uncertainty k = 0.387712
        23        24        25        44     9        0.000000        1.076659         3    ;  uncertainty k = 0.104689
        23        24        25        44     9      180.000000       -0.336784         4    ;  uncertainty k = 0.090118
        23        24        52        53     9        0.000000       -1.043463         1    ;  uncertainty k = 0.514211
        23        24        52        53     9      180.000000       -3.263951         2    ;  uncertainty k = 0.387712
        23        24        52        53     9        0.000000        1.076659         3    ;  uncertainty k = 0.104689
        23        24        52        53     9      180.000000       -0.336784         4    ;  uncertainty k = 0.090118
        23        24        52        54     9        0.000000       -1.043463         1    ;  uncertainty k = 0.514211
        23        24        52        54     9      180.000000       -3.263951         2    ;  uncertainty k = 0.387712
        23        24        52        54     9        0.000000        1.076659         3    ;  uncertainty k = 0.104689
        23        24        52        54     9      180.000000       -0.336784         4    ;  uncertainty k = 0.090118
        23        24        52        55     9        0.000000       -1.043463         1    ;  uncertainty k = 0.514211
        23        24        52        55     9      180.000000       -3.263951         2    ;  uncertainty k = 0.387712
        23        24        52        55     9        0.000000        1.076659         3    ;  uncertainty k = 0.104689
        23        24        52        55     9      180.000000       -0.336784         4    ;  uncertainty k = 0.090118
        25        24        52        53     9        0.000000       -1.520749         1    ;  uncertainty k = 0.235904
        25        24        52        53     9      180.000000       -0.019375         2    ;  uncertainty k = 0.095066
        25        24        52        53     9        0.000000        1.003981         3    ;  uncertainty k = 0.068730
        25        24        52        53     9      180.000000       -0.092817         4    ;  uncertainty k = 0.050676
        25        24        52        54     9        0.000000       -1.520749         1    ;  uncertainty k = 0.235904
        25        24        52        54     9      180.000000       -0.019375         2    ;  uncertainty k = 0.095066
        25        24        52        54     9        0.000000        1.003981         3    ;  uncertainty k = 0.068730
        25        24        52        54     9      180.000000       -0.092817         4    ;  uncertainty k = 0.050676
        25        24        52        55     9        0.000000       -1.520749         1    ;  uncertainty k = 0.235904
        25        24        52        55     9      180.000000       -0.019375         2    ;  uncertainty k = 0.095066
        25        24        52        55     9        0.000000        1.003981         3    ;  uncertainty k = 0.068730
        25        24        52        55     9      180.000000       -0.092817         4    ;  uncertainty k = 0.050676
        27         1         6        45     9        0.000000       -0.519296         1    ;  uncertainty k = 0.323051
        27         1         6        45     9      180.000000        6.882541         2    ;  uncertainty k = 0.481802
        27         1         6        45     9        0.000000        0.743583         3    ;  uncertainty k = 0.284744
        27         1         6        45     9      180.000000        1.156539         4    ;  uncertainty k = 0.204841
        41        24        25        42     9        0.000000        0.511000         1    ;  uncertainty k = 0.186115
        41        24        25        42     9      180.000000       -0.846249         2    ;  uncertainty k = 0.084995
        41        24        25        42     9        0.000000        0.425144         3    ;  uncertainty k = 0.030525
        41        24        25        42     9      180.000000       -0.053233         4    ;  uncertainty k = 0.054892
        41        24        25        43     9        0.000000        0.511000         1    ;  uncertainty k = 0.186115
        41        24        25        43     9      180.000000       -0.846249         2    ;  uncertainty k = 0.084995
        41        24        25        43     9        0.000000        0.425144         3    ;  uncertainty k = 0.030525
        41        24        25        43     9      180.000000       -0.053233         4    ;  uncertainty k = 0.054892
        41        24        25        44     9        0.000000        0.511000         1    ;  uncertainty k = 0.186115
        41        24        25        44     9      180.000000       -0.846249         2    ;  uncertainty k = 0.084995
        41        24        25        44     9        0.000000        0.425144         3    ;  uncertainty k = 0.030525
        41        24        25        44     9      180.000000       -0.053233         4    ;  uncertainty k = 0.054892
        41        24        52        53     9        0.000000        0.511000         1    ;  uncertainty k = 0.186115
        41        24        52        53     9      180.000000       -0.846249         2    ;  uncertainty k = 0.084995
        41        24        52        53     9        0.000000        0.425144         3    ;  uncertainty k = 0.030525
        41        24        52        53     9      180.000000       -0.053233         4    ;  uncertainty k = 0.054892
        41        24        52        54     9        0.000000        0.511000         1    ;  uncertainty k = 0.186115
        41        24        52        54     9      180.000000       -0.846249         2    ;  uncertainty k = 0.084995
        41        24        52        54     9        0.000000        0.425144         3    ;  uncertainty k = 0.030525
        41        24        52        54     9      180.000000       -0.053233         4    ;  uncertainty k = 0.054892
        41        24        52        55     9        0.000000        0.511000         1    ;  uncertainty k = 0.186115
        41        24        52        55     9      180.000000       -0.846249         2    ;  uncertainty k = 0.084995
        41        24        52        55     9        0.000000        0.425144         3    ;  uncertainty k = 0.030525
        41        24        52        55     9      180.000000       -0.053233         4    ;  uncertainty k = 0.054892
        42        25        24        52     9        0.000000       -1.520749         1    ;  uncertainty k = 0.235904
        42        25        24        52     9      180.000000       -0.019375         2    ;  uncertainty k = 0.095066
        42        25        24        52     9        0.000000        1.003981         3    ;  uncertainty k = 0.068730
        42        25        24        52     9      180.000000       -0.092817         4    ;  uncertainty k = 0.050676
        43        25        24        52     9        0.000000       -1.520749         1    ;  uncertainty k = 0.235904
        43        25        24        52     9      180.000000       -0.019375         2    ;  uncertainty k = 0.095066
        43        25        24        52     9        0.000000        1.003981         3    ;  uncertainty k = 0.068730
        43        25        24        52     9      180.000000       -0.092817         4    ;  uncertainty k = 0.050676
        44        25        24        52     9        0.000000       -1.520749         1    ;  uncertainty k = 0.235904
        44        25        24        52     9      180.000000       -0.019375         2    ;  uncertainty k = 0.095066
        44        25        24        52     9        0.000000        1.003981         3    ;  uncertainty k = 0.068730
        44        25        24        52     9      180.000000       -0.092817         4    ;  uncertainty k = 0.050676
        46        45        48        49     9        0.000000       -0.001630         1    ;  uncertainty k = 0.669289
        46        45        48        49     9      180.000000       -0.356324         2    ;  uncertainty k = 0.375860
        46        45        48        49     9        0.000000        0.773391         3    ;  uncertainty k = 0.044601
        46        45        48        49     9      180.000000        0.027560         4    ;  uncertainty k = 0.105205
        46        45        48        50     9        0.000000       -0.001630         1    ;  uncertainty k = 0.669289
        46        45        48        50     9      180.000000       -0.356324         2    ;  uncertainty k = 0.375860
        46        45        48        50     9        0.000000        0.773391         3    ;  uncertainty k = 0.044601
        46        45        48        50     9      180.000000        0.027560         4    ;  uncertainty k = 0.105205
        46        45        48        51     9        0.000000       -0.001630         1    ;  uncertainty k = 0.669289
        46        45        48        51     9      180.000000       -0.356324         2    ;  uncertainty k = 0.375860
        46        45        48        51     9        0.000000        0.773391         3    ;  uncertainty k = 0.044601
        46        45        48        51     9      180.000000        0.027560         4    ;  uncertainty k = 0.105205
        47        45        48        49     9        0.000000       -0.001630         1    ;  uncertainty k = 0.669289
        47        45        48        49     9      180.000000       -0.356324         2    ;  uncertainty k = 0.375860
        47        45        48        49     9        0.000000        0.773391         3    ;  uncertainty k = 0.044601
        47        45        48        49     9      180.000000        0.027560         4    ;  uncertainty k = 0.105205
        47        45        48        50     9        0.000000       -0.001630         1    ;  uncertainty k = 0.669289
        47        45        48        50     9      180.000000       -0.356324         2    ;  uncertainty k = 0.375860
        47        45        48        50     9        0.000000        0.773391         3    ;  uncertainty k = 0.044601
        47        45        48        50     9      180.000000        0.027560         4    ;  uncertainty k = 0.105205
        47        45        48        51     9        0.000000       -0.001630         1    ;  uncertainty k = 0.669289
        47        45        48        51     9      180.000000       -0.356324         2    ;  uncertainty k = 0.375860
        47        45        48        51     9        0.000000        0.773391         3    ;  uncertainty k = 0.044601
        47        45        48        51     9      180.000000        0.027560         4    ;  uncertainty k = 0.105205

[ dihedrals ] ; impropers
;       ai        aj        ak        al funct           phase               k        pn
         1         2         6        27     4      180.000000        3.971929         2    ;  uncertainty k = 0.183191
         1         6        27         2     4      180.000000        3.971929         2    ;  uncertainty k = 0.183191
         1        27         2         6     4      180.000000        3.971929         2    ;  uncertainty k = 0.183191
         2         1         3        19     4      180.000000       16.995087         2    ;  uncertainty k = 0.121471
         2         3        19         1     4      180.000000       16.995087         2    ;  uncertainty k = 0.121471
         2        19         1         3     4      180.000000       16.995087         2    ;  uncertainty k = 0.121471
         3         2         4         7     4      180.000000       13.100215         2    ;  uncertainty k = 0.139061
         3         4         7         2     4      180.000000       13.100215         2    ;  uncertainty k = 0.139061
         3         7         2         4     4      180.000000       13.100215         2    ;  uncertainty k = 0.139061
         4         3         5        28     4      180.000000        2.687118         2    ;  uncertainty k = 0.298455
         4         5        28         3     4      180.000000        2.687118         2    ;  uncertainty k = 0.298455
         4        28         3         5     4      180.000000        2.687118         2    ;  uncertainty k = 0.298455
         5         4         6        17     4      180.000000       21.955594         2    ;  uncertainty k = 0.092256
         5         6        17         4     4      180.000000       21.955594         2    ;  uncertainty k = 0.092256
         5        17         4         6     4      180.000000       21.955594         2    ;  uncertainty k = 0.092256
         6         1         5        45     4      180.000000        5.250346         2    ;  uncertainty k = 0.305861
         6         5        45         1     4      180.000000        5.250346         2    ;  uncertainty k = 0.305861
         6        45         1         5     4      180.000000        5.250346         2    ;  uncertainty k = 0.305861
         8         7         9        11     4      180.000000       54.402417         2    ;  uncertainty k = 0.011975
         8         9        11         7     4      180.000000       54.402417         2    ;  uncertainty k = 0.011975
         8        11         7         9     4      180.000000       54.402417         2    ;  uncertainty k = 0.011975
         9         8        10        32     4      180.000000        0.347695         2    ;  uncertainty k = 0.620136
         9        10        32         8     4      180.000000        0.347695         2    ;  uncertainty k = 0.620136
         9        32         8        10     4      180.000000        0.347695         2    ;  uncertainty k = 0.620136
        10         9        12        16     4      180.000000       29.989959         2    ;  uncertainty k = 0.132376
        10        12        16         9     4      180.000000       29.989959         2    ;  uncertainty k = 0.132376
        10        16         9        12     4      180.000000       29.989959         2    ;  uncertainty k = 0.132376
        13        12        14        23     4      180.000000       32.923787         2    ;  uncertainty k = 0.059156
        13        14        23        12     4      180.000000       32.923787         2    ;  uncertainty k = 0.059156
        13        23        12        14     4      180.000000       32.923787         2    ;  uncertainty k = 0.059156
        14        13        15        22     4      180.000000        5.513569         2    ;  uncertainty k = 0.444800
        14        15        22        13     4      180.000000        5.513569         2    ;  uncertainty k = 0.444800
        14        22        13        15     4      180.000000        5.513569         2    ;  uncertainty k = 0.444800
        15        14        16        21     4      180.000000       26.385061         2    ;  uncertainty k = 0.106278
        15        16        21        14     4      180.000000       26.385061         2    ;  uncertainty k = 0.106278
        15        21        14        16     4      180.000000       26.385061         2    ;  uncertainty k = 0.106278
        16        10        15        29     4      180.000000        0.521319         2    ;  uncertainty k = 0.605740
        16        15        29        10     4      180.000000        0.521319         2    ;  uncertainty k = 0.605740
        16        29        10        15     4      180.000000        0.521319         2    ;  uncertainty k = 0.605740

[ pairs ]
;       ai        aj funct
         1         4     1
         1         7     1
         1        17     1
         1        20     1
         1        46     1
         1        47     1
         1        48     1
         2         5     1
         2         8     1
         2        28     1
         2        30     1
         2        31     1
         2        36     1
         2        37     1
         2        38     1
         2        45     1
         3         6     1
         3         9     1
         3        11     1
         3        17     1
         3        20     1
         3        27     1
         4         8     1
         4        18     1
         4        19     1
         4        30     1
         4        31     1
         4        45     1
         5         7     1
         5        27     1
         5        33     1
         5        34     1
         5        35     1
         5        46     1
         5        47     1
         5        48     1
         6        18     1
         6        19     1
         6        28     1
         6        49     1
         6        50     1
         6        51     1
         7        10     1
         7        19     1
         7        28     1
         7        32     1
         8        12     1
         8        16     1
         9        13     1
         9        15     1
         9        29     1
         9        30     1
         9        31     1
        10        11     1
        10        14     1
        10        21     1
        10        23     1
        11        30     1
        11        31     1
        11        32     1
        12        15     1
        12        22     1
        12        24     1
        12        29     1
        12        32     1
        13        16     1
        13        21     1
        13        25     1
        13        26     1
        13        41     1
        13        52     1
        14        24     1
        14        29     1
        14        39     1
        14        40     1
        15        23     1
        15        26     1
        16        22     1
        16        32     1
        16        39     1
        16        40     1
        17        28     1
        17        45     1
        19        27     1
        21        22     1
        21        29     1
        22        23     1
        23        42     1
        23        43     1
        23        44     1
        23        53     1
        23        54     1
        23        55     1
        25        53     1
        25        54     1
        25        55     1
        27        45     1
        41        42     1
        41        43     1
        41        44     1
        41        53     1
        41        54     1
        41        55     1
        42        52     1
        43        52     1
        44        52     1
        46        49     1
        46        50     1
        46        51     1
        47        49     1
        47        50     1
        47        51     1
