; ITP file created by ByteFF-joint-25, 2026-02-17 09:12:45.498278

[ atomtypes ]
;name           bonded.type        at.num        mass        charge   ptype           sigma         epsilon
 c0bf                                   6      0.0000       0.00000       A     3.31521e-01     4.13393e-01    ;  uncertainty sigma = 0.000005, epsilon = 0.000563
 c1bf                                   6      0.0000       0.00000       A     3.31546e-01     4.13726e-01    ;  uncertainty sigma = 0.000012, epsilon = 0.000450
 c2bf                                   6      0.0000       0.00000       A     3.31528e-01     4.13519e-01    ;  uncertainty sigma = 0.000006, epsilon = 0.000884
 c3bf                                   6      0.0000       0.00000       A     3.31537e-01     4.13281e-01    ;  uncertainty sigma = 0.000008, epsilon = 0.000930
 c4bf                                   6      0.0000       0.00000       A     3.31530e-01     4.13521e-01    ;  uncertainty sigma = 0.000003, epsilon = 0.000473
 c5bf                                   6      0.0000       0.00000       A     3.31517e-01     4.13430e-01    ;  uncertainty sigma = 0.000005, epsilon = 0.000547
 c6bf                                   6      0.0000       0.00000       A     3.39759e-01     4.50751e-01    ;  uncertainty sigma = 0.000013, epsilon = 0.001236
 c7bf                                   6      0.0000       0.00000       A     3.31534e-01     4.13256e-01    ;  uncertainty sigma = 0.000033, epsilon = 0.001506
 n8bf                                   7      0.0000       0.00000       A     3.26977e-01     4.89929e-01    ;  uncertainty sigma = 0.000038, epsilon = 0.001227
 c9bf                                   6      0.0000       0.00000       A     3.31566e-01     4.12139e-01    ;  uncertainty sigma = 0.000019, epsilon = 0.000481
 o10bf                                  8      0.0000       0.00000       A     3.04854e-01     6.12416e-01    ;  uncertainty sigma = 0.000011, epsilon = 0.001606
 n11bf                                  7      0.0000       0.00000       A     3.38402e-01     3.92745e-01    ;  uncertainty sigma = 0.000021, epsilon = 0.001055
 c12bf                                  6      0.0000       0.00000       A     3.31504e-01     4.13749e-01    ;  uncertainty sigma = 0.000021, epsilon = 0.001834
 c13bf                                  6      0.0000       0.00000       A     3.31496e-01     4.13013e-01    ;  uncertainty sigma = 0.000032, epsilon = 0.002367
 c14bf                                  6      0.0000       0.00000       A     3.31518e-01     4.13443e-01    ;  uncertainty sigma = 0.000027, epsilon = 0.001034
 c15bf                                  6      0.0000       0.00000       A     3.31542e-01     4.13066e-01    ;  uncertainty sigma = 0.000013, epsilon = 0.002464
 o16bf                                  8      0.0000       0.00000       A     3.15643e-01     3.03037e-01    ;  uncertainty sigma = 0.000024, epsilon = 0.000775
 c17bf                                  6      0.0000       0.00000       A     3.39790e-01     4.50985e-01    ;  uncertainty sigma = 0.000004, epsilon = 0.000763
 o18bf                                  8      0.0000       0.00000       A     3.15605e-01     3.03741e-01    ;  uncertainty sigma = 0.000007, epsilon = 0.000565
 c19bf                                  6      0.0000       0.00000       A     3.39780e-01     4.50985e-01    ;  uncertainty sigma = 0.000005, epsilon = 0.000500
 n20bf                                  7      0.0000       0.00000       A     3.36843e-01     4.68873e-01    ;  uncertainty sigma = 0.000068, epsilon = 0.003219
 c21bf                                  6      0.0000       0.00000       A     3.47912e-01     6.68669e-01    ;  uncertainty sigma = 0.000017, epsilon = 0.001390
 o22bf                                  8      0.0000       0.00000       A     3.15571e-01     3.03023e-01    ;  uncertainty sigma = 0.000048, epsilon = 0.001386
 c23bf                                  6      0.0000       0.00000       A     3.39767e-01     4.50166e-01    ;  uncertainty sigma = 0.000009, epsilon = 0.000568
 c24bf                                  6      0.0000       0.00000       A     3.39812e-01     4.50479e-01    ;  uncertainty sigma = 0.000009, epsilon = 0.000661
 n25bf                                  7      0.0000       0.00000       A     3.27325e-01     4.59401e-01    ;  uncertainty sigma = 0.000040, epsilon = 0.001413
 h26bf                                  1      0.0000       0.00000       A     2.62564e-01     6.70515e-02    ;  uncertainty sigma = 0.000009, epsilon = 0.000380
 h27bf                                  1      0.0000       0.00000       A     2.62560e-01     6.71038e-02    ;  uncertainty sigma = 0.000011, epsilon = 0.000493
 h28bf                                  1      0.0000       0.00000       A     2.62548e-01     6.68678e-02    ;  uncertainty sigma = 0.000027, epsilon = 0.000692
 h29bf                                  1      0.0000       0.00000       A     2.60049e-01     8.69568e-02    ;  uncertainty sigma = 0.000011, epsilon = 0.000450
 h30bf                                  1      0.0000       0.00000       A     2.60049e-01     8.69568e-02    ;  uncertainty sigma = 0.000011, epsilon = 0.000450
 h31bf                                  1      0.0000       0.00000       A     1.10687e-01     4.15498e-02    ;  uncertainty sigma = 0.000117, epsilon = 0.001414
 h32bf                                  1      0.0000       0.00000       A     2.42205e-01     8.67537e-02    ;  uncertainty sigma = 0.000015, epsilon = 0.000623
 h33bf                                  1      0.0000       0.00000       A     2.42205e-01     8.67537e-02    ;  uncertainty sigma = 0.000015, epsilon = 0.000623
 h34bf                                  1      0.0000       0.00000       A     2.42205e-01     8.67537e-02    ;  uncertainty sigma = 0.000015, epsilon = 0.000623
 h35bf                                  1      0.0000       0.00000       A     2.42205e-01     8.67537e-02    ;  uncertainty sigma = 0.000015, epsilon = 0.000623
 h36bf                                  1      0.0000       0.00000       A     2.42205e-01     8.67537e-02    ;  uncertainty sigma = 0.000015, epsilon = 0.000623
 h37bf                                  1      0.0000       0.00000       A     2.42205e-01     8.67537e-02    ;  uncertainty sigma = 0.000015, epsilon = 0.000623
 h38bf                                  1      0.0000       0.00000       A     1.10684e-01     4.11855e-02    ;  uncertainty sigma = 0.000050, epsilon = 0.000660
 h39bf                                  1      0.0000       0.00000       A     1.10684e-01     4.11855e-02    ;  uncertainty sigma = 0.000050, epsilon = 0.000660
 h40bf                                  1      0.0000       0.00000       A     2.42194e-01     8.69864e-02    ;  uncertainty sigma = 0.000030, epsilon = 0.000708
 h41bf                                  1      0.0000       0.00000       A     2.42194e-01     8.69864e-02    ;  uncertainty sigma = 0.000030, epsilon = 0.000708
 o42bf                                  8      0.0000       0.00000       A     3.15600e-01     3.03379e-01    ;  uncertainty sigma = 0.000013, epsilon = 0.001091
 h43bf                                  1      0.0000       0.00000       A     2.42197e-01     8.69738e-02    ;  uncertainty sigma = 0.000017, epsilon = 0.000748
 h44bf                                  1      0.0000       0.00000       A     2.42197e-01     8.69738e-02    ;  uncertainty sigma = 0.000017, epsilon = 0.000748
 c45bf                                  6      0.0000       0.00000       A     3.39791e-01     4.51217e-01    ;  uncertainty sigma = 0.000006, epsilon = 0.000628
 h46bf                                  1      0.0000       0.00000       A     2.42186e-01     8.67156e-02    ;  uncertainty sigma = 0.000012, epsilon = 0.000513
 h47bf                                  1      0.0000       0.00000       A     2.42186e-01     8.67156e-02    ;  uncertainty sigma = 0.000012, epsilon = 0.000513
 h48bf                                  1      0.0000       0.00000       A     2.42186e-01     8.67156e-02    ;  uncertainty sigma = 0.000012, epsilon = 0.000512
 h49bf                                  1      0.0000       0.00000       A     2.62561e-01     6.71274e-02    ;  uncertainty sigma = 0.000009, epsilon = 0.000422

[ moleculetype ]
;name             nrexcl
 MOL                   3

[ atoms ]
;       nr            type      resi   res      atom      cgnr      charge          mass ; qtot
         1            c0bf         1   UNL        c0         1    -0.17179       12.0110 ; qtot   -0.172
         2            c1bf         1   UNL        c1         2     0.11416       12.0110 ; qtot   -0.058
         3            c2bf         1   UNL        c2         3    -0.07946       12.0110 ; qtot   -0.137
         4            c3bf         1   UNL        c3         4    -0.14981       12.0110 ; qtot   -0.287
         5            c4bf         1   UNL        c4         5     0.11538       12.0110 ; qtot   -0.172
         6            c5bf         1   UNL        c5         6    -0.16237       12.0110 ; qtot   -0.334
         7            c6bf         1   UNL        c6         7    -0.10373       12.0110 ; qtot   -0.438
         8            c7bf         1   UNL        c7         8     0.68773       12.0110 ; qtot    0.250
         9            n8bf         1   UNL        n8         9    -0.56418       14.0070 ; qtot   -0.314
        10            c9bf         1   UNL        c9        10     0.61630       12.0110 ; qtot    0.302
        11           o10bf         1   UNL       o10        11    -0.56286       15.9990 ; qtot   -0.261
        12           n11bf         1   UNL       n11        12    -0.81157       14.0070 ; qtot   -1.072
        13           c12bf         1   UNL       c12        13     0.74936       12.0110 ; qtot   -0.323
        14           c13bf         1   UNL       c13        14    -0.27260       12.0110 ; qtot   -0.595
        15           c14bf         1   UNL       c14        15     0.29241       12.0110 ; qtot   -0.303
        16           c15bf         1   UNL       c15        16    -0.37328       12.0110 ; qtot   -0.676
        17           o16bf         1   UNL       o16        17    -0.32815       15.9990 ; qtot   -1.004
        18           c17bf         1   UNL       c17        18     0.12090       12.0110 ; qtot   -0.884
        19           o18bf         1   UNL       o18        19    -0.33731       15.9990 ; qtot   -1.221
        20           c19bf         1   UNL       c19        20     0.12101       12.0110 ; qtot   -1.100
        21           n20bf         1   UNL       n20        21    -0.84340       14.0070 ; qtot   -1.943
        22           c21bf         1   UNL       c21        22     0.25799       12.0110 ; qtot   -1.685
        23           o22bf         1   UNL       o22        23    -0.43217       15.9990 ; qtot   -2.117
        24           c23bf         1   UNL       c23        24     0.12765       12.0110 ; qtot   -1.990
        25           c24bf         1   UNL       c24        25     0.11457       12.0110 ; qtot   -1.875
        26           n25bf         1   UNL       n25        26    -0.37938       14.0070 ; qtot   -2.255
        27           h26bf         1   UNL       h26        27     0.13844        1.0080 ; qtot   -2.116
        28           h27bf         1   UNL       h27        28     0.14837        1.0080 ; qtot   -1.968
        29           h28bf         1   UNL       h28        29     0.17105        1.0080 ; qtot   -1.797
        30           h29bf         1   UNL       h29        30     0.08336        1.0080 ; qtot   -1.713
        31           h30bf         1   UNL       h30        31     0.08336        1.0080 ; qtot   -1.630
        32           h31bf         1   UNL       h31        32     0.34304        1.0080 ; qtot   -1.287
        33           h32bf         1   UNL       h32        33     0.04263        1.0080 ; qtot   -1.244
        34           h33bf         1   UNL       h33        34     0.04263        1.0080 ; qtot   -1.202
        35           h34bf         1   UNL       h34        35     0.04263        1.0080 ; qtot   -1.159
        36           h35bf         1   UNL       h35        36     0.04268        1.0080 ; qtot   -1.116
        37           h36bf         1   UNL       h36        37     0.04268        1.0080 ; qtot   -1.074
        38           h37bf         1   UNL       h37        38     0.04268        1.0080 ; qtot   -1.031
        39           h38bf         1   UNL       h38        39     0.42823        1.0080 ; qtot   -0.603
        40           h39bf         1   UNL       h39        40     0.42823        1.0080 ; qtot   -0.175
        41           h40bf         1   UNL       h40        41     0.06586        1.0080 ; qtot   -0.109
        42           h41bf         1   UNL       h41        42     0.06586        1.0080 ; qtot   -0.043
        43           o42bf         1   UNL       o42        43    -0.41190       15.9990 ; qtot   -0.455
        44           h43bf         1   UNL       h43        44     0.04861        1.0080 ; qtot   -0.406
        45           h44bf         1   UNL       h44        45     0.04861        1.0080 ; qtot   -0.358
        46           c45bf         1   UNL       c45        46     0.11743       12.0110 ; qtot   -0.240
        47           h46bf         1   UNL       h46        47     0.03239        1.0080 ; qtot   -0.208
        48           h47bf         1   UNL       h47        48     0.03239        1.0080 ; qtot   -0.175
        49           h48bf         1   UNL       h48        49     0.03239        1.0080 ; qtot   -0.143
        50           h49bf         1   UNL       h49        50     0.14295        1.0080 ; qtot    0.000

[ bonds ]
;       ai        aj funct               r               k
         1         2     1        0.139666   349880.947705    ;  uncertainty r = 0.000046, k = 2.889537
         1         6     1        0.139545   370675.381738    ;  uncertainty r = 0.000042, k = 2.422674
         1        27     1        0.108713   337143.369531    ;  uncertainty r = 0.000032, k = 1.213343
         2         3     1        0.140255   341512.462500    ;  uncertainty r = 0.000089, k = 5.723689
         2        19     1        0.137453   321264.982275    ;  uncertainty r = 0.000077, k = 4.573882
         3         4     1        0.139270   348613.745264    ;  uncertainty r = 0.000078, k = 5.383476
         3         7     1        0.150861   229504.172607    ;  uncertainty r = 0.000060, k = 8.710213
         4         5     1        0.139717   360702.731934    ;  uncertainty r = 0.000074, k = 3.540797
         4        28     1        0.108826   335914.140771    ;  uncertainty r = 0.000050, k = 1.953940
         5         6     1        0.139528   365494.464063    ;  uncertainty r = 0.000025, k = 3.373691
         5        17     1        0.136810   320940.660986    ;  uncertainty r = 0.000041, k = 3.898160
         6        50     1        0.108760   337016.041504    ;  uncertainty r = 0.000019, k = 0.913836
         7         8     1        0.152840   200176.373022    ;  uncertainty r = 0.000130, k = 8.396589
         7        30     1        0.109497   313719.200586    ;  uncertainty r = 0.000046, k = 1.713040
         7        31     1        0.109497   313719.200586    ;  uncertainty r = 0.000046, k = 1.713040
         8         9     1        0.139063   380563.733545    ;  uncertainty r = 0.000122, k = 15.522499
         8        11     1        0.123489   716612.965625    ;  uncertainty r = 0.000142, k = 14.631314
         9        10     1        0.141552   453112.388477    ;  uncertainty r = 0.000171, k = 16.995177
         9        32     1        0.102183   460638.685352    ;  uncertainty r = 0.000033, k = 7.805120
        10        12     1        0.136164   462092.717285    ;  uncertainty r = 0.000237, k = 23.302980
        10        16     1        0.140146   393200.644434    ;  uncertainty r = 0.000118, k = 23.611463
        12        13     1        0.133115   364480.002393    ;  uncertainty r = 0.000140, k = 12.718109
        13        14     1        0.141882   371415.677002    ;  uncertainty r = 0.000158, k = 9.363299
        13        23     1        0.134334   307709.169580    ;  uncertainty r = 0.000242, k = 17.941136
        14        15     1        0.142732   398004.430078    ;  uncertainty r = 0.000133, k = 15.342148
        14        22     1        0.142633   330721.450488    ;  uncertainty r = 0.000093, k = 10.220795
        15        16     1        0.141328   422706.092920    ;  uncertainty r = 0.000138, k = 7.904458
        15        21     1        0.139026   371108.056982    ;  uncertainty r = 0.000153, k = 27.823547
        16        29     1        0.108832   343723.618652    ;  uncertainty r = 0.000047, k = 2.764878
        17        18     1        0.141880   253430.682031    ;  uncertainty r = 0.000020, k = 2.394762
        18        33     1        0.109623   311224.914502    ;  uncertainty r = 0.000009, k = 1.869793
        18        34     1        0.109623   311224.914502    ;  uncertainty r = 0.000009, k = 1.869793
        18        35     1        0.109623   311224.914502    ;  uncertainty r = 0.000009, k = 1.869793
        19        20     1        0.142309   248398.364795    ;  uncertainty r = 0.000036, k = 2.413757
        20        36     1        0.109585   311301.704590    ;  uncertainty r = 0.000018, k = 1.291915
        20        37     1        0.109585   311301.704590    ;  uncertainty r = 0.000018, k = 1.291915
        20        38     1        0.109585   311301.704590    ;  uncertainty r = 0.000018, k = 1.291915
        21        39     1        0.101300   420077.839160    ;  uncertainty r = 0.000037, k = 2.878755
        21        40     1        0.101300   420077.839160    ;  uncertainty r = 0.000037, k = 2.878755
        22        26     1        0.116793  1128378.016016    ;  uncertainty r = 0.000033, k = 2.941856
        23        24     1        0.142179   235723.735596    ;  uncertainty r = 0.000097, k = 11.051221
        24        25     1        0.151937   213619.937354    ;  uncertainty r = 0.000055, k = 6.009952
        24        41     1        0.109502   310152.355908    ;  uncertainty r = 0.000038, k = 1.797120
        24        42     1        0.109502   310152.355908    ;  uncertainty r = 0.000038, k = 1.797120
        25        43     1        0.141112   244752.916895    ;  uncertainty r = 0.000080, k = 5.673739
        25        44     1        0.109977   308476.125586    ;  uncertainty r = 0.000026, k = 2.120727
        25        45     1        0.109977   308476.125586    ;  uncertainty r = 0.000026, k = 2.120727
        43        46     1        0.141747   253246.380713    ;  uncertainty r = 0.000029, k = 5.060115
        46        47     1        0.109816   310520.192432    ;  uncertainty r = 0.000016, k = 1.445209
        46        48     1        0.109816   310520.192432    ;  uncertainty r = 0.000016, k = 1.445209
        46        49     1        0.109816   310520.192432    ;  uncertainty r = 0.000016, k = 1.445209

[ angles ]
;       ai        aj        ak funct           theta             cth
         1         2         3     1      123.160233      375.524598    ;  uncertainty theta = 0.004052, k = 0.083369
         1         2        19     1      119.946877      425.641654    ;  uncertainty theta = 0.004809, k = 0.153775
         1         6         5     1      118.972633      517.071911    ;  uncertainty theta = 0.001475, k = 0.055523
         1         6        50     1      120.907837      279.085396    ;  uncertainty theta = 0.001458, k = 0.027339
         2         1         6     1      121.456833      506.214777    ;  uncertainty theta = 0.002575, k = 0.124695
         2         1        27     1      118.048782      264.582808    ;  uncertainty theta = 0.002146, k = 0.041420
         2         3         4     1      121.195862      446.018575    ;  uncertainty theta = 0.004246, k = 0.133684
         2         3         7     1      118.846535      402.795549    ;  uncertainty theta = 0.003417, k = 0.102102
         2        19        20     1      111.008133      510.362866    ;  uncertainty theta = 0.002222, k = 0.042627
         3         2        19     1      116.573891      444.230339    ;  uncertainty theta = 0.003187, k = 0.119024
         3         4         5     1      121.413963      518.367473    ;  uncertainty theta = 0.000415, k = 0.080381
         3         4        28     1      117.744850      267.343816    ;  uncertainty theta = 0.002305, k = 0.084940
         3         7         8     1      111.735863      504.016830    ;  uncertainty theta = 0.003076, k = 0.195870
         3         7        30     1      107.866928      397.072428    ;  uncertainty theta = 0.002336, k = 0.105815
         3         7        31     1      107.866928      397.072428    ;  uncertainty theta = 0.002336, k = 0.105815
         4         3         7     1      120.300499      417.486570    ;  uncertainty theta = 0.002638, k = 0.119692
         4         5         6     1      119.977844      371.557568    ;  uncertainty theta = 0.004606, k = 0.076257
         4         5        17     1      119.231216      421.480637    ;  uncertainty theta = 0.003926, k = 0.086839
         5         4        28     1      119.559647      268.086180    ;  uncertainty theta = 0.003841, k = 0.047178
         5         6        50     1      120.022911      266.332690    ;  uncertainty theta = 0.002018, k = 0.064386
         5        17        18     1      109.715515      515.866304    ;  uncertainty theta = 0.000949, k = 0.064718
         6         1        27     1      119.959557      278.368282    ;  uncertainty theta = 0.002147, k = 0.046205
         6         5        17     1      119.953323      420.906467    ;  uncertainty theta = 0.003631, k = 0.107346
         7         8         9     1      112.034767      504.810332    ;  uncertainty theta = 0.005508, k = 0.092226
         7         8        11     1      125.077797      512.440724    ;  uncertainty theta = 0.003357, k = 0.164776
         8         7        30     1      106.426987      360.312365    ;  uncertainty theta = 0.002126, k = 0.184600
         8         7        31     1      106.426987      360.312365    ;  uncertainty theta = 0.002126, k = 0.184600
         8         9        10     1      120.651833      441.608476    ;  uncertainty theta = 0.003542, k = 0.155802
         8         9        32     1      117.210800      264.588809    ;  uncertainty theta = 0.004813, k = 0.856046
         9         8        11     1      123.519814      778.447003    ;  uncertainty theta = 0.002106, k = 0.093869
         9        10        12     1      120.224754      768.711044    ;  uncertainty theta = 0.005858, k = 0.157945
         9        10        16     1      122.278137      533.311278    ;  uncertainty theta = 0.005250, k = 0.406084
        10         9        32     1      117.066086      336.130415    ;  uncertainty theta = 0.002657, k = 0.114965
        10        12        13     1      118.385170      412.715344    ;  uncertainty theta = 0.010162, k = 0.180686
        10        16        15     1      113.982933      516.057066    ;  uncertainty theta = 0.005279, k = 0.322192
        10        16        29     1      121.581764      266.638242    ;  uncertainty theta = 0.003427, k = 0.119353
        12        10        16     1      123.014938      557.585482    ;  uncertainty theta = 0.009119, k = 0.103918
        12        13        14     1      126.619629      519.871289    ;  uncertainty theta = 0.004669, k = 0.242904
        12        13        23     1      118.513771      600.461331    ;  uncertainty theta = 0.003781, k = 0.179585
        13        14        15     1      121.080605      479.076331    ;  uncertainty theta = 0.002929, k = 0.434727
        13        14        22     1      121.129311      385.765809    ;  uncertainty theta = 0.009093, k = 0.120624
        13        23        24     1      109.212891      491.344008    ;  uncertainty theta = 0.002609, k = 0.104927
        14        13        23     1      116.150780      467.836269    ;  uncertainty theta = 0.004031, k = 0.184768
        14        15        16     1      117.484238      427.730909    ;  uncertainty theta = 0.002903, k = 0.240097
        14        15        21     1      120.585159      576.926586    ;  uncertainty theta = 0.004519, k = 0.090792
        14        22        26     1      180.000000      241.307265    ;  uncertainty theta = 0.000000, k = 0.719628
        15        14        22     1      117.830177      369.460747    ;  uncertainty theta = 0.006627, k = 0.174269
        15        16        29     1      121.593582      279.201047    ;  uncertainty theta = 0.003701, k = 0.115080
        15        21        39     1      113.768478      388.852256    ;  uncertainty theta = 0.002252, k = 0.082774
        15        21        40     1      113.768478      388.852256    ;  uncertainty theta = 0.002252, k = 0.082774
        16        15        21     1      126.082375      568.295682    ;  uncertainty theta = 0.002505, k = 0.080621
        17        18        33     1      108.804565      446.510388    ;  uncertainty theta = 0.001312, k = 0.023917
        17        18        34     1      108.804565      446.510388    ;  uncertainty theta = 0.001312, k = 0.023917
        17        18        35     1      108.804565      446.510388    ;  uncertainty theta = 0.001312, k = 0.023917
        19        20        36     1      108.975418      444.500650    ;  uncertainty theta = 0.001014, k = 0.026124
        19        20        37     1      108.975418      444.500650    ;  uncertainty theta = 0.001014, k = 0.026124
        19        20        38     1      108.975418      444.500650    ;  uncertainty theta = 0.001014, k = 0.026124
        23        24        25     1      107.557755      550.063590    ;  uncertainty theta = 0.002381, k = 0.093866
        23        24        41     1      105.931114      412.693765    ;  uncertainty theta = 0.001395, k = 0.060005
        23        24        42     1      105.931114      412.693765    ;  uncertainty theta = 0.001395, k = 0.060005
        24        25        43     1      108.208519      550.618767    ;  uncertainty theta = 0.000945, k = 0.081387
        24        25        44     1      108.526047      410.943164    ;  uncertainty theta = 0.001037, k = 0.047617
        24        25        45     1      108.526047      410.943164    ;  uncertainty theta = 0.001037, k = 0.047617
        25        24        41     1      109.946190      414.401655    ;  uncertainty theta = 0.002348, k = 0.059629
        25        24        42     1      109.946190      414.401655    ;  uncertainty theta = 0.002348, k = 0.059629
        25        43        46     1      108.884781      557.322896    ;  uncertainty theta = 0.001667, k = 0.051553
        30         7        31     1      105.787987      310.078477    ;  uncertainty theta = 0.005198, k = 0.039222
        33        18        34     1      109.081810      330.154380    ;  uncertainty theta = 0.001818, k = 0.013785
        33        18        35     1      109.081810      330.154380    ;  uncertainty theta = 0.001818, k = 0.013785
        34        18        35     1      109.081810      330.154380    ;  uncertainty theta = 0.001818, k = 0.013785
        36        20        37     1      109.085159      330.320914    ;  uncertainty theta = 0.001597, k = 0.020763
        36        20        38     1      109.085159      330.320914    ;  uncertainty theta = 0.001597, k = 0.020763
        37        20        38     1      109.085159      330.320914    ;  uncertainty theta = 0.001597, k = 0.020763
        39        21        40     1      107.812782      286.090864    ;  uncertainty theta = 0.005516, k = 0.089415
        41        24        42     1      108.591064      331.072503    ;  uncertainty theta = 0.002176, k = 0.028690
        43        25        44     1      108.367752      455.538554    ;  uncertainty theta = 0.000490, k = 0.037345
        43        25        45     1      108.367752      455.538554    ;  uncertainty theta = 0.000490, k = 0.037345
        43        46        47     1      109.448997      459.213664    ;  uncertainty theta = 0.001339, k = 0.022922
        43        46        48     1      109.448997      459.213664    ;  uncertainty theta = 0.001339, k = 0.022922
        43        46        49     1      109.448997      459.213600    ;  uncertainty theta = 0.001339, k = 0.022922
        44        25        45     1      107.448242      327.010794    ;  uncertainty theta = 0.001035, k = 0.061907
        47        46        48     1      108.631981      326.097395    ;  uncertainty theta = 0.002071, k = 0.017577
        47        46        49     1      108.631981      326.097395    ;  uncertainty theta = 0.002071, k = 0.017577
        48        46        49     1      108.631981      326.097395    ;  uncertainty theta = 0.002071, k = 0.017577

[ dihedrals ] ; propers for gromacs 4.5 or higher, use funct 9
;       ai        aj        ak        al funct           phase               k        pn
         1         2         3         4     9        0.000000       -0.313307         1    ;  uncertainty k = 0.329951
         1         2         3         4     9      180.000000        6.615877         2    ;  uncertainty k = 0.890639
         1         2         3         4     9        0.000000        0.201586         3    ;  uncertainty k = 0.336084
         1         2         3         4     9      180.000000        1.207291         4    ;  uncertainty k = 0.408993
         1         2         3         7     9        0.000000        0.501262         1    ;  uncertainty k = 0.244121
         1         2         3         7     9      180.000000        6.434364         2    ;  uncertainty k = 0.219663
         1         2         3         7     9        0.000000        1.222541         3    ;  uncertainty k = 0.345750
         1         2         3         7     9      180.000000        1.684716         4    ;  uncertainty k = 0.332579
         1         2        19        20     9        0.000000        2.240157         1    ;  uncertainty k = 0.485970
         1         2        19        20     9      180.000000        6.414549         2    ;  uncertainty k = 0.114921
         1         2        19        20     9        0.000000        0.213334         3    ;  uncertainty k = 0.128461
         1         2        19        20     9      180.000000        0.075585         4    ;  uncertainty k = 0.118702
         1         6         5         4     9        0.000000       -0.038460         1    ;  uncertainty k = 0.170023
         1         6         5         4     9      180.000000        9.593012         2    ;  uncertainty k = 0.585701
         1         6         5         4     9        0.000000       -0.200017         3    ;  uncertainty k = 0.411419
         1         6         5         4     9      180.000000        1.110735         4    ;  uncertainty k = 0.351913
         1         6         5        17     9        0.000000        0.039267         1    ;  uncertainty k = 0.291886
         1         6         5        17     9      180.000000       10.482309         2    ;  uncertainty k = 0.635460
         1         6         5        17     9        0.000000        1.151012         3    ;  uncertainty k = 0.310735
         1         6         5        17     9      180.000000        1.622403         4    ;  uncertainty k = 0.159622
         2         1         6         5     9        0.000000       -0.192157         1    ;  uncertainty k = 0.263262
         2         1         6         5     9      180.000000       13.656424         2    ;  uncertainty k = 0.480272
         2         1         6         5     9        0.000000       -0.574996         3    ;  uncertainty k = 0.365071
         2         1         6         5     9      180.000000        0.902367         4    ;  uncertainty k = 0.323361
         2         1         6        50     9        0.000000        0.108054         1    ;  uncertainty k = 0.343256
         2         1         6        50     9      180.000000        7.787158         2    ;  uncertainty k = 0.349720
         2         1         6        50     9        0.000000        1.304014         3    ;  uncertainty k = 0.296800
         2         1         6        50     9      180.000000        1.717698         4    ;  uncertainty k = 0.124448
         2         3         4         5     9        0.000000       -0.169879         1    ;  uncertainty k = 0.202577
         2         3         4         5     9      180.000000       11.553781         2    ;  uncertainty k = 0.271131
         2         3         4         5     9        0.000000        0.112387         3    ;  uncertainty k = 0.216730
         2         3         4         5     9      180.000000        1.130733         4    ;  uncertainty k = 0.237575
         2         3         4        28     9        0.000000        0.211095         1    ;  uncertainty k = 0.163151
         2         3         4        28     9      180.000000        8.663746         2    ;  uncertainty k = 0.372088
         2         3         4        28     9        0.000000        1.293969         3    ;  uncertainty k = 0.362460
         2         3         4        28     9      180.000000        1.633644         4    ;  uncertainty k = 0.076796
         2         3         7         8     9        0.000000        1.868914         1    ;  uncertainty k = 1.029844
         2         3         7         8     9      180.000000        1.813574         2    ;  uncertainty k = 0.500483
         2         3         7         8     9        0.000000        0.458619         3    ;  uncertainty k = 0.168881
         2         3         7         8     9      180.000000        0.273120         4    ;  uncertainty k = 0.071712
         2         3         7        30     9        0.000000       -0.136202         1    ;  uncertainty k = 0.625890
         2         3         7        30     9      180.000000        2.679733         2    ;  uncertainty k = 0.209902
         2         3         7        30     9        0.000000        0.268209         3    ;  uncertainty k = 0.134306
         2         3         7        30     9      180.000000        0.376637         4    ;  uncertainty k = 0.107149
         2         3         7        31     9        0.000000       -0.136202         1    ;  uncertainty k = 0.625890
         2         3         7        31     9      180.000000        2.679733         2    ;  uncertainty k = 0.209902
         2         3         7        31     9        0.000000        0.268209         3    ;  uncertainty k = 0.134306
         2         3         7        31     9      180.000000        0.376637         4    ;  uncertainty k = 0.107149
         2        19        20        36     9        0.000000        1.032026         1    ;  uncertainty k = 0.177840
         2        19        20        36     9      180.000000       -1.929445         2    ;  uncertainty k = 0.122402
         2        19        20        36     9        0.000000        1.014422         3    ;  uncertainty k = 0.063061
         2        19        20        36     9      180.000000        0.262822         4    ;  uncertainty k = 0.065638
         2        19        20        37     9        0.000000        1.032026         1    ;  uncertainty k = 0.177840
         2        19        20        37     9      180.000000       -1.929445         2    ;  uncertainty k = 0.122402
         2        19        20        37     9        0.000000        1.014422         3    ;  uncertainty k = 0.063061
         2        19        20        37     9      180.000000        0.262822         4    ;  uncertainty k = 0.065638
         2        19        20        38     9        0.000000        1.032026         1    ;  uncertainty k = 0.177840
         2        19        20        38     9      180.000000       -1.929445         2    ;  uncertainty k = 0.122402
         2        19        20        38     9        0.000000        1.014422         3    ;  uncertainty k = 0.063061
         2        19        20        38     9      180.000000        0.262822         4    ;  uncertainty k = 0.065638
         3         2         1         6     9        0.000000        0.104429         1    ;  uncertainty k = 0.179155
         3         2         1         6     9      180.000000        8.229736         2    ;  uncertainty k = 0.748504
         3         2         1         6     9        0.000000        0.231757         3    ;  uncertainty k = 0.359495
         3         2         1         6     9      180.000000        1.321013         4    ;  uncertainty k = 0.262701
         3         2         1        27     9        0.000000        0.055090         1    ;  uncertainty k = 0.506794
         3         2         1        27     9      180.000000        5.774528         2    ;  uncertainty k = 0.618928
         3         2         1        27     9        0.000000        1.298589         3    ;  uncertainty k = 0.333373
         3         2         1        27     9      180.000000        1.595338         4    ;  uncertainty k = 0.027941
         3         2        19        20     9        0.000000       -2.216855         1    ;  uncertainty k = 0.863702
         3         2        19        20     9      180.000000        6.664385         2    ;  uncertainty k = 0.160636
         3         2        19        20     9        0.000000        0.574148         3    ;  uncertainty k = 0.241186
         3         2        19        20     9      180.000000        0.249835         4    ;  uncertainty k = 0.148334
         3         4         5         6     9        0.000000        0.017285         1    ;  uncertainty k = 0.392444
         3         4         5         6     9      180.000000        7.751477         2    ;  uncertainty k = 0.788726
         3         4         5         6     9        0.000000        0.033054         3    ;  uncertainty k = 0.449435
         3         4         5         6     9      180.000000        1.303553         4    ;  uncertainty k = 0.363339
         3         4         5        17     9        0.000000        0.017686         1    ;  uncertainty k = 0.239240
         3         4         5        17     9      180.000000        9.728693         2    ;  uncertainty k = 0.656955
         3         4         5        17     9        0.000000        1.169775         3    ;  uncertainty k = 0.429098
         3         4         5        17     9      180.000000        1.631147         4    ;  uncertainty k = 0.144436
         3         7         8         9     9        0.000000       -0.519701         1    ;  uncertainty k = 0.487881
         3         7         8         9     9      180.000000        2.229161         2    ;  uncertainty k = 0.511564
         3         7         8         9     9        0.000000        0.504799         3    ;  uncertainty k = 0.147691
         3         7         8         9     9      180.000000        0.215440         4    ;  uncertainty k = 0.122617
         3         7         8        11     9        0.000000       -1.551533         1    ;  uncertainty k = 0.655414
         3         7         8        11     9      180.000000        4.235919         2    ;  uncertainty k = 0.455563
         3         7         8        11     9        0.000000        0.970618         3    ;  uncertainty k = 0.222723
         3         7         8        11     9      180.000000        0.396385         4    ;  uncertainty k = 0.156298
         4         3         2        19     9        0.000000        0.140824         1    ;  uncertainty k = 0.201807
         4         3         2        19     9      180.000000       10.270904         2    ;  uncertainty k = 0.440953
         4         3         2        19     9        0.000000        1.160342         3    ;  uncertainty k = 0.306693
         4         3         2        19     9      180.000000        1.514066         4    ;  uncertainty k = 0.191654
         4         3         7         8     9        0.000000        0.265724         1    ;  uncertainty k = 0.765368
         4         3         7         8     9      180.000000        1.746136         2    ;  uncertainty k = 0.324270
         4         3         7         8     9        0.000000        0.353315         3    ;  uncertainty k = 0.170519
         4         3         7         8     9      180.000000        0.205800         4    ;  uncertainty k = 0.054233
         4         3         7        30     9        0.000000       -0.237185         1    ;  uncertainty k = 0.585866
         4         3         7        30     9      180.000000        2.362708         2    ;  uncertainty k = 0.333390
         4         3         7        30     9        0.000000        0.307954         3    ;  uncertainty k = 0.118415
         4         3         7        30     9      180.000000        0.206842         4    ;  uncertainty k = 0.053193
         4         3         7        31     9        0.000000       -0.237185         1    ;  uncertainty k = 0.585866
         4         3         7        31     9      180.000000        2.362708         2    ;  uncertainty k = 0.333390
         4         3         7        31     9        0.000000        0.307954         3    ;  uncertainty k = 0.118415
         4         3         7        31     9      180.000000        0.206842         4    ;  uncertainty k = 0.053193
         4         5         6        50     9        0.000000        0.198549         1    ;  uncertainty k = 0.349617
         4         5         6        50     9      180.000000        6.010955         2    ;  uncertainty k = 0.613102
         4         5         6        50     9        0.000000        1.411241         3    ;  uncertainty k = 0.314854
         4         5         6        50     9      180.000000        1.561034         4    ;  uncertainty k = 0.166041
         4         5        17        18     9        0.000000       -0.577314         1    ;  uncertainty k = 0.479645
         4         5        17        18     9      180.000000        7.688099         2    ;  uncertainty k = 0.138352
         4         5        17        18     9        0.000000        0.602797         3    ;  uncertainty k = 0.120659
         4         5        17        18     9      180.000000        0.303757         4    ;  uncertainty k = 0.032820
         5         4         3         7     9        0.000000        0.133386         1    ;  uncertainty k = 0.268375
         5         4         3         7     9      180.000000        9.726279         2    ;  uncertainty k = 0.476925
         5         4         3         7     9        0.000000        1.421747         3    ;  uncertainty k = 0.226414
         5         4         3         7     9      180.000000        1.819818         4    ;  uncertainty k = 0.174981
         5         6         1        27     9        0.000000        0.043942         1    ;  uncertainty k = 0.157370
         5         6         1        27     9      180.000000        7.948475         2    ;  uncertainty k = 0.215068
         5         6         1        27     9        0.000000        1.277126         3    ;  uncertainty k = 0.323399
         5         6         1        27     9      180.000000        1.725767         4    ;  uncertainty k = 0.111117
         5        17        18        33     9        0.000000        0.710162         1    ;  uncertainty k = 0.235351
         5        17        18        33     9      180.000000       -1.403497         2    ;  uncertainty k = 0.099387
         5        17        18        33     9        0.000000        0.951511         3    ;  uncertainty k = 0.048104
         5        17        18        33     9      180.000000        0.290446         4    ;  uncertainty k = 0.057567
         5        17        18        34     9        0.000000        0.710162         1    ;  uncertainty k = 0.235351
         5        17        18        34     9      180.000000       -1.403497         2    ;  uncertainty k = 0.099387
         5        17        18        34     9        0.000000        0.951511         3    ;  uncertainty k = 0.048104
         5        17        18        34     9      180.000000        0.290446         4    ;  uncertainty k = 0.057567
         5        17        18        35     9        0.000000        0.710162         1    ;  uncertainty k = 0.235351
         5        17        18        35     9      180.000000       -1.403497         2    ;  uncertainty k = 0.099387
         5        17        18        35     9        0.000000        0.951511         3    ;  uncertainty k = 0.048104
         5        17        18        35     9      180.000000        0.290446         4    ;  uncertainty k = 0.057567
         6         1         2        19     9        0.000000        0.051091         1    ;  uncertainty k = 0.304549
         6         1         2        19     9      180.000000       11.276249         2    ;  uncertainty k = 0.223928
         6         1         2        19     9        0.000000        1.251241         3    ;  uncertainty k = 0.272903
         6         1         2        19     9      180.000000        1.672115         4    ;  uncertainty k = 0.142326
         6         5         4        28     9        0.000000        0.135948         1    ;  uncertainty k = 0.233842
         6         5         4        28     9      180.000000        6.014209         2    ;  uncertainty k = 0.447228
         6         5         4        28     9        0.000000        1.400187         3    ;  uncertainty k = 0.304689
         6         5         4        28     9      180.000000        1.585229         4    ;  uncertainty k = 0.150466
         6         5        17        18     9        0.000000        0.557263         1    ;  uncertainty k = 0.501663
         6         5        17        18     9      180.000000        7.185179         2    ;  uncertainty k = 0.100534
         6         5        17        18     9        0.000000        0.636563         3    ;  uncertainty k = 0.091658
         6         5        17        18     9      180.000000        0.315041         4    ;  uncertainty k = 0.035073
         7         3         2        19     9        0.000000       -0.053774         1    ;  uncertainty k = 0.480125
         7         3         2        19     9      180.000000       11.665219         2    ;  uncertainty k = 0.487799
         7         3         2        19     9        0.000000        0.851230         3    ;  uncertainty k = 0.389255
         7         3         2        19     9      180.000000        1.323202         4    ;  uncertainty k = 0.252775
         7         3         4        28     9        0.000000       -0.230475         1    ;  uncertainty k = 0.277148
         7         3         4        28     9      180.000000        7.536753         2    ;  uncertainty k = 0.401690
         7         3         4        28     9        0.000000        0.644157         3    ;  uncertainty k = 0.424241
         7         3         4        28     9      180.000000        1.202391         4    ;  uncertainty k = 0.310741
         7         8         9        10     9        0.000000        4.671022         1    ;  uncertainty k = 0.699799
         7         8         9        10     9      180.000000        7.623967         2    ;  uncertainty k = 0.302874
         7         8         9        10     9        0.000000        0.817724         3    ;  uncertainty k = 0.357680
         7         8         9        10     9      180.000000       -0.182306         4    ;  uncertainty k = 0.241602
         7         8         9        32     9        0.000000        0.853657         1    ;  uncertainty k = 0.505894
         7         8         9        32     9      180.000000        5.539233         2    ;  uncertainty k = 0.534867
         7         8         9        32     9        0.000000        1.662963         3    ;  uncertainty k = 0.189506
         7         8         9        32     9      180.000000        0.023894         4    ;  uncertainty k = 0.271248
         8         9        10        12     9        0.000000        2.036595         1    ;  uncertainty k = 1.243319
         8         9        10        12     9      180.000000        7.082785         2    ;  uncertainty k = 0.367231
         8         9        10        12     9        0.000000        0.897247         3    ;  uncertainty k = 0.195168
         8         9        10        12     9      180.000000       -0.256758         4    ;  uncertainty k = 0.225803
         8         9        10        16     9        0.000000       -0.263671         1    ;  uncertainty k = 1.359134
         8         9        10        16     9      180.000000        5.560786         2    ;  uncertainty k = 0.239106
         8         9        10        16     9        0.000000        0.536590         3    ;  uncertainty k = 0.116520
         8         9        10        16     9      180.000000       -0.243126         4    ;  uncertainty k = 0.185800
         9         8         7        30     9        0.000000       -1.164087         1    ;  uncertainty k = 0.303850
         9         8         7        30     9      180.000000        2.838964         2    ;  uncertainty k = 0.369025
         9         8         7        30     9        0.000000        0.221109         3    ;  uncertainty k = 0.093496
         9         8         7        30     9      180.000000        0.066060         4    ;  uncertainty k = 0.106536
         9         8         7        31     9        0.000000       -1.164087         1    ;  uncertainty k = 0.303850
         9         8         7        31     9      180.000000        2.838964         2    ;  uncertainty k = 0.369025
         9         8         7        31     9        0.000000        0.221109         3    ;  uncertainty k = 0.093496
         9         8         7        31     9      180.000000        0.066060         4    ;  uncertainty k = 0.106536
         9        10        12        13     9        0.000000       -0.261653         1    ;  uncertainty k = 0.839092
         9        10        12        13     9      180.000000       14.322218         2    ;  uncertainty k = 0.325716
         9        10        12        13     9        0.000000        1.982695         3    ;  uncertainty k = 0.558854
         9        10        12        13     9      180.000000        1.639288         4    ;  uncertainty k = 0.534026
         9        10        16        15     9        0.000000        0.126116         1    ;  uncertainty k = 0.694904
         9        10        16        15     9      180.000000       10.311010         2    ;  uncertainty k = 0.354821
         9        10        16        15     9        0.000000        1.009975         3    ;  uncertainty k = 0.371826
         9        10        16        15     9      180.000000        1.171697         4    ;  uncertainty k = 0.312850
         9        10        16        29     9        0.000000       -0.283095         1    ;  uncertainty k = 0.411758
         9        10        16        29     9      180.000000        7.046675         2    ;  uncertainty k = 0.484512
         9        10        16        29     9        0.000000        1.005820         3    ;  uncertainty k = 0.162759
         9        10        16        29     9      180.000000        0.948056         4    ;  uncertainty k = 0.400045
        10         9         8        11     9        0.000000        4.133006         1    ;  uncertainty k = 0.494385
        10         9         8        11     9      180.000000       17.191458         2    ;  uncertainty k = 0.239049
        10         9         8        11     9        0.000000        0.572943         3    ;  uncertainty k = 0.140968
        10         9         8        11     9      180.000000       -1.289237         4    ;  uncertainty k = 0.196962
        10        12        13        14     9        0.000000       -0.136612         1    ;  uncertainty k = 0.708997
        10        12        13        14     9      180.000000       10.023822         2    ;  uncertainty k = 0.359939
        10        12        13        14     9        0.000000        1.561907         3    ;  uncertainty k = 0.518566
        10        12        13        14     9      180.000000        1.216213         4    ;  uncertainty k = 0.421529
        10        12        13        23     9        0.000000        0.380267         1    ;  uncertainty k = 1.130239
        10        12        13        23     9      180.000000       14.460741         2    ;  uncertainty k = 0.319486
        10        12        13        23     9        0.000000        2.404828         3    ;  uncertainty k = 0.505993
        10        12        13        23     9      180.000000        1.547185         4    ;  uncertainty k = 0.179299
        10        16        15        14     9        0.000000       -0.073776         1    ;  uncertainty k = 0.309551
        10        16        15        14     9      180.000000        7.996001         2    ;  uncertainty k = 0.986235
        10        16        15        14     9        0.000000        0.157134         3    ;  uncertainty k = 0.423554
        10        16        15        14     9      180.000000        1.240112         4    ;  uncertainty k = 0.344697
        10        16        15        21     9        0.000000       -0.330766         1    ;  uncertainty k = 0.831441
        10        16        15        21     9      180.000000        9.847893         2    ;  uncertainty k = 0.474596
        10        16        15        21     9        0.000000        0.856731         3    ;  uncertainty k = 0.349573
        10        16        15        21     9      180.000000        1.151218         4    ;  uncertainty k = 0.263543
        11         8         7        30     9        0.000000        0.080447         1    ;  uncertainty k = 0.268892
        11         8         7        30     9      180.000000        4.122898         2    ;  uncertainty k = 0.315571
        11         8         7        30     9        0.000000        0.598180         3    ;  uncertainty k = 0.096513
        11         8         7        30     9      180.000000        0.296107         4    ;  uncertainty k = 0.068140
        11         8         7        31     9        0.000000        0.080447         1    ;  uncertainty k = 0.268892
        11         8         7        31     9      180.000000        4.122898         2    ;  uncertainty k = 0.315571
        11         8         7        31     9        0.000000        0.598180         3    ;  uncertainty k = 0.096513
        11         8         7        31     9      180.000000        0.296107         4    ;  uncertainty k = 0.068140
        11         8         9        32     9        0.000000        2.750074         1    ;  uncertainty k = 0.897579
        11         8         9        32     9      180.000000       14.049828         2    ;  uncertainty k = 0.278745
        11         8         9        32     9        0.000000        1.102512         3    ;  uncertainty k = 0.141275
        11         8         9        32     9      180.000000       -0.359929         4    ;  uncertainty k = 0.195301
        12        10         9        32     9        0.000000        7.193412         1    ;  uncertainty k = 0.462281
        12        10         9        32     9      180.000000        5.163654         2    ;  uncertainty k = 0.593263
        12        10         9        32     9        0.000000        0.023637         3    ;  uncertainty k = 0.285850
        12        10         9        32     9      180.000000        0.083833         4    ;  uncertainty k = 0.229426
        12        10        16        15     9        0.000000       -0.104497         1    ;  uncertainty k = 0.398292
        12        10        16        15     9      180.000000       11.295169         2    ;  uncertainty k = 0.714584
        12        10        16        15     9        0.000000       -0.676779         3    ;  uncertainty k = 0.671303
        12        10        16        15     9      180.000000        1.074034         4    ;  uncertainty k = 0.238313
        12        10        16        29     9        0.000000        0.361026         1    ;  uncertainty k = 0.745384
        12        10        16        29     9      180.000000        8.722461         2    ;  uncertainty k = 0.756875
        12        10        16        29     9        0.000000        1.235261         3    ;  uncertainty k = 0.310839
        12        10        16        29     9      180.000000        1.393341         4    ;  uncertainty k = 0.262392
        12        13        14        15     9        0.000000       -0.262224         1    ;  uncertainty k = 0.574517
        12        13        14        15     9      180.000000        6.807525         2    ;  uncertainty k = 1.010642
        12        13        14        15     9        0.000000       -0.183008         3    ;  uncertainty k = 0.216356
        12        13        14        15     9      180.000000        0.982915         4    ;  uncertainty k = 0.316243
        12        13        14        22     9        0.000000       -0.297261         1    ;  uncertainty k = 0.718310
        12        13        14        22     9      180.000000        8.883093         2    ;  uncertainty k = 0.973319
        12        13        14        22     9        0.000000        0.777782         3    ;  uncertainty k = 0.385581
        12        13        14        22     9      180.000000        1.004534         4    ;  uncertainty k = 0.432540
        12        13        23        24     9        0.000000        4.789695         1    ;  uncertainty k = 0.795939
        12        13        23        24     9      180.000000       11.231171         2    ;  uncertainty k = 0.076730
        12        13        23        24     9        0.000000        0.360367         3    ;  uncertainty k = 0.383525
        12        13        23        24     9      180.000000        0.134584         4    ;  uncertainty k = 0.110901
        13        12        10        16     9        0.000000       -0.325137         1    ;  uncertainty k = 1.214381
        13        12        10        16     9      180.000000       11.260981         2    ;  uncertainty k = 0.431965
        13        12        10        16     9        0.000000        1.021375         3    ;  uncertainty k = 0.419136
        13        12        10        16     9      180.000000        1.241204         4    ;  uncertainty k = 0.446887
        13        14        15        16     9        0.000000       -0.079111         1    ;  uncertainty k = 0.577302
        13        14        15        16     9      180.000000        6.233486         2    ;  uncertainty k = 1.272591
        13        14        15        16     9        0.000000        0.401240         3    ;  uncertainty k = 0.357052
        13        14        15        16     9      180.000000        1.230836         4    ;  uncertainty k = 0.258879
        13        14        15        21     9        0.000000       -0.728245         1    ;  uncertainty k = 0.552568
        13        14        15        21     9      180.000000        8.664233         2    ;  uncertainty k = 0.773776
        13        14        15        21     9        0.000000        0.742811         3    ;  uncertainty k = 0.177888
        13        14        15        21     9      180.000000        1.174291         4    ;  uncertainty k = 0.402746
        13        14        22        26     9        0.000000        0.000000         1    ;  uncertainty k = 0.000000
        13        14        22        26     9      180.000000        0.000000         2    ;  uncertainty k = 0.000000
        13        14        22        26     9        0.000000        0.000000         3    ;  uncertainty k = 0.000000
        13        14        22        26     9      180.000000        0.000000         4    ;  uncertainty k = 0.000000
        13        23        24        25     9        0.000000       -0.609394         1    ;  uncertainty k = 0.822778
        13        23        24        25     9      180.000000        0.265570         2    ;  uncertainty k = 0.302112
        13        23        24        25     9        0.000000       -0.091520         3    ;  uncertainty k = 0.176480
        13        23        24        25     9      180.000000        0.795111         4    ;  uncertainty k = 0.118532
        13        23        24        41     9        0.000000        2.151886         1    ;  uncertainty k = 0.510899
        13        23        24        41     9      180.000000       -0.198172         2    ;  uncertainty k = 0.375520
        13        23        24        41     9        0.000000        0.057223         3    ;  uncertainty k = 0.083762
        13        23        24        41     9      180.000000        0.378180         4    ;  uncertainty k = 0.078480
        13        23        24        42     9        0.000000        2.151886         1    ;  uncertainty k = 0.510899
        13        23        24        42     9      180.000000       -0.198172         2    ;  uncertainty k = 0.375520
        13        23        24        42     9        0.000000        0.057223         3    ;  uncertainty k = 0.083762
        13        23        24        42     9      180.000000        0.378180         4    ;  uncertainty k = 0.078480
        14        13        23        24     9        0.000000        0.109406         1    ;  uncertainty k = 0.953371
        14        13        23        24     9      180.000000        8.625335         2    ;  uncertainty k = 0.591775
        14        13        23        24     9        0.000000        0.112083         3    ;  uncertainty k = 0.548375
        14        13        23        24     9      180.000000       -0.030215         4    ;  uncertainty k = 0.176667
        14        15        16        29     9        0.000000        0.248056         1    ;  uncertainty k = 0.958381
        14        15        16        29     9      180.000000        6.811149         2    ;  uncertainty k = 0.465255
        14        15        16        29     9        0.000000        1.363311         3    ;  uncertainty k = 0.334370
        14        15        16        29     9      180.000000        1.320741         4    ;  uncertainty k = 0.267576
        14        15        21        39     9        0.000000       16.179241         1    ;  uncertainty k = 0.226508
        14        15        21        39     9      180.000000        8.686178         2    ;  uncertainty k = 0.232167
        14        15        21        39     9        0.000000        0.910135         3    ;  uncertainty k = 0.213786
        14        15        21        39     9      180.000000       -0.131487         4    ;  uncertainty k = 0.109493
        14        15        21        40     9        0.000000       16.179241         1    ;  uncertainty k = 0.226508
        14        15        21        40     9      180.000000        8.686178         2    ;  uncertainty k = 0.232167
        14        15        21        40     9        0.000000        0.910135         3    ;  uncertainty k = 0.213786
        14        15        21        40     9      180.000000       -0.131487         4    ;  uncertainty k = 0.109493
        15        14        13        23     9        0.000000        0.059220         1    ;  uncertainty k = 0.672480
        15        14        13        23     9      180.000000        6.599635         2    ;  uncertainty k = 0.716697
        15        14        13        23     9        0.000000        1.088519         3    ;  uncertainty k = 0.323427
        15        14        13        23     9      180.000000        1.145841         4    ;  uncertainty k = 0.433973
        15        14        22        26     9        0.000000        0.000000         1    ;  uncertainty k = 0.000000
        15        14        22        26     9      180.000000        0.000000         2    ;  uncertainty k = 0.000000
        15        14        22        26     9        0.000000        0.000000         3    ;  uncertainty k = 0.000000
        15        14        22        26     9      180.000000        0.000000         4    ;  uncertainty k = 0.000000
        16        10         9        32     9        0.000000        0.996703         1    ;  uncertainty k = 1.088402
        16        10         9        32     9      180.000000        5.158411         2    ;  uncertainty k = 0.639236
        16        10         9        32     9        0.000000        1.415645         3    ;  uncertainty k = 0.264055
        16        10         9        32     9      180.000000        0.157366         4    ;  uncertainty k = 0.160041
        16        15        14        22     9        0.000000        0.118231         1    ;  uncertainty k = 0.663075
        16        15        14        22     9      180.000000        7.761016         2    ;  uncertainty k = 0.752747
        16        15        14        22     9        0.000000        0.963725         3    ;  uncertainty k = 0.321347
        16        15        14        22     9      180.000000        1.184081         4    ;  uncertainty k = 0.547084
        16        15        21        39     9        0.000000       10.150943         1    ;  uncertainty k = 0.373654
        16        15        21        39     9      180.000000        9.585958         2    ;  uncertainty k = 0.358657
        16        15        21        39     9        0.000000        0.834747         3    ;  uncertainty k = 0.211714
        16        15        21        39     9      180.000000       -0.348757         4    ;  uncertainty k = 0.221362
        16        15        21        40     9        0.000000       10.150943         1    ;  uncertainty k = 0.373654
        16        15        21        40     9      180.000000        9.585958         2    ;  uncertainty k = 0.358657
        16        15        21        40     9        0.000000        0.834747         3    ;  uncertainty k = 0.211714
        16        15        21        40     9      180.000000       -0.348757         4    ;  uncertainty k = 0.221362
        17         5         4        28     9        0.000000       -0.217637         1    ;  uncertainty k = 0.395674
        17         5         4        28     9      180.000000        8.231338         2    ;  uncertainty k = 0.288433
        17         5         4        28     9        0.000000        0.720669         3    ;  uncertainty k = 0.153600
        17         5         4        28     9      180.000000        1.020952         4    ;  uncertainty k = 0.232153
        17         5         6        50     9        0.000000       -0.163687         1    ;  uncertainty k = 0.245434
        17         5         6        50     9      180.000000        8.176867         2    ;  uncertainty k = 0.245808
        17         5         6        50     9        0.000000        0.694416         3    ;  uncertainty k = 0.142503
        17         5         6        50     9      180.000000        0.994854         4    ;  uncertainty k = 0.214061
        19         2         1        27     9        0.000000       -0.138793         1    ;  uncertainty k = 0.270433
        19         2         1        27     9      180.000000        8.865509         2    ;  uncertainty k = 0.294405
        19         2         1        27     9        0.000000        0.783461         3    ;  uncertainty k = 0.161358
        19         2         1        27     9      180.000000        1.201531         4    ;  uncertainty k = 0.260783
        21        15        14        22     9        0.000000       -0.379135         1    ;  uncertainty k = 0.501361
        21        15        14        22     9      180.000000       10.387938         2    ;  uncertainty k = 0.380197
        21        15        14        22     9        0.000000        0.811351         3    ;  uncertainty k = 0.545627
        21        15        14        22     9      180.000000        0.962118         4    ;  uncertainty k = 0.290345
        21        15        16        29     9        0.000000       -0.546000         1    ;  uncertainty k = 0.474114
        21        15        16        29     9      180.000000        7.797048         2    ;  uncertainty k = 0.566356
        21        15        16        29     9        0.000000        0.717830         3    ;  uncertainty k = 0.278527
        21        15        16        29     9      180.000000        0.908902         4    ;  uncertainty k = 0.384357
        22        14        13        23     9        0.000000       -0.627570         1    ;  uncertainty k = 0.620184
        22        14        13        23     9      180.000000        9.455584         2    ;  uncertainty k = 0.981135
        22        14        13        23     9        0.000000        0.836678         3    ;  uncertainty k = 0.487652
        22        14        13        23     9      180.000000        0.899425         4    ;  uncertainty k = 0.441468
        23        24        25        43     9        0.000000       -1.600644         1    ;  uncertainty k = 0.731783
        23        24        25        43     9      180.000000       -5.695963         2    ;  uncertainty k = 0.495542
        23        24        25        43     9        0.000000        2.793309         3    ;  uncertainty k = 0.373265
        23        24        25        43     9      180.000000        0.085021         4    ;  uncertainty k = 0.098863
        23        24        25        44     9        0.000000        0.927306         1    ;  uncertainty k = 0.674082
        23        24        25        44     9      180.000000       -1.915715         2    ;  uncertainty k = 0.329588
        23        24        25        44     9        0.000000        1.134247         3    ;  uncertainty k = 0.154163
        23        24        25        44     9      180.000000       -0.013059         4    ;  uncertainty k = 0.097462
        23        24        25        45     9        0.000000        0.927306         1    ;  uncertainty k = 0.674082
        23        24        25        45     9      180.000000       -1.915715         2    ;  uncertainty k = 0.329588
        23        24        25        45     9        0.000000        1.134247         3    ;  uncertainty k = 0.154163
        23        24        25        45     9      180.000000       -0.013059         4    ;  uncertainty k = 0.097462
        24        25        43        46     9        0.000000       -2.884144         1    ;  uncertainty k = 0.623428
        24        25        43        46     9      180.000000       -1.238037         2    ;  uncertainty k = 0.065414
        24        25        43        46     9        0.000000        1.070036         3    ;  uncertainty k = 0.117044
        24        25        43        46     9      180.000000        0.060275         4    ;  uncertainty k = 0.052941
        25        43        46        47     9        0.000000       -1.366791         1    ;  uncertainty k = 0.368547
        25        43        46        47     9      180.000000       -1.956625         2    ;  uncertainty k = 0.226876
        25        43        46        47     9        0.000000        1.180522         3    ;  uncertainty k = 0.052655
        25        43        46        47     9      180.000000        0.015883         4    ;  uncertainty k = 0.024761
        25        43        46        48     9        0.000000       -1.366791         1    ;  uncertainty k = 0.368547
        25        43        46        48     9      180.000000       -1.956625         2    ;  uncertainty k = 0.226876
        25        43        46        48     9        0.000000        1.180522         3    ;  uncertainty k = 0.052655
        25        43        46        48     9      180.000000        0.015883         4    ;  uncertainty k = 0.024761
        25        43        46        49     9        0.000000       -1.366791         1    ;  uncertainty k = 0.368546
        25        43        46        49     9      180.000000       -1.956625         2    ;  uncertainty k = 0.226877
        25        43        46        49     9        0.000000        1.180522         3    ;  uncertainty k = 0.052656
        25        43        46        49     9      180.000000        0.015883         4    ;  uncertainty k = 0.024761
        27         1         6        50     9        0.000000       -0.117554         1    ;  uncertainty k = 0.434908
        27         1         6        50     9      180.000000        7.313794         2    ;  uncertainty k = 0.452190
        27         1         6        50     9        0.000000       -0.331158         3    ;  uncertainty k = 0.229369
        27         1         6        50     9      180.000000        0.142381         4    ;  uncertainty k = 0.186995
        41        24        25        43     9        0.000000        0.079534         1    ;  uncertainty k = 0.303526
        41        24        25        43     9      180.000000       -1.069351         2    ;  uncertainty k = 0.159701
        41        24        25        43     9        0.000000        1.073395         3    ;  uncertainty k = 0.082964
        41        24        25        43     9      180.000000       -0.082732         4    ;  uncertainty k = 0.098731
        41        24        25        44     9        0.000000        0.014286         1    ;  uncertainty k = 0.279729
        41        24        25        44     9      180.000000       -0.384933         2    ;  uncertainty k = 0.107441
        41        24        25        44     9        0.000000        0.266758         3    ;  uncertainty k = 0.015960
        41        24        25        44     9      180.000000        0.063609         4    ;  uncertainty k = 0.109691
        41        24        25        45     9        0.000000        0.014286         1    ;  uncertainty k = 0.279729
        41        24        25        45     9      180.000000       -0.384933         2    ;  uncertainty k = 0.107441
        41        24        25        45     9        0.000000        0.266758         3    ;  uncertainty k = 0.015960
        41        24        25        45     9      180.000000        0.063609         4    ;  uncertainty k = 0.109691
        42        24        25        43     9        0.000000        0.079534         1    ;  uncertainty k = 0.303526
        42        24        25        43     9      180.000000       -1.069351         2    ;  uncertainty k = 0.159701
        42        24        25        43     9        0.000000        1.073395         3    ;  uncertainty k = 0.082964
        42        24        25        43     9      180.000000       -0.082732         4    ;  uncertainty k = 0.098731
        42        24        25        44     9        0.000000        0.014286         1    ;  uncertainty k = 0.279729
        42        24        25        44     9      180.000000       -0.384933         2    ;  uncertainty k = 0.107441
        42        24        25        44     9        0.000000        0.266758         3    ;  uncertainty k = 0.015960
        42        24        25        44     9      180.000000        0.063609         4    ;  uncertainty k = 0.109691
        42        24        25        45     9        0.000000        0.014286         1    ;  uncertainty k = 0.279729
        42        24        25        45     9      180.000000       -0.384933         2    ;  uncertainty k = 0.107441
        42        24        25        45     9        0.000000        0.266758         3    ;  uncertainty k = 0.015960
        42        24        25        45     9      180.000000        0.063609         4    ;  uncertainty k = 0.109691
        44        25        43        46     9        0.000000       -1.112747         1    ;  uncertainty k = 0.302357
        44        25        43        46     9      180.000000       -1.442063         2    ;  uncertainty k = 0.157583
        44        25        43        46     9        0.000000        1.125492         3    ;  uncertainty k = 0.128009
        44        25        43        46     9      180.000000        0.063790         4    ;  uncertainty k = 0.073120
        45        25        43        46     9        0.000000       -1.112747         1    ;  uncertainty k = 0.302357
        45        25        43        46     9      180.000000       -1.442063         2    ;  uncertainty k = 0.157583
        45        25        43        46     9        0.000000        1.125492         3    ;  uncertainty k = 0.128009
        45        25        43        46     9      180.000000        0.063790         4    ;  uncertainty k = 0.073120

[ dihedrals ] ; impropers
;       ai        aj        ak        al funct           phase               k        pn
         1         2         6        27     4      180.000000        3.034433         2    ;  uncertainty k = 0.185872
         1         6        27         2     4      180.000000        3.034433         2    ;  uncertainty k = 0.185872
         1        27         2         6     4      180.000000        3.034433         2    ;  uncertainty k = 0.185872
         2         1         3        19     4      180.000000       17.527306         2    ;  uncertainty k = 0.115717
         2         3        19         1     4      180.000000       17.527306         2    ;  uncertainty k = 0.115717
         2        19         1         3     4      180.000000       17.527306         2    ;  uncertainty k = 0.115717
         3         2         4         7     4      180.000000       12.075307         2    ;  uncertainty k = 0.141221
         3         4         7         2     4      180.000000       12.075307         2    ;  uncertainty k = 0.141221
         3         7         2         4     4      180.000000       12.075307         2    ;  uncertainty k = 0.141221
         4         3         5        28     4      180.000000        3.046201         2    ;  uncertainty k = 0.214017
         4         5        28         3     4      180.000000        3.046201         2    ;  uncertainty k = 0.214017
         4        28         3         5     4      180.000000        3.046201         2    ;  uncertainty k = 0.214017
         5         4         6        17     4      180.000000       18.587651         2    ;  uncertainty k = 0.057321
         5         6        17         4     4      180.000000       18.587651         2    ;  uncertainty k = 0.057321
         5        17         4         6     4      180.000000       18.587651         2    ;  uncertainty k = 0.057321
         6         1         5        50     4      180.000000        2.254723         2    ;  uncertainty k = 0.287592
         6         5        50         1     4      180.000000        2.254723         2    ;  uncertainty k = 0.287592
         6        50         1         5     4      180.000000        2.254723         2    ;  uncertainty k = 0.287592
         8         7         9        11     4      180.000000       54.402417         2    ;  uncertainty k = 0.011975
         8         9        11         7     4      180.000000       54.402417         2    ;  uncertainty k = 0.011975
         8        11         7         9     4      180.000000       54.402417         2    ;  uncertainty k = 0.011975
         9         8        10        32     4      180.000000        0.347695         2    ;  uncertainty k = 0.620136
         9        10        32         8     4      180.000000        0.347695         2    ;  uncertainty k = 0.620136
         9        32         8        10     4      180.000000        0.347695         2    ;  uncertainty k = 0.620136
        10         9        12        16     4      180.000000       30.056377         2    ;  uncertainty k = 0.135424
        10        12        16         9     4      180.000000       30.056377         2    ;  uncertainty k = 0.135424
        10        16         9        12     4      180.000000       30.056377         2    ;  uncertainty k = 0.135424
        13        12        14        23     4      180.000000       32.171783         2    ;  uncertainty k = 0.068501
        13        14        23        12     4      180.000000       32.171783         2    ;  uncertainty k = 0.068501
        13        23        12        14     4      180.000000       32.171783         2    ;  uncertainty k = 0.068501
        14        13        15        22     4      180.000000        5.357719         2    ;  uncertainty k = 0.452637
        14        15        22        13     4      180.000000        5.357719         2    ;  uncertainty k = 0.452637
        14        22        13        15     4      180.000000        5.357719         2    ;  uncertainty k = 0.452637
        15        14        16        21     4      180.000000       26.449005         2    ;  uncertainty k = 0.108353
        15        16        21        14     4      180.000000       26.449005         2    ;  uncertainty k = 0.108353
        15        21        14        16     4      180.000000       26.449005         2    ;  uncertainty k = 0.108353
        16        10        15        29     4      180.000000        0.521319         2    ;  uncertainty k = 0.605740
        16        15        29        10     4      180.000000        0.521319         2    ;  uncertainty k = 0.605740
        16        29        10        15     4      180.000000        0.521319         2    ;  uncertainty k = 0.605740

[ pairs ]
;       ai        aj funct
         1         4     1
         1         7     1
         1        17     1
         1        20     1
         2         5     1
         2         8     1
         2        28     1
         2        30     1
         2        31     1
         2        36     1
         2        37     1
         2        38     1
         2        50     1
         3         6     1
         3         9     1
         3        11     1
         3        17     1
         3        20     1
         3        27     1
         4         8     1
         4        18     1
         4        19     1
         4        30     1
         4        31     1
         4        50     1
         5         7     1
         5        27     1
         5        33     1
         5        34     1
         5        35     1
         6        18     1
         6        19     1
         6        28     1
         7        10     1
         7        19     1
         7        28     1
         7        32     1
         8        12     1
         8        16     1
         9        13     1
         9        15     1
         9        29     1
         9        30     1
         9        31     1
        10        11     1
        10        14     1
        10        21     1
        10        23     1
        11        30     1
        11        31     1
        11        32     1
        12        15     1
        12        22     1
        12        24     1
        12        29     1
        12        32     1
        13        16     1
        13        21     1
        13        25     1
        13        26     1
        13        41     1
        13        42     1
        14        24     1
        14        29     1
        14        39     1
        14        40     1
        15        23     1
        15        26     1
        16        22     1
        16        32     1
        16        39     1
        16        40     1
        17        28     1
        17        50     1
        19        27     1
        21        22     1
        21        29     1
        22        23     1
        23        43     1
        23        44     1
        23        45     1
        24        46     1
        25        47     1
        25        48     1
        25        49     1
        27        50     1
        41        43     1
        41        44     1
        41        45     1
        42        43     1
        42        44     1
        42        45     1
        44        46     1
        45        46     1
