; ITP file created by ByteFF-joint-25, 2026-02-17 09:09:50.698046

[ atomtypes ]
;name           bonded.type        at.num        mass        charge   ptype           sigma         epsilon
 c0bf                                   6      0.0000       0.00000       A     3.31521e-01     4.13393e-01    ;  uncertainty sigma = 0.000005, epsilon = 0.000563
 c1bf                                   6      0.0000       0.00000       A     3.31546e-01     4.13727e-01    ;  uncertainty sigma = 0.000012, epsilon = 0.000450
 c2bf                                   6      0.0000       0.00000       A     3.31528e-01     4.13519e-01    ;  uncertainty sigma = 0.000006, epsilon = 0.000884
 c3bf                                   6      0.0000       0.00000       A     3.31537e-01     4.13281e-01    ;  uncertainty sigma = 0.000008, epsilon = 0.000931
 c4bf                                   6      0.0000       0.00000       A     3.31530e-01     4.13522e-01    ;  uncertainty sigma = 0.000003, epsilon = 0.000473
 c5bf                                   6      0.0000       0.00000       A     3.31517e-01     4.13430e-01    ;  uncertainty sigma = 0.000005, epsilon = 0.000547
 c6bf                                   6      0.0000       0.00000       A     3.39759e-01     4.50751e-01    ;  uncertainty sigma = 0.000013, epsilon = 0.001236
 c7bf                                   6      0.0000       0.00000       A     3.31534e-01     4.13256e-01    ;  uncertainty sigma = 0.000033, epsilon = 0.001506
 n8bf                                   7      0.0000       0.00000       A     3.26977e-01     4.89929e-01    ;  uncertainty sigma = 0.000038, epsilon = 0.001227
 c9bf                                   6      0.0000       0.00000       A     3.31566e-01     4.12139e-01    ;  uncertainty sigma = 0.000019, epsilon = 0.000481
 o10bf                                  8      0.0000       0.00000       A     3.04854e-01     6.12416e-01    ;  uncertainty sigma = 0.000011, epsilon = 0.001606
 n11bf                                  7      0.0000       0.00000       A     3.38402e-01     3.92745e-01    ;  uncertainty sigma = 0.000021, epsilon = 0.001055
 c12bf                                  6      0.0000       0.00000       A     3.31507e-01     4.13726e-01    ;  uncertainty sigma = 0.000019, epsilon = 0.001808
 c13bf                                  6      0.0000       0.00000       A     3.31496e-01     4.13013e-01    ;  uncertainty sigma = 0.000032, epsilon = 0.002367
 c14bf                                  6      0.0000       0.00000       A     3.31518e-01     4.13443e-01    ;  uncertainty sigma = 0.000027, epsilon = 0.001034
 c15bf                                  6      0.0000       0.00000       A     3.31542e-01     4.13066e-01    ;  uncertainty sigma = 0.000013, epsilon = 0.002464
 o16bf                                  8      0.0000       0.00000       A     3.15643e-01     3.03037e-01    ;  uncertainty sigma = 0.000024, epsilon = 0.000775
 c17bf                                  6      0.0000       0.00000       A     3.39790e-01     4.50985e-01    ;  uncertainty sigma = 0.000004, epsilon = 0.000762
 o18bf                                  8      0.0000       0.00000       A     3.15605e-01     3.03740e-01    ;  uncertainty sigma = 0.000007, epsilon = 0.000565
 c19bf                                  6      0.0000       0.00000       A     3.39780e-01     4.50985e-01    ;  uncertainty sigma = 0.000005, epsilon = 0.000500
 n20bf                                  7      0.0000       0.00000       A     3.36843e-01     4.68873e-01    ;  uncertainty sigma = 0.000068, epsilon = 0.003219
 c21bf                                  6      0.0000       0.00000       A     3.47912e-01     6.68669e-01    ;  uncertainty sigma = 0.000017, epsilon = 0.001390
 o22bf                                  8      0.0000       0.00000       A     3.15561e-01     3.02797e-01    ;  uncertainty sigma = 0.000038, epsilon = 0.002121
 c23bf                                  6      0.0000       0.00000       A     3.39750e-01     4.50356e-01    ;  uncertainty sigma = 0.000008, epsilon = 0.000857
 c24bf                                  6      0.0000       0.00000       A     3.39820e-01     4.50678e-01    ;  uncertainty sigma = 0.000015, epsilon = 0.001269
 n25bf                                  7      0.0000       0.00000       A     3.27325e-01     4.59401e-01    ;  uncertainty sigma = 0.000040, epsilon = 0.001413
 h26bf                                  1      0.0000       0.00000       A     2.62564e-01     6.70515e-02    ;  uncertainty sigma = 0.000009, epsilon = 0.000380
 h27bf                                  1      0.0000       0.00000       A     2.62560e-01     6.71039e-02    ;  uncertainty sigma = 0.000011, epsilon = 0.000493
 h28bf                                  1      0.0000       0.00000       A     2.62548e-01     6.68678e-02    ;  uncertainty sigma = 0.000027, epsilon = 0.000692
 h29bf                                  1      0.0000       0.00000       A     2.60049e-01     8.69568e-02    ;  uncertainty sigma = 0.000011, epsilon = 0.000450
 h30bf                                  1      0.0000       0.00000       A     2.60049e-01     8.69568e-02    ;  uncertainty sigma = 0.000011, epsilon = 0.000450
 h31bf                                  1      0.0000       0.00000       A     1.10687e-01     4.15498e-02    ;  uncertainty sigma = 0.000117, epsilon = 0.001414
 h32bf                                  1      0.0000       0.00000       A     2.42205e-01     8.67537e-02    ;  uncertainty sigma = 0.000015, epsilon = 0.000623
 h33bf                                  1      0.0000       0.00000       A     2.42205e-01     8.67537e-02    ;  uncertainty sigma = 0.000015, epsilon = 0.000623
 h34bf                                  1      0.0000       0.00000       A     2.42205e-01     8.67537e-02    ;  uncertainty sigma = 0.000015, epsilon = 0.000623
 h35bf                                  1      0.0000       0.00000       A     2.42205e-01     8.67537e-02    ;  uncertainty sigma = 0.000015, epsilon = 0.000623
 h36bf                                  1      0.0000       0.00000       A     2.42205e-01     8.67537e-02    ;  uncertainty sigma = 0.000015, epsilon = 0.000623
 h37bf                                  1      0.0000       0.00000       A     2.42205e-01     8.67537e-02    ;  uncertainty sigma = 0.000015, epsilon = 0.000623
 h38bf                                  1      0.0000       0.00000       A     1.10684e-01     4.11855e-02    ;  uncertainty sigma = 0.000050, epsilon = 0.000660
 h39bf                                  1      0.0000       0.00000       A     1.10684e-01     4.11855e-02    ;  uncertainty sigma = 0.000050, epsilon = 0.000660
 h40bf                                  1      0.0000       0.00000       A     2.42212e-01     8.71841e-02    ;  uncertainty sigma = 0.000023, epsilon = 0.001034
 h41bf                                  1      0.0000       0.00000       A     2.42212e-01     8.71841e-02    ;  uncertainty sigma = 0.000023, epsilon = 0.001034
 h42bf                                  1      0.0000       0.00000       A     2.42166e-01     8.68145e-02    ;  uncertainty sigma = 0.000068, epsilon = 0.000894
 h43bf                                  1      0.0000       0.00000       A     2.42166e-01     8.68145e-02    ;  uncertainty sigma = 0.000068, epsilon = 0.000894
 h44bf                                  1      0.0000       0.00000       A     2.62561e-01     6.71274e-02    ;  uncertainty sigma = 0.000009, epsilon = 0.000422
 s45bf                                 16      0.0000       0.00000       A     4.05834e-01     2.56719e-01    ;  uncertainty sigma = 0.000018, epsilon = 0.001037
 o46bf                                  8      0.0000       0.00000       A     3.04793e-01     6.12426e-01    ;  uncertainty sigma = 0.000024, epsilon = 0.000821
 o47bf                                  8      0.0000       0.00000       A     3.04793e-01     6.12426e-01    ;  uncertainty sigma = 0.000024, epsilon = 0.000821
 c48bf                                  6      0.0000       0.00000       A     3.39782e-01     4.50862e-01    ;  uncertainty sigma = 0.000008, epsilon = 0.000558
 h49bf                                  1      0.0000       0.00000       A     2.42199e-01     8.68148e-02    ;  uncertainty sigma = 0.000022, epsilon = 0.000550
 h50bf                                  1      0.0000       0.00000       A     2.42199e-01     8.68148e-02    ;  uncertainty sigma = 0.000022, epsilon = 0.000550
 h51bf                                  1      0.0000       0.00000       A     2.42199e-01     8.68148e-02    ;  uncertainty sigma = 0.000022, epsilon = 0.000550

[ moleculetype ]
;name             nrexcl
 MOL                   3

[ atoms ]
;       nr            type      resi   res      atom      cgnr      charge          mass ; qtot
         1            c0bf         1   UNL        c0         1    -0.17179       12.0110 ; qtot   -0.172
         2            c1bf         1   UNL        c1         2     0.11416       12.0110 ; qtot   -0.058
         3            c2bf         1   UNL        c2         3    -0.07946       12.0110 ; qtot   -0.137
         4            c3bf         1   UNL        c3         4    -0.14981       12.0110 ; qtot   -0.287
         5            c4bf         1   UNL        c4         5     0.11538       12.0110 ; qtot   -0.172
         6            c5bf         1   UNL        c5         6    -0.16237       12.0110 ; qtot   -0.334
         7            c6bf         1   UNL        c6         7    -0.10373       12.0110 ; qtot   -0.438
         8            c7bf         1   UNL        c7         8     0.68773       12.0110 ; qtot    0.250
         9            n8bf         1   UNL        n8         9    -0.56418       14.0070 ; qtot   -0.314
        10            c9bf         1   UNL        c9        10     0.61630       12.0110 ; qtot    0.302
        11           o10bf         1   UNL       o10        11    -0.56286       15.9990 ; qtot   -0.261
        12           n11bf         1   UNL       n11        12    -0.81134       14.0070 ; qtot   -1.072
        13           c12bf         1   UNL       c12        13     0.74771       12.0110 ; qtot   -0.324
        14           c13bf         1   UNL       c13        14    -0.27194       12.0110 ; qtot   -0.596
        15           c14bf         1   UNL       c14        15     0.29241       12.0110 ; qtot   -0.304
        16           c15bf         1   UNL       c15        16    -0.37328       12.0110 ; qtot   -0.677
        17           o16bf         1   UNL       o16        17    -0.32815       15.9990 ; qtot   -1.005
        18           c17bf         1   UNL       c17        18     0.12090       12.0110 ; qtot   -0.884
        19           o18bf         1   UNL       o18        19    -0.33731       15.9990 ; qtot   -1.222
        20           c19bf         1   UNL       c19        20     0.12101       12.0110 ; qtot   -1.101
        21           n20bf         1   UNL       n20        21    -0.84340       14.0070 ; qtot   -1.944
        22           c21bf         1   UNL       c21        22     0.25799       12.0110 ; qtot   -1.686
        23           o22bf         1   UNL       o22        23    -0.42973       15.9990 ; qtot   -2.116
        24           c23bf         1   UNL       c23        24     0.17949       12.0110 ; qtot   -1.936
        25           c24bf         1   UNL       c24        25    -0.18358       12.0110 ; qtot   -2.120
        26           n25bf         1   UNL       n25        26    -0.37938       14.0070 ; qtot   -2.499
        27           h26bf         1   UNL       h26        27     0.13844        1.0080 ; qtot   -2.361
        28           h27bf         1   UNL       h27        28     0.14837        1.0080 ; qtot   -2.212
        29           h28bf         1   UNL       h28        29     0.17105        1.0080 ; qtot   -2.041
        30           h29bf         1   UNL       h29        30     0.08336        1.0080 ; qtot   -1.958
        31           h30bf         1   UNL       h30        31     0.08336        1.0080 ; qtot   -1.875
        32           h31bf         1   UNL       h31        32     0.34304        1.0080 ; qtot   -1.532
        33           h32bf         1   UNL       h32        33     0.04263        1.0080 ; qtot   -1.489
        34           h33bf         1   UNL       h33        34     0.04263        1.0080 ; qtot   -1.446
        35           h34bf         1   UNL       h34        35     0.04263        1.0080 ; qtot   -1.404
        36           h35bf         1   UNL       h35        36     0.04268        1.0080 ; qtot   -1.361
        37           h36bf         1   UNL       h36        37     0.04268        1.0080 ; qtot   -1.318
        38           h37bf         1   UNL       h37        38     0.04268        1.0080 ; qtot   -1.276
        39           h38bf         1   UNL       h38        39     0.42823        1.0080 ; qtot   -0.847
        40           h39bf         1   UNL       h39        40     0.42823        1.0080 ; qtot   -0.419
        41           h40bf         1   UNL       h40        41     0.07568        1.0080 ; qtot   -0.344
        42           h41bf         1   UNL       h41        42     0.07568        1.0080 ; qtot   -0.268
        43           h42bf         1   UNL       h42        43     0.10939        1.0080 ; qtot   -0.158
        44           h43bf         1   UNL       h43        44     0.10939        1.0080 ; qtot   -0.049
        45           h44bf         1   UNL       h44        45     0.14292        1.0080 ; qtot    0.094
        46           s45bf         1   UNL       s45        46     0.93427       32.0670 ; qtot    1.028
        47           o46bf         1   UNL       o46        47    -0.57536       15.9990 ; qtot    0.453
        48           o47bf         1   UNL       o47        48    -0.57536       15.9990 ; qtot   -0.123
        49           c48bf         1   UNL       c48        49    -0.18670       12.0110 ; qtot   -0.309
        50           h49bf         1   UNL       h49        50     0.10309        1.0080 ; qtot   -0.206
        51           h50bf         1   UNL       h50        51     0.10309        1.0080 ; qtot   -0.103
        52           h51bf         1   UNL       h51        52     0.10313        1.0080 ; qtot    0.000

[ bonds ]
;       ai        aj funct               r               k
         1         2     1        0.139666   349880.947705    ;  uncertainty r = 0.000046, k = 2.889526
         1         6     1        0.139545   370675.381738    ;  uncertainty r = 0.000042, k = 2.422648
         1        27     1        0.108713   337143.369531    ;  uncertainty r = 0.000032, k = 1.213343
         2         3     1        0.140255   341512.462500    ;  uncertainty r = 0.000089, k = 5.723664
         2        19     1        0.137453   321264.956738    ;  uncertainty r = 0.000077, k = 4.573882
         3         4     1        0.139270   348613.745264    ;  uncertainty r = 0.000078, k = 5.383457
         3         7     1        0.150861   229504.198145    ;  uncertainty r = 0.000060, k = 8.710220
         4         5     1        0.139717   360702.731934    ;  uncertainty r = 0.000074, k = 3.540803
         4        28     1        0.108826   335914.140771    ;  uncertainty r = 0.000050, k = 1.953940
         5         6     1        0.139528   365494.464063    ;  uncertainty r = 0.000025, k = 3.373697
         5        17     1        0.136810   320940.660986    ;  uncertainty r = 0.000041, k = 3.898162
         6        45     1        0.108760   337016.041504    ;  uncertainty r = 0.000019, k = 0.913824
         7         8     1        0.152840   200176.373022    ;  uncertainty r = 0.000130, k = 8.396589
         7        30     1        0.109497   313719.200586    ;  uncertainty r = 0.000046, k = 1.713040
         7        31     1        0.109497   313719.200586    ;  uncertainty r = 0.000046, k = 1.713040
         8         9     1        0.139063   380563.733545    ;  uncertainty r = 0.000122, k = 15.522499
         8        11     1        0.123489   716612.965625    ;  uncertainty r = 0.000142, k = 14.631314
         9        10     1        0.141552   453112.388477    ;  uncertainty r = 0.000171, k = 16.995177
         9        32     1        0.102183   460638.685352    ;  uncertainty r = 0.000033, k = 7.805120
        10        12     1        0.136164   462092.717285    ;  uncertainty r = 0.000237, k = 23.302980
        10        16     1        0.140146   393200.644434    ;  uncertainty r = 0.000118, k = 23.611463
        12        13     1        0.133090   364576.353906    ;  uncertainty r = 0.000138, k = 13.266761
        13        14     1        0.141857   371889.620215    ;  uncertainty r = 0.000142, k = 9.280823
        13        23     1        0.134682   307375.399561    ;  uncertainty r = 0.000237, k = 17.836840
        14        15     1        0.142732   398004.430078    ;  uncertainty r = 0.000133, k = 15.342148
        14        22     1        0.142633   330721.450488    ;  uncertainty r = 0.000093, k = 10.220795
        15        16     1        0.141328   422706.092920    ;  uncertainty r = 0.000138, k = 7.904458
        15        21     1        0.139026   371108.056982    ;  uncertainty r = 0.000153, k = 27.823547
        16        29     1        0.108832   343723.618652    ;  uncertainty r = 0.000047, k = 2.764878
        17        18     1        0.141880   253430.682031    ;  uncertainty r = 0.000020, k = 2.394763
        18        33     1        0.109623   311224.888965    ;  uncertainty r = 0.000009, k = 1.869781
        18        34     1        0.109623   311224.888965    ;  uncertainty r = 0.000009, k = 1.869781
        18        35     1        0.109623   311224.888965    ;  uncertainty r = 0.000009, k = 1.869781
        19        20     1        0.142309   248398.364795    ;  uncertainty r = 0.000036, k = 2.413776
        20        36     1        0.109585   311301.704590    ;  uncertainty r = 0.000018, k = 1.291915
        20        37     1        0.109585   311301.704590    ;  uncertainty r = 0.000018, k = 1.291915
        20        38     1        0.109585   311301.704590    ;  uncertainty r = 0.000018, k = 1.291915
        21        39     1        0.101300   420077.839160    ;  uncertainty r = 0.000037, k = 2.878755
        21        40     1        0.101300   420077.839160    ;  uncertainty r = 0.000037, k = 2.878755
        22        26     1        0.116793  1128378.016016    ;  uncertainty r = 0.000033, k = 2.941856
        23        24     1        0.142055   235947.466211    ;  uncertainty r = 0.000137, k = 15.188874
        24        25     1        0.152688   220293.064941    ;  uncertainty r = 0.000143, k = 10.992384
        24        41     1        0.109333   309212.334912    ;  uncertainty r = 0.000049, k = 1.075915
        24        42     1        0.109333   309212.334912    ;  uncertainty r = 0.000049, k = 1.075915
        25        43     1        0.109605   323328.482861    ;  uncertainty r = 0.000023, k = 3.909729
        25        44     1        0.109605   323328.482861    ;  uncertainty r = 0.000023, k = 3.909729
        25        46     1        0.182682   160820.278271    ;  uncertainty r = 0.000080, k = 12.191354
        46        47     1        0.147816   544516.342578    ;  uncertainty r = 0.000013, k = 6.001834
        46        48     1        0.147816   544516.342578    ;  uncertainty r = 0.000013, k = 6.001834
        46        49     1        0.181129   169876.720435    ;  uncertainty r = 0.000083, k = 14.612543
        49        50     1        0.109279   320449.199316    ;  uncertainty r = 0.000012, k = 2.014953
        49        51     1        0.109279   320449.199316    ;  uncertainty r = 0.000012, k = 2.014953
        49        52     1        0.109279   320449.199316    ;  uncertainty r = 0.000012, k = 2.014963

[ angles ]
;       ai        aj        ak funct           theta             cth
         1         2         3     1      123.160233      375.524566    ;  uncertainty theta = 0.004052, k = 0.083369
         1         2        19     1      119.946877      425.641654    ;  uncertainty theta = 0.004809, k = 0.153776
         1         6         5     1      118.972633      517.071879    ;  uncertainty theta = 0.001475, k = 0.055523
         1         6        45     1      120.907822      279.085300    ;  uncertainty theta = 0.001458, k = 0.027339
         2         1         6     1      121.456833      506.214809    ;  uncertainty theta = 0.002575, k = 0.124695
         2         1        27     1      118.048782      264.582792    ;  uncertainty theta = 0.002146, k = 0.041419
         2         3         4     1      121.195862      446.018575    ;  uncertainty theta = 0.004246, k = 0.133684
         2         3         7     1      118.846542      402.795549    ;  uncertainty theta = 0.003417, k = 0.102102
         2        19        20     1      111.008133      510.362866    ;  uncertainty theta = 0.002222, k = 0.042627
         3         2        19     1      116.573891      444.230339    ;  uncertainty theta = 0.003187, k = 0.119023
         3         4         5     1      121.413963      518.367473    ;  uncertainty theta = 0.000415, k = 0.080381
         3         4        28     1      117.744850      267.343784    ;  uncertainty theta = 0.002305, k = 0.084940
         3         7         8     1      111.735863      504.016830    ;  uncertainty theta = 0.003076, k = 0.195870
         3         7        30     1      107.866928      397.072428    ;  uncertainty theta = 0.002336, k = 0.105815
         3         7        31     1      107.866928      397.072428    ;  uncertainty theta = 0.002336, k = 0.105815
         4         3         7     1      120.300499      417.486570    ;  uncertainty theta = 0.002638, k = 0.119692
         4         5         6     1      119.977844      371.557568    ;  uncertainty theta = 0.004606, k = 0.076257
         4         5        17     1      119.231216      421.480669    ;  uncertainty theta = 0.003926, k = 0.086839
         5         4        28     1      119.559647      268.086212    ;  uncertainty theta = 0.003841, k = 0.047179
         5         6        45     1      120.022911      266.332674    ;  uncertainty theta = 0.002018, k = 0.064386
         5        17        18     1      109.715515      515.866368    ;  uncertainty theta = 0.000949, k = 0.064718
         6         1        27     1      119.959557      278.368282    ;  uncertainty theta = 0.002147, k = 0.046205
         6         5        17     1      119.953323      420.906467    ;  uncertainty theta = 0.003631, k = 0.107346
         7         8         9     1      112.034767      504.810332    ;  uncertainty theta = 0.005508, k = 0.092226
         7         8        11     1      125.077797      512.440724    ;  uncertainty theta = 0.003357, k = 0.164776
         8         7        30     1      106.426987      360.312365    ;  uncertainty theta = 0.002126, k = 0.184600
         8         7        31     1      106.426987      360.312365    ;  uncertainty theta = 0.002126, k = 0.184600
         8         9        10     1      120.651833      441.608476    ;  uncertainty theta = 0.003542, k = 0.155802
         8         9        32     1      117.210800      264.588809    ;  uncertainty theta = 0.004813, k = 0.856046
         9         8        11     1      123.519814      778.447003    ;  uncertainty theta = 0.002106, k = 0.093869
         9        10        12     1      120.224754      768.711044    ;  uncertainty theta = 0.005858, k = 0.157945
         9        10        16     1      122.278137      533.311278    ;  uncertainty theta = 0.005250, k = 0.406084
        10         9        32     1      117.066086      336.130415    ;  uncertainty theta = 0.002657, k = 0.114965
        10        12        13     1      118.380737      412.518261    ;  uncertainty theta = 0.010299, k = 0.176969
        10        16        15     1      113.982933      516.057066    ;  uncertainty theta = 0.005279, k = 0.322192
        10        16        29     1      121.581764      266.638242    ;  uncertainty theta = 0.003427, k = 0.119353
        12        10        16     1      123.014938      557.585482    ;  uncertainty theta = 0.009119, k = 0.103918
        12        13        14     1      126.655655      520.343885    ;  uncertainty theta = 0.004800, k = 0.240039
        12        13        23     1      118.453346      603.815502    ;  uncertainty theta = 0.004032, k = 0.183012
        13        14        15     1      121.042648      478.552917    ;  uncertainty theta = 0.002801, k = 0.436926
        13        14        22     1      121.115334      385.304832    ;  uncertainty theta = 0.008986, k = 0.122806
        13        23        24     1      108.952942      497.991094    ;  uncertainty theta = 0.002804, k = 0.075609
        14        13        23     1      116.011429      468.798060    ;  uncertainty theta = 0.004536, k = 0.197660
        14        15        16     1      117.484238      427.730909    ;  uncertainty theta = 0.002903, k = 0.240097
        14        15        21     1      120.585159      576.926586    ;  uncertainty theta = 0.004519, k = 0.090792
        14        22        26     1      180.000000      241.307265    ;  uncertainty theta = 0.000000, k = 0.719628
        15        14        22     1      117.830177      369.460747    ;  uncertainty theta = 0.006627, k = 0.174269
        15        16        29     1      121.593582      279.201047    ;  uncertainty theta = 0.003701, k = 0.115080
        15        21        39     1      113.768478      388.852256    ;  uncertainty theta = 0.002252, k = 0.082774
        15        21        40     1      113.768478      388.852256    ;  uncertainty theta = 0.002252, k = 0.082774
        16        15        21     1      126.082375      568.295682    ;  uncertainty theta = 0.002505, k = 0.080621
        17        18        33     1      108.804565      446.510388    ;  uncertainty theta = 0.001312, k = 0.023917
        17        18        34     1      108.804565      446.510388    ;  uncertainty theta = 0.001312, k = 0.023917
        17        18        35     1      108.804565      446.510388    ;  uncertainty theta = 0.001312, k = 0.023917
        19        20        36     1      108.975418      444.500650    ;  uncertainty theta = 0.001014, k = 0.026124
        19        20        37     1      108.975418      444.500650    ;  uncertainty theta = 0.001014, k = 0.026124
        19        20        38     1      108.975418      444.500650    ;  uncertainty theta = 0.001014, k = 0.026124
        23        24        25     1      107.578049      587.243770    ;  uncertainty theta = 0.003158, k = 0.101972
        23        24        41     1      106.193092      416.567968    ;  uncertainty theta = 0.002834, k = 0.075217
        23        24        42     1      106.193092      416.567968    ;  uncertainty theta = 0.002834, k = 0.075217
        24        25        43     1      109.895035      387.017382    ;  uncertainty theta = 0.001301, k = 0.047040
        24        25        44     1      109.895035      387.017382    ;  uncertainty theta = 0.001301, k = 0.047040
        24        25        46     1      109.077538      498.882403    ;  uncertainty theta = 0.002702, k = 0.116123
        25        24        41     1      109.084229      407.063886    ;  uncertainty theta = 0.001655, k = 0.054146
        25        24        42     1      109.084229      407.063918    ;  uncertainty theta = 0.001655, k = 0.054146
        25        46        47     1      112.178055      703.746425    ;  uncertainty theta = 0.002673, k = 0.031633
        25        46        48     1      112.178055      703.746425    ;  uncertainty theta = 0.002673, k = 0.031633
        25        46        49     1      102.543594      711.520687    ;  uncertainty theta = 0.003467, k = 0.108977
        30         7        31     1      105.787987      310.078477    ;  uncertainty theta = 0.005198, k = 0.039222
        33        18        34     1      109.081810      330.154380    ;  uncertainty theta = 0.001818, k = 0.013784
        33        18        35     1      109.081810      330.154380    ;  uncertainty theta = 0.001818, k = 0.013784
        34        18        35     1      109.081810      330.154380    ;  uncertainty theta = 0.001818, k = 0.013784
        36        20        37     1      109.085159      330.320914    ;  uncertainty theta = 0.001597, k = 0.020763
        36        20        38     1      109.085159      330.320914    ;  uncertainty theta = 0.001597, k = 0.020763
        37        20        38     1      109.085159      330.320914    ;  uncertainty theta = 0.001597, k = 0.020763
        39        21        40     1      107.812782      286.090864    ;  uncertainty theta = 0.005516, k = 0.089415
        41        24        42     1      108.512222      331.060628    ;  uncertainty theta = 0.005435, k = 0.038332
        43        25        44     1      108.309402      303.167273    ;  uncertainty theta = 0.000845, k = 0.044357
        43        25        46     1      106.549728      372.870590    ;  uncertainty theta = 0.002210, k = 0.093057
        44        25        46     1      106.549728      372.870590    ;  uncertainty theta = 0.002210, k = 0.093057
        46        49        50     1      107.029442      364.225002    ;  uncertainty theta = 0.001496, k = 0.075204
        46        49        51     1      107.029442      364.225002    ;  uncertainty theta = 0.001496, k = 0.075204
        46        49        52     1      107.029442      364.225002    ;  uncertainty theta = 0.001496, k = 0.075204
        47        46        48     1      123.212547      865.396455    ;  uncertainty theta = 0.001559, k = 0.071280
        47        46        49     1      112.343979      726.931503    ;  uncertainty theta = 0.002561, k = 0.050120
        48        46        49     1      112.343979      726.931503    ;  uncertainty theta = 0.002561, k = 0.050120
        50        49        51     1      108.670815      297.910108    ;  uncertainty theta = 0.002803, k = 0.031753
        50        49        52     1      108.670815      297.910108    ;  uncertainty theta = 0.002803, k = 0.031753
        51        49        52     1      108.670815      297.910108    ;  uncertainty theta = 0.002803, k = 0.031753

[ dihedrals ] ; propers for gromacs 4.5 or higher, use funct 9
;       ai        aj        ak        al funct           phase               k        pn
         1         2         3         4     9        0.000000       -0.313307         1    ;  uncertainty k = 0.329952
         1         2         3         4     9      180.000000        6.615877         2    ;  uncertainty k = 0.890639
         1         2         3         4     9        0.000000        0.201586         3    ;  uncertainty k = 0.336084
         1         2         3         4     9      180.000000        1.207291         4    ;  uncertainty k = 0.408993
         1         2         3         7     9        0.000000        0.501262         1    ;  uncertainty k = 0.244122
         1         2         3         7     9      180.000000        6.434364         2    ;  uncertainty k = 0.219663
         1         2         3         7     9        0.000000        1.222542         3    ;  uncertainty k = 0.345749
         1         2         3         7     9      180.000000        1.684716         4    ;  uncertainty k = 0.332579
         1         2        19        20     9        0.000000        2.240157         1    ;  uncertainty k = 0.485969
         1         2        19        20     9      180.000000        6.414550         2    ;  uncertainty k = 0.114921
         1         2        19        20     9        0.000000        0.213334         3    ;  uncertainty k = 0.128461
         1         2        19        20     9      180.000000        0.075585         4    ;  uncertainty k = 0.118702
         1         6         5         4     9        0.000000       -0.038460         1    ;  uncertainty k = 0.170023
         1         6         5         4     9      180.000000        9.593012         2    ;  uncertainty k = 0.585701
         1         6         5         4     9        0.000000       -0.200017         3    ;  uncertainty k = 0.411419
         1         6         5         4     9      180.000000        1.110736         4    ;  uncertainty k = 0.351914
         1         6         5        17     9        0.000000        0.039266         1    ;  uncertainty k = 0.291886
         1         6         5        17     9      180.000000       10.482309         2    ;  uncertainty k = 0.635460
         1         6         5        17     9        0.000000        1.151012         3    ;  uncertainty k = 0.310735
         1         6         5        17     9      180.000000        1.622403         4    ;  uncertainty k = 0.159622
         2         1         6         5     9        0.000000       -0.192156         1    ;  uncertainty k = 0.263263
         2         1         6         5     9      180.000000       13.656426         2    ;  uncertainty k = 0.480272
         2         1         6         5     9        0.000000       -0.574996         3    ;  uncertainty k = 0.365071
         2         1         6         5     9      180.000000        0.902367         4    ;  uncertainty k = 0.323361
         2         1         6        45     9        0.000000        0.108054         1    ;  uncertainty k = 0.343256
         2         1         6        45     9      180.000000        7.787158         2    ;  uncertainty k = 0.349720
         2         1         6        45     9        0.000000        1.304014         3    ;  uncertainty k = 0.296800
         2         1         6        45     9      180.000000        1.717698         4    ;  uncertainty k = 0.124448
         2         3         4         5     9        0.000000       -0.169879         1    ;  uncertainty k = 0.202577
         2         3         4         5     9      180.000000       11.553780         2    ;  uncertainty k = 0.271131
         2         3         4         5     9        0.000000        0.112387         3    ;  uncertainty k = 0.216730
         2         3         4         5     9      180.000000        1.130733         4    ;  uncertainty k = 0.237575
         2         3         4        28     9        0.000000        0.211095         1    ;  uncertainty k = 0.163151
         2         3         4        28     9      180.000000        8.663746         2    ;  uncertainty k = 0.372089
         2         3         4        28     9        0.000000        1.293970         3    ;  uncertainty k = 0.362460
         2         3         4        28     9      180.000000        1.633644         4    ;  uncertainty k = 0.076796
         2         3         7         8     9        0.000000        1.868915         1    ;  uncertainty k = 1.029845
         2         3         7         8     9      180.000000        1.813574         2    ;  uncertainty k = 0.500482
         2         3         7         8     9        0.000000        0.458619         3    ;  uncertainty k = 0.168881
         2         3         7         8     9      180.000000        0.273120         4    ;  uncertainty k = 0.071712
         2         3         7        30     9        0.000000       -0.136203         1    ;  uncertainty k = 0.625888
         2         3         7        30     9      180.000000        2.679733         2    ;  uncertainty k = 0.209902
         2         3         7        30     9        0.000000        0.268209         3    ;  uncertainty k = 0.134306
         2         3         7        30     9      180.000000        0.376637         4    ;  uncertainty k = 0.107149
         2         3         7        31     9        0.000000       -0.136203         1    ;  uncertainty k = 0.625888
         2         3         7        31     9      180.000000        2.679733         2    ;  uncertainty k = 0.209902
         2         3         7        31     9        0.000000        0.268209         3    ;  uncertainty k = 0.134306
         2         3         7        31     9      180.000000        0.376637         4    ;  uncertainty k = 0.107149
         2        19        20        36     9        0.000000        1.032026         1    ;  uncertainty k = 0.177840
         2        19        20        36     9      180.000000       -1.929445         2    ;  uncertainty k = 0.122401
         2        19        20        36     9        0.000000        1.014422         3    ;  uncertainty k = 0.063060
         2        19        20        36     9      180.000000        0.262822         4    ;  uncertainty k = 0.065638
         2        19        20        37     9        0.000000        1.032026         1    ;  uncertainty k = 0.177840
         2        19        20        37     9      180.000000       -1.929445         2    ;  uncertainty k = 0.122401
         2        19        20        37     9        0.000000        1.014422         3    ;  uncertainty k = 0.063060
         2        19        20        37     9      180.000000        0.262822         4    ;  uncertainty k = 0.065638
         2        19        20        38     9        0.000000        1.032026         1    ;  uncertainty k = 0.177840
         2        19        20        38     9      180.000000       -1.929445         2    ;  uncertainty k = 0.122401
         2        19        20        38     9        0.000000        1.014422         3    ;  uncertainty k = 0.063060
         2        19        20        38     9      180.000000        0.262822         4    ;  uncertainty k = 0.065638
         3         2         1         6     9        0.000000        0.104430         1    ;  uncertainty k = 0.179155
         3         2         1         6     9      180.000000        8.229735         2    ;  uncertainty k = 0.748504
         3         2         1         6     9        0.000000        0.231757         3    ;  uncertainty k = 0.359495
         3         2         1         6     9      180.000000        1.321013         4    ;  uncertainty k = 0.262701
         3         2         1        27     9        0.000000        0.055090         1    ;  uncertainty k = 0.506793
         3         2         1        27     9      180.000000        5.774529         2    ;  uncertainty k = 0.618928
         3         2         1        27     9        0.000000        1.298589         3    ;  uncertainty k = 0.333373
         3         2         1        27     9      180.000000        1.595338         4    ;  uncertainty k = 0.027941
         3         2        19        20     9        0.000000       -2.216855         1    ;  uncertainty k = 0.863703
         3         2        19        20     9      180.000000        6.664386         2    ;  uncertainty k = 0.160636
         3         2        19        20     9        0.000000        0.574147         3    ;  uncertainty k = 0.241187
         3         2        19        20     9      180.000000        0.249835         4    ;  uncertainty k = 0.148333
         3         4         5         6     9        0.000000        0.017285         1    ;  uncertainty k = 0.392444
         3         4         5         6     9      180.000000        7.751477         2    ;  uncertainty k = 0.788726
         3         4         5         6     9        0.000000        0.033054         3    ;  uncertainty k = 0.449435
         3         4         5         6     9      180.000000        1.303552         4    ;  uncertainty k = 0.363339
         3         4         5        17     9        0.000000        0.017686         1    ;  uncertainty k = 0.239240
         3         4         5        17     9      180.000000        9.728694         2    ;  uncertainty k = 0.656955
         3         4         5        17     9        0.000000        1.169775         3    ;  uncertainty k = 0.429098
         3         4         5        17     9      180.000000        1.631147         4    ;  uncertainty k = 0.144436
         3         7         8         9     9        0.000000       -0.519701         1    ;  uncertainty k = 0.487881
         3         7         8         9     9      180.000000        2.229161         2    ;  uncertainty k = 0.511564
         3         7         8         9     9        0.000000        0.504800         3    ;  uncertainty k = 0.147691
         3         7         8         9     9      180.000000        0.215440         4    ;  uncertainty k = 0.122617
         3         7         8        11     9        0.000000       -1.551533         1    ;  uncertainty k = 0.655412
         3         7         8        11     9      180.000000        4.235919         2    ;  uncertainty k = 0.455563
         3         7         8        11     9        0.000000        0.970618         3    ;  uncertainty k = 0.222723
         3         7         8        11     9      180.000000        0.396385         4    ;  uncertainty k = 0.156298
         4         3         2        19     9        0.000000        0.140824         1    ;  uncertainty k = 0.201806
         4         3         2        19     9      180.000000       10.270904         2    ;  uncertainty k = 0.440953
         4         3         2        19     9        0.000000        1.160342         3    ;  uncertainty k = 0.306694
         4         3         2        19     9      180.000000        1.514066         4    ;  uncertainty k = 0.191655
         4         3         7         8     9        0.000000        0.265725         1    ;  uncertainty k = 0.765369
         4         3         7         8     9      180.000000        1.746136         2    ;  uncertainty k = 0.324269
         4         3         7         8     9        0.000000        0.353315         3    ;  uncertainty k = 0.170519
         4         3         7         8     9      180.000000        0.205800         4    ;  uncertainty k = 0.054233
         4         3         7        30     9        0.000000       -0.237184         1    ;  uncertainty k = 0.585866
         4         3         7        30     9      180.000000        2.362708         2    ;  uncertainty k = 0.333389
         4         3         7        30     9        0.000000        0.307954         3    ;  uncertainty k = 0.118415
         4         3         7        30     9      180.000000        0.206842         4    ;  uncertainty k = 0.053193
         4         3         7        31     9        0.000000       -0.237184         1    ;  uncertainty k = 0.585866
         4         3         7        31     9      180.000000        2.362708         2    ;  uncertainty k = 0.333389
         4         3         7        31     9        0.000000        0.307954         3    ;  uncertainty k = 0.118415
         4         3         7        31     9      180.000000        0.206842         4    ;  uncertainty k = 0.053193
         4         5         6        45     9        0.000000        0.198549         1    ;  uncertainty k = 0.349617
         4         5         6        45     9      180.000000        6.010956         2    ;  uncertainty k = 0.613102
         4         5         6        45     9        0.000000        1.411241         3    ;  uncertainty k = 0.314854
         4         5         6        45     9      180.000000        1.561034         4    ;  uncertainty k = 0.166041
         4         5        17        18     9        0.000000       -0.577313         1    ;  uncertainty k = 0.479647
         4         5        17        18     9      180.000000        7.688099         2    ;  uncertainty k = 0.138351
         4         5        17        18     9        0.000000        0.602797         3    ;  uncertainty k = 0.120660
         4         5        17        18     9      180.000000        0.303757         4    ;  uncertainty k = 0.032820
         5         4         3         7     9        0.000000        0.133385         1    ;  uncertainty k = 0.268375
         5         4         3         7     9      180.000000        9.726278         2    ;  uncertainty k = 0.476925
         5         4         3         7     9        0.000000        1.421746         3    ;  uncertainty k = 0.226414
         5         4         3         7     9      180.000000        1.819818         4    ;  uncertainty k = 0.174981
         5         6         1        27     9        0.000000        0.043942         1    ;  uncertainty k = 0.157370
         5         6         1        27     9      180.000000        7.948475         2    ;  uncertainty k = 0.215068
         5         6         1        27     9        0.000000        1.277126         3    ;  uncertainty k = 0.323398
         5         6         1        27     9      180.000000        1.725767         4    ;  uncertainty k = 0.111116
         5        17        18        33     9        0.000000        0.710162         1    ;  uncertainty k = 0.235351
         5        17        18        33     9      180.000000       -1.403497         2    ;  uncertainty k = 0.099387
         5        17        18        33     9        0.000000        0.951511         3    ;  uncertainty k = 0.048104
         5        17        18        33     9      180.000000        0.290446         4    ;  uncertainty k = 0.057567
         5        17        18        34     9        0.000000        0.710162         1    ;  uncertainty k = 0.235351
         5        17        18        34     9      180.000000       -1.403497         2    ;  uncertainty k = 0.099387
         5        17        18        34     9        0.000000        0.951511         3    ;  uncertainty k = 0.048104
         5        17        18        34     9      180.000000        0.290446         4    ;  uncertainty k = 0.057567
         5        17        18        35     9        0.000000        0.710162         1    ;  uncertainty k = 0.235351
         5        17        18        35     9      180.000000       -1.403497         2    ;  uncertainty k = 0.099387
         5        17        18        35     9        0.000000        0.951511         3    ;  uncertainty k = 0.048104
         5        17        18        35     9      180.000000        0.290446         4    ;  uncertainty k = 0.057567
         6         1         2        19     9        0.000000        0.051091         1    ;  uncertainty k = 0.304549
         6         1         2        19     9      180.000000       11.276249         2    ;  uncertainty k = 0.223928
         6         1         2        19     9        0.000000        1.251241         3    ;  uncertainty k = 0.272903
         6         1         2        19     9      180.000000        1.672115         4    ;  uncertainty k = 0.142326
         6         5         4        28     9        0.000000        0.135949         1    ;  uncertainty k = 0.233843
         6         5         4        28     9      180.000000        6.014208         2    ;  uncertainty k = 0.447228
         6         5         4        28     9        0.000000        1.400187         3    ;  uncertainty k = 0.304689
         6         5         4        28     9      180.000000        1.585229         4    ;  uncertainty k = 0.150466
         6         5        17        18     9        0.000000        0.557263         1    ;  uncertainty k = 0.501664
         6         5        17        18     9      180.000000        7.185178         2    ;  uncertainty k = 0.100535
         6         5        17        18     9        0.000000        0.636562         3    ;  uncertainty k = 0.091658
         6         5        17        18     9      180.000000        0.315041         4    ;  uncertainty k = 0.035073
         7         3         2        19     9        0.000000       -0.053774         1    ;  uncertainty k = 0.480125
         7         3         2        19     9      180.000000       11.665218         2    ;  uncertainty k = 0.487798
         7         3         2        19     9        0.000000        0.851230         3    ;  uncertainty k = 0.389255
         7         3         2        19     9      180.000000        1.323201         4    ;  uncertainty k = 0.252774
         7         3         4        28     9        0.000000       -0.230475         1    ;  uncertainty k = 0.277148
         7         3         4        28     9      180.000000        7.536753         2    ;  uncertainty k = 0.401690
         7         3         4        28     9        0.000000        0.644157         3    ;  uncertainty k = 0.424240
         7         3         4        28     9      180.000000        1.202391         4    ;  uncertainty k = 0.310741
         7         8         9        10     9        0.000000        4.671022         1    ;  uncertainty k = 0.699799
         7         8         9        10     9      180.000000        7.623967         2    ;  uncertainty k = 0.302874
         7         8         9        10     9        0.000000        0.817724         3    ;  uncertainty k = 0.357680
         7         8         9        10     9      180.000000       -0.182306         4    ;  uncertainty k = 0.241602
         7         8         9        32     9        0.000000        0.853657         1    ;  uncertainty k = 0.505894
         7         8         9        32     9      180.000000        5.539233         2    ;  uncertainty k = 0.534867
         7         8         9        32     9        0.000000        1.662963         3    ;  uncertainty k = 0.189506
         7         8         9        32     9      180.000000        0.023894         4    ;  uncertainty k = 0.271248
         8         9        10        12     9        0.000000        2.036595         1    ;  uncertainty k = 1.243319
         8         9        10        12     9      180.000000        7.082785         2    ;  uncertainty k = 0.367231
         8         9        10        12     9        0.000000        0.897247         3    ;  uncertainty k = 0.195168
         8         9        10        12     9      180.000000       -0.256758         4    ;  uncertainty k = 0.225803
         8         9        10        16     9        0.000000       -0.263671         1    ;  uncertainty k = 1.359134
         8         9        10        16     9      180.000000        5.560786         2    ;  uncertainty k = 0.239106
         8         9        10        16     9        0.000000        0.536590         3    ;  uncertainty k = 0.116520
         8         9        10        16     9      180.000000       -0.243126         4    ;  uncertainty k = 0.185800
         9         8         7        30     9        0.000000       -1.164087         1    ;  uncertainty k = 0.303850
         9         8         7        30     9      180.000000        2.838964         2    ;  uncertainty k = 0.369025
         9         8         7        30     9        0.000000        0.221109         3    ;  uncertainty k = 0.093496
         9         8         7        30     9      180.000000        0.066060         4    ;  uncertainty k = 0.106536
         9         8         7        31     9        0.000000       -1.164087         1    ;  uncertainty k = 0.303850
         9         8         7        31     9      180.000000        2.838964         2    ;  uncertainty k = 0.369025
         9         8         7        31     9        0.000000        0.221109         3    ;  uncertainty k = 0.093496
         9         8         7        31     9      180.000000        0.066060         4    ;  uncertainty k = 0.106536
         9        10        12        13     9        0.000000       -0.265586         1    ;  uncertainty k = 0.832819
         9        10        12        13     9      180.000000       14.311353         2    ;  uncertainty k = 0.324895
         9        10        12        13     9        0.000000        1.985999         3    ;  uncertainty k = 0.558170
         9        10        12        13     9      180.000000        1.638692         4    ;  uncertainty k = 0.533386
         9        10        16        15     9        0.000000        0.126116         1    ;  uncertainty k = 0.694904
         9        10        16        15     9      180.000000       10.311010         2    ;  uncertainty k = 0.354821
         9        10        16        15     9        0.000000        1.009975         3    ;  uncertainty k = 0.371826
         9        10        16        15     9      180.000000        1.171697         4    ;  uncertainty k = 0.312850
         9        10        16        29     9        0.000000       -0.283095         1    ;  uncertainty k = 0.411758
         9        10        16        29     9      180.000000        7.046675         2    ;  uncertainty k = 0.484512
         9        10        16        29     9        0.000000        1.005820         3    ;  uncertainty k = 0.162759
         9        10        16        29     9      180.000000        0.948056         4    ;  uncertainty k = 0.400045
        10         9         8        11     9        0.000000        4.133006         1    ;  uncertainty k = 0.494385
        10         9         8        11     9      180.000000       17.191458         2    ;  uncertainty k = 0.239049
        10         9         8        11     9        0.000000        0.572943         3    ;  uncertainty k = 0.140968
        10         9         8        11     9      180.000000       -1.289237         4    ;  uncertainty k = 0.196962
        10        12        13        14     9        0.000000       -0.137483         1    ;  uncertainty k = 0.702747
        10        12        13        14     9      180.000000       10.045553         2    ;  uncertainty k = 0.364026
        10        12        13        14     9        0.000000        1.559110         3    ;  uncertainty k = 0.521788
        10        12        13        14     9      180.000000        1.217123         4    ;  uncertainty k = 0.421450
        10        12        13        23     9        0.000000        0.373944         1    ;  uncertainty k = 1.183171
        10        12        13        23     9      180.000000       14.656609         2    ;  uncertainty k = 0.314803
        10        12        13        23     9        0.000000        2.414207         3    ;  uncertainty k = 0.519250
        10        12        13        23     9      180.000000        1.545298         4    ;  uncertainty k = 0.195586
        10        16        15        14     9        0.000000       -0.073776         1    ;  uncertainty k = 0.309551
        10        16        15        14     9      180.000000        7.996001         2    ;  uncertainty k = 0.986235
        10        16        15        14     9        0.000000        0.157134         3    ;  uncertainty k = 0.423554
        10        16        15        14     9      180.000000        1.240112         4    ;  uncertainty k = 0.344697
        10        16        15        21     9        0.000000       -0.330766         1    ;  uncertainty k = 0.831441
        10        16        15        21     9      180.000000        9.847893         2    ;  uncertainty k = 0.474596
        10        16        15        21     9        0.000000        0.856731         3    ;  uncertainty k = 0.349573
        10        16        15        21     9      180.000000        1.151218         4    ;  uncertainty k = 0.263543
        11         8         7        30     9        0.000000        0.080447         1    ;  uncertainty k = 0.268892
        11         8         7        30     9      180.000000        4.122898         2    ;  uncertainty k = 0.315571
        11         8         7        30     9        0.000000        0.598180         3    ;  uncertainty k = 0.096513
        11         8         7        30     9      180.000000        0.296107         4    ;  uncertainty k = 0.068140
        11         8         7        31     9        0.000000        0.080447         1    ;  uncertainty k = 0.268892
        11         8         7        31     9      180.000000        4.122898         2    ;  uncertainty k = 0.315571
        11         8         7        31     9        0.000000        0.598180         3    ;  uncertainty k = 0.096513
        11         8         7        31     9      180.000000        0.296107         4    ;  uncertainty k = 0.068140
        11         8         9        32     9        0.000000        2.750074         1    ;  uncertainty k = 0.897579
        11         8         9        32     9      180.000000       14.049828         2    ;  uncertainty k = 0.278745
        11         8         9        32     9        0.000000        1.102512         3    ;  uncertainty k = 0.141275
        11         8         9        32     9      180.000000       -0.359929         4    ;  uncertainty k = 0.195301
        12        10         9        32     9        0.000000        7.193412         1    ;  uncertainty k = 0.462281
        12        10         9        32     9      180.000000        5.163654         2    ;  uncertainty k = 0.593263
        12        10         9        32     9        0.000000        0.023637         3    ;  uncertainty k = 0.285850
        12        10         9        32     9      180.000000        0.083833         4    ;  uncertainty k = 0.229426
        12        10        16        15     9        0.000000       -0.104497         1    ;  uncertainty k = 0.398292
        12        10        16        15     9      180.000000       11.295169         2    ;  uncertainty k = 0.714584
        12        10        16        15     9        0.000000       -0.676779         3    ;  uncertainty k = 0.671303
        12        10        16        15     9      180.000000        1.074034         4    ;  uncertainty k = 0.238313
        12        10        16        29     9        0.000000        0.361026         1    ;  uncertainty k = 0.745384
        12        10        16        29     9      180.000000        8.722461         2    ;  uncertainty k = 0.756875
        12        10        16        29     9        0.000000        1.235261         3    ;  uncertainty k = 0.310839
        12        10        16        29     9      180.000000        1.393341         4    ;  uncertainty k = 0.262392
        12        13        14        15     9        0.000000       -0.259395         1    ;  uncertainty k = 0.558089
        12        13        14        15     9      180.000000        6.846059         2    ;  uncertainty k = 0.989277
        12        13        14        15     9        0.000000       -0.189241         3    ;  uncertainty k = 0.215069
        12        13        14        15     9      180.000000        0.981803         4    ;  uncertainty k = 0.312751
        12        13        14        22     9        0.000000       -0.302327         1    ;  uncertainty k = 0.720648
        12        13        14        22     9      180.000000        8.910879         2    ;  uncertainty k = 0.962405
        12        13        14        22     9        0.000000        0.774761         3    ;  uncertainty k = 0.385704
        12        13        14        22     9      180.000000        1.003016         4    ;  uncertainty k = 0.434471
        12        13        23        24     9        0.000000        4.723602         1    ;  uncertainty k = 0.572274
        12        13        23        24     9      180.000000       10.861103         2    ;  uncertainty k = 0.073281
        12        13        23        24     9        0.000000        0.341309         3    ;  uncertainty k = 0.274555
        12        13        23        24     9      180.000000        0.173751         4    ;  uncertainty k = 0.081461
        13        12        10        16     9        0.000000       -0.332641         1    ;  uncertainty k = 1.220761
        13        12        10        16     9      180.000000       11.257947         2    ;  uncertainty k = 0.432394
        13        12        10        16     9        0.000000        1.022693         3    ;  uncertainty k = 0.427333
        13        12        10        16     9      180.000000        1.240554         4    ;  uncertainty k = 0.448025
        13        14        15        16     9        0.000000       -0.078716         1    ;  uncertainty k = 0.584112
        13        14        15        16     9      180.000000        6.236994         2    ;  uncertainty k = 1.268425
        13        14        15        16     9        0.000000        0.403185         3    ;  uncertainty k = 0.352999
        13        14        15        16     9      180.000000        1.231468         4    ;  uncertainty k = 0.261903
        13        14        15        21     9        0.000000       -0.740606         1    ;  uncertainty k = 0.559893
        13        14        15        21     9      180.000000        8.679794         2    ;  uncertainty k = 0.770832
        13        14        15        21     9        0.000000        0.740314         3    ;  uncertainty k = 0.177098
        13        14        15        21     9      180.000000        1.171785         4    ;  uncertainty k = 0.400040
        13        14        22        26     9        0.000000        0.000000         1    ;  uncertainty k = 0.000000
        13        14        22        26     9      180.000000        0.000000         2    ;  uncertainty k = 0.000000
        13        14        22        26     9        0.000000        0.000000         3    ;  uncertainty k = 0.000000
        13        14        22        26     9      180.000000        0.000000         4    ;  uncertainty k = 0.000000
        13        23        24        25     9        0.000000       -5.423253         1    ;  uncertainty k = 0.749520
        13        23        24        25     9      180.000000        0.762195         2    ;  uncertainty k = 0.495845
        13        23        24        25     9        0.000000       -0.311533         3    ;  uncertainty k = 0.171927
        13        23        24        25     9      180.000000        0.911967         4    ;  uncertainty k = 0.203617
        13        23        24        41     9        0.000000        2.284849         1    ;  uncertainty k = 0.665342
        13        23        24        41     9      180.000000        0.037489         2    ;  uncertainty k = 0.548854
        13        23        24        41     9        0.000000        0.049157         3    ;  uncertainty k = 0.044585
        13        23        24        41     9      180.000000        0.369383         4    ;  uncertainty k = 0.078226
        13        23        24        42     9        0.000000        2.284849         1    ;  uncertainty k = 0.665342
        13        23        24        42     9      180.000000        0.037489         2    ;  uncertainty k = 0.548854
        13        23        24        42     9        0.000000        0.049157         3    ;  uncertainty k = 0.044585
        13        23        24        42     9      180.000000        0.369383         4    ;  uncertainty k = 0.078226
        14        13        23        24     9        0.000000        0.895935         1    ;  uncertainty k = 1.126847
        14        13        23        24     9      180.000000        8.270354         2    ;  uncertainty k = 0.644870
        14        13        23        24     9        0.000000        0.170255         3    ;  uncertainty k = 0.555072
        14        13        23        24     9      180.000000        0.021124         4    ;  uncertainty k = 0.164199
        14        15        16        29     9        0.000000        0.248056         1    ;  uncertainty k = 0.958381
        14        15        16        29     9      180.000000        6.811149         2    ;  uncertainty k = 0.465255
        14        15        16        29     9        0.000000        1.363311         3    ;  uncertainty k = 0.334370
        14        15        16        29     9      180.000000        1.320741         4    ;  uncertainty k = 0.267576
        14        15        21        39     9        0.000000       16.179241         1    ;  uncertainty k = 0.226508
        14        15        21        39     9      180.000000        8.686178         2    ;  uncertainty k = 0.232167
        14        15        21        39     9        0.000000        0.910135         3    ;  uncertainty k = 0.213786
        14        15        21        39     9      180.000000       -0.131487         4    ;  uncertainty k = 0.109493
        14        15        21        40     9        0.000000       16.179241         1    ;  uncertainty k = 0.226508
        14        15        21        40     9      180.000000        8.686178         2    ;  uncertainty k = 0.232167
        14        15        21        40     9        0.000000        0.910135         3    ;  uncertainty k = 0.213786
        14        15        21        40     9      180.000000       -0.131487         4    ;  uncertainty k = 0.109493
        15        14        13        23     9        0.000000        0.086979         1    ;  uncertainty k = 0.673381
        15        14        13        23     9      180.000000        6.651426         2    ;  uncertainty k = 0.700467
        15        14        13        23     9        0.000000        1.096183         3    ;  uncertainty k = 0.347829
        15        14        13        23     9      180.000000        1.147380         4    ;  uncertainty k = 0.440043
        15        14        22        26     9        0.000000        0.000000         1    ;  uncertainty k = 0.000000
        15        14        22        26     9      180.000000        0.000000         2    ;  uncertainty k = 0.000000
        15        14        22        26     9        0.000000        0.000000         3    ;  uncertainty k = 0.000000
        15        14        22        26     9      180.000000        0.000000         4    ;  uncertainty k = 0.000000
        16        10         9        32     9        0.000000        0.996703         1    ;  uncertainty k = 1.088402
        16        10         9        32     9      180.000000        5.158411         2    ;  uncertainty k = 0.639236
        16        10         9        32     9        0.000000        1.415645         3    ;  uncertainty k = 0.264055
        16        10         9        32     9      180.000000        0.157366         4    ;  uncertainty k = 0.160041
        16        15        14        22     9        0.000000        0.118231         1    ;  uncertainty k = 0.663075
        16        15        14        22     9      180.000000        7.761016         2    ;  uncertainty k = 0.752747
        16        15        14        22     9        0.000000        0.963725         3    ;  uncertainty k = 0.321347
        16        15        14        22     9      180.000000        1.184081         4    ;  uncertainty k = 0.547084
        16        15        21        39     9        0.000000       10.150943         1    ;  uncertainty k = 0.373654
        16        15        21        39     9      180.000000        9.585958         2    ;  uncertainty k = 0.358657
        16        15        21        39     9        0.000000        0.834747         3    ;  uncertainty k = 0.211714
        16        15        21        39     9      180.000000       -0.348757         4    ;  uncertainty k = 0.221362
        16        15        21        40     9        0.000000       10.150943         1    ;  uncertainty k = 0.373654
        16        15        21        40     9      180.000000        9.585958         2    ;  uncertainty k = 0.358657
        16        15        21        40     9        0.000000        0.834747         3    ;  uncertainty k = 0.211714
        16        15        21        40     9      180.000000       -0.348757         4    ;  uncertainty k = 0.221362
        17         5         4        28     9        0.000000       -0.217637         1    ;  uncertainty k = 0.395675
        17         5         4        28     9      180.000000        8.231337         2    ;  uncertainty k = 0.288433
        17         5         4        28     9        0.000000        0.720669         3    ;  uncertainty k = 0.153600
        17         5         4        28     9      180.000000        1.020951         4    ;  uncertainty k = 0.232153
        17         5         6        45     9        0.000000       -0.163687         1    ;  uncertainty k = 0.245435
        17         5         6        45     9      180.000000        8.176866         2    ;  uncertainty k = 0.245809
        17         5         6        45     9        0.000000        0.694416         3    ;  uncertainty k = 0.142503
        17         5         6        45     9      180.000000        0.994854         4    ;  uncertainty k = 0.214061
        19         2         1        27     9        0.000000       -0.138793         1    ;  uncertainty k = 0.270432
        19         2         1        27     9      180.000000        8.865509         2    ;  uncertainty k = 0.294405
        19         2         1        27     9        0.000000        0.783461         3    ;  uncertainty k = 0.161358
        19         2         1        27     9      180.000000        1.201531         4    ;  uncertainty k = 0.260783
        21        15        14        22     9        0.000000       -0.379135         1    ;  uncertainty k = 0.501361
        21        15        14        22     9      180.000000       10.387938         2    ;  uncertainty k = 0.380197
        21        15        14        22     9        0.000000        0.811351         3    ;  uncertainty k = 0.545627
        21        15        14        22     9      180.000000        0.962118         4    ;  uncertainty k = 0.290345
        21        15        16        29     9        0.000000       -0.546000         1    ;  uncertainty k = 0.474114
        21        15        16        29     9      180.000000        7.797048         2    ;  uncertainty k = 0.566356
        21        15        16        29     9        0.000000        0.717830         3    ;  uncertainty k = 0.278527
        21        15        16        29     9      180.000000        0.908902         4    ;  uncertainty k = 0.384357
        22        14        13        23     9        0.000000       -0.549428         1    ;  uncertainty k = 0.483871
        22        14        13        23     9      180.000000        9.542601         2    ;  uncertainty k = 0.954552
        22        14        13        23     9        0.000000        0.851449         3    ;  uncertainty k = 0.491221
        22        14        13        23     9      180.000000        0.920034         4    ;  uncertainty k = 0.447010
        23        24        25        43     9        0.000000       -0.174320         1    ;  uncertainty k = 0.610227
        23        24        25        43     9      180.000000       -1.733819         2    ;  uncertainty k = 0.280836
        23        24        25        43     9        0.000000        1.114217         3    ;  uncertainty k = 0.195244
        23        24        25        43     9      180.000000       -0.040274         4    ;  uncertainty k = 0.094124
        23        24        25        44     9        0.000000       -0.174320         1    ;  uncertainty k = 0.610227
        23        24        25        44     9      180.000000       -1.733819         2    ;  uncertainty k = 0.280836
        23        24        25        44     9        0.000000        1.114217         3    ;  uncertainty k = 0.195244
        23        24        25        44     9      180.000000       -0.040274         4    ;  uncertainty k = 0.094124
        23        24        25        46     9        0.000000       -6.360096         1    ;  uncertainty k = 1.281784
        23        24        25        46     9      180.000000       -4.380455         2    ;  uncertainty k = 1.062989
        23        24        25        46     9        0.000000        0.620261         3    ;  uncertainty k = 0.173354
        23        24        25        46     9      180.000000        0.319328         4    ;  uncertainty k = 0.103838
        24        25        46        47     9        0.000000       -4.921116         1    ;  uncertainty k = 0.854859
        24        25        46        47     9      180.000000        1.655532         2    ;  uncertainty k = 0.271246
        24        25        46        47     9        0.000000        0.403695         3    ;  uncertainty k = 0.089351
        24        25        46        47     9      180.000000       -0.288407         4    ;  uncertainty k = 0.094604
        24        25        46        48     9        0.000000       -4.921116         1    ;  uncertainty k = 0.854859
        24        25        46        48     9      180.000000        1.655532         2    ;  uncertainty k = 0.271246
        24        25        46        48     9        0.000000        0.403695         3    ;  uncertainty k = 0.089351
        24        25        46        48     9      180.000000       -0.288407         4    ;  uncertainty k = 0.094604
        24        25        46        49     9        0.000000       -4.860712         1    ;  uncertainty k = 0.725062
        24        25        46        49     9      180.000000       -0.145968         2    ;  uncertainty k = 0.220658
        24        25        46        49     9        0.000000        0.177134         3    ;  uncertainty k = 0.164575
        24        25        46        49     9      180.000000       -0.120189         4    ;  uncertainty k = 0.172948
        25        46        49        50     9        0.000000        0.647732         1    ;  uncertainty k = 0.360724
        25        46        49        50     9      180.000000       -2.277956         2    ;  uncertainty k = 0.346995
        25        46        49        50     9        0.000000        0.159700         3    ;  uncertainty k = 0.080223
        25        46        49        50     9      180.000000       -0.184350         4    ;  uncertainty k = 0.166048
        25        46        49        51     9        0.000000        0.647732         1    ;  uncertainty k = 0.360724
        25        46        49        51     9      180.000000       -2.277956         2    ;  uncertainty k = 0.346995
        25        46        49        51     9        0.000000        0.159700         3    ;  uncertainty k = 0.080223
        25        46        49        51     9      180.000000       -0.184350         4    ;  uncertainty k = 0.166048
        25        46        49        52     9        0.000000        0.647732         1    ;  uncertainty k = 0.360724
        25        46        49        52     9      180.000000       -2.277956         2    ;  uncertainty k = 0.346995
        25        46        49        52     9        0.000000        0.159700         3    ;  uncertainty k = 0.080223
        25        46        49        52     9      180.000000       -0.184350         4    ;  uncertainty k = 0.166048
        27         1         6        45     9        0.000000       -0.117554         1    ;  uncertainty k = 0.434908
        27         1         6        45     9      180.000000        7.313795         2    ;  uncertainty k = 0.452189
        27         1         6        45     9        0.000000       -0.331157         3    ;  uncertainty k = 0.229369
        27         1         6        45     9      180.000000        0.142381         4    ;  uncertainty k = 0.186995
        41        24        25        43     9        0.000000        0.202626         1    ;  uncertainty k = 0.146170
        41        24        25        43     9      180.000000       -0.690757         2    ;  uncertainty k = 0.479900
        41        24        25        43     9        0.000000        0.340152         3    ;  uncertainty k = 0.057885
        41        24        25        43     9      180.000000        0.096068         4    ;  uncertainty k = 0.100663
        41        24        25        44     9        0.000000        0.202626         1    ;  uncertainty k = 0.146170
        41        24        25        44     9      180.000000       -0.690757         2    ;  uncertainty k = 0.479900
        41        24        25        44     9        0.000000        0.340152         3    ;  uncertainty k = 0.057885
        41        24        25        44     9      180.000000        0.096068         4    ;  uncertainty k = 0.100663
        41        24        25        46     9        0.000000        2.404569         1    ;  uncertainty k = 0.759440
        41        24        25        46     9      180.000000       -1.474823         2    ;  uncertainty k = 0.172396
        41        24        25        46     9        0.000000        0.322008         3    ;  uncertainty k = 0.145207
        41        24        25        46     9      180.000000       -0.225223         4    ;  uncertainty k = 0.139792
        42        24        25        43     9        0.000000        0.202626         1    ;  uncertainty k = 0.146170
        42        24        25        43     9      180.000000       -0.690757         2    ;  uncertainty k = 0.479900
        42        24        25        43     9        0.000000        0.340152         3    ;  uncertainty k = 0.057885
        42        24        25        43     9      180.000000        0.096068         4    ;  uncertainty k = 0.100663
        42        24        25        44     9        0.000000        0.202626         1    ;  uncertainty k = 0.146170
        42        24        25        44     9      180.000000       -0.690757         2    ;  uncertainty k = 0.479900
        42        24        25        44     9        0.000000        0.340152         3    ;  uncertainty k = 0.057885
        42        24        25        44     9      180.000000        0.096068         4    ;  uncertainty k = 0.100663
        42        24        25        46     9        0.000000        2.404569         1    ;  uncertainty k = 0.759440
        42        24        25        46     9      180.000000       -1.474823         2    ;  uncertainty k = 0.172396
        42        24        25        46     9        0.000000        0.322008         3    ;  uncertainty k = 0.145207
        42        24        25        46     9      180.000000       -0.225223         4    ;  uncertainty k = 0.139792
        43        25        46        47     9        0.000000        0.396702         1    ;  uncertainty k = 0.159480
        43        25        46        47     9      180.000000       -0.082682         2    ;  uncertainty k = 0.127736
        43        25        46        47     9        0.000000        0.398538         3    ;  uncertainty k = 0.033870
        43        25        46        47     9      180.000000        0.154685         4    ;  uncertainty k = 0.054141
        43        25        46        48     9        0.000000        0.396702         1    ;  uncertainty k = 0.159480
        43        25        46        48     9      180.000000       -0.082682         2    ;  uncertainty k = 0.127736
        43        25        46        48     9        0.000000        0.398538         3    ;  uncertainty k = 0.033870
        43        25        46        48     9      180.000000        0.154685         4    ;  uncertainty k = 0.054141
        43        25        46        49     9        0.000000        1.088293         1    ;  uncertainty k = 0.366355
        43        25        46        49     9      180.000000       -1.966850         2    ;  uncertainty k = 0.325848
        43        25        46        49     9        0.000000        0.093272         3    ;  uncertainty k = 0.101166
        43        25        46        49     9      180.000000       -0.089846         4    ;  uncertainty k = 0.079331
        44        25        46        47     9        0.000000        0.396702         1    ;  uncertainty k = 0.159480
        44        25        46        47     9      180.000000       -0.082682         2    ;  uncertainty k = 0.127736
        44        25        46        47     9        0.000000        0.398538         3    ;  uncertainty k = 0.033870
        44        25        46        47     9      180.000000        0.154685         4    ;  uncertainty k = 0.054141
        44        25        46        48     9        0.000000        0.396702         1    ;  uncertainty k = 0.159480
        44        25        46        48     9      180.000000       -0.082682         2    ;  uncertainty k = 0.127736
        44        25        46        48     9        0.000000        0.398538         3    ;  uncertainty k = 0.033870
        44        25        46        48     9      180.000000        0.154685         4    ;  uncertainty k = 0.054141
        44        25        46        49     9        0.000000        1.088293         1    ;  uncertainty k = 0.366355
        44        25        46        49     9      180.000000       -1.966850         2    ;  uncertainty k = 0.325848
        44        25        46        49     9        0.000000        0.093272         3    ;  uncertainty k = 0.101166
        44        25        46        49     9      180.000000       -0.089846         4    ;  uncertainty k = 0.079331
        47        46        49        50     9        0.000000       -0.052833         1    ;  uncertainty k = 0.711759
        47        46        49        50     9      180.000000       -0.356663         2    ;  uncertainty k = 0.456728
        47        46        49        50     9        0.000000        0.717044         3    ;  uncertainty k = 0.080865
        47        46        49        50     9      180.000000        0.089077         4    ;  uncertainty k = 0.068540
        47        46        49        51     9        0.000000       -0.052833         1    ;  uncertainty k = 0.711759
        47        46        49        51     9      180.000000       -0.356663         2    ;  uncertainty k = 0.456728
        47        46        49        51     9        0.000000        0.717044         3    ;  uncertainty k = 0.080865
        47        46        49        51     9      180.000000        0.089077         4    ;  uncertainty k = 0.068540
        47        46        49        52     9        0.000000       -0.052833         1    ;  uncertainty k = 0.711759
        47        46        49        52     9      180.000000       -0.356663         2    ;  uncertainty k = 0.456728
        47        46        49        52     9        0.000000        0.717044         3    ;  uncertainty k = 0.080865
        47        46        49        52     9      180.000000        0.089077         4    ;  uncertainty k = 0.068540
        48        46        49        50     9        0.000000       -0.052833         1    ;  uncertainty k = 0.711759
        48        46        49        50     9      180.000000       -0.356663         2    ;  uncertainty k = 0.456728
        48        46        49        50     9        0.000000        0.717044         3    ;  uncertainty k = 0.080865
        48        46        49        50     9      180.000000        0.089077         4    ;  uncertainty k = 0.068540
        48        46        49        51     9        0.000000       -0.052833         1    ;  uncertainty k = 0.711759
        48        46        49        51     9      180.000000       -0.356663         2    ;  uncertainty k = 0.456728
        48        46        49        51     9        0.000000        0.717044         3    ;  uncertainty k = 0.080865
        48        46        49        51     9      180.000000        0.089077         4    ;  uncertainty k = 0.068540
        48        46        49        52     9        0.000000       -0.052833         1    ;  uncertainty k = 0.711759
        48        46        49        52     9      180.000000       -0.356663         2    ;  uncertainty k = 0.456728
        48        46        49        52     9        0.000000        0.717044         3    ;  uncertainty k = 0.080865
        48        46        49        52     9      180.000000        0.089077         4    ;  uncertainty k = 0.068540

[ dihedrals ] ; impropers
;       ai        aj        ak        al funct           phase               k        pn
         1         2         6        27     4      180.000000        3.034433         2    ;  uncertainty k = 0.185872
         1         6        27         2     4      180.000000        3.034433         2    ;  uncertainty k = 0.185872
         1        27         2         6     4      180.000000        3.034433         2    ;  uncertainty k = 0.185872
         2         1         3        19     4      180.000000       17.527307         2    ;  uncertainty k = 0.115717
         2         3        19         1     4      180.000000       17.527307         2    ;  uncertainty k = 0.115717
         2        19         1         3     4      180.000000       17.527307         2    ;  uncertainty k = 0.115717
         3         2         4         7     4      180.000000       12.075307         2    ;  uncertainty k = 0.141221
         3         4         7         2     4      180.000000       12.075307         2    ;  uncertainty k = 0.141221
         3         7         2         4     4      180.000000       12.075307         2    ;  uncertainty k = 0.141221
         4         3         5        28     4      180.000000        3.046202         2    ;  uncertainty k = 0.214017
         4         5        28         3     4      180.000000        3.046202         2    ;  uncertainty k = 0.214017
         4        28         3         5     4      180.000000        3.046202         2    ;  uncertainty k = 0.214017
         5         4         6        17     4      180.000000       18.587651         2    ;  uncertainty k = 0.057321
         5         6        17         4     4      180.000000       18.587651         2    ;  uncertainty k = 0.057321
         5        17         4         6     4      180.000000       18.587651         2    ;  uncertainty k = 0.057321
         6         1         5        45     4      180.000000        2.254723         2    ;  uncertainty k = 0.287591
         6         5        45         1     4      180.000000        2.254723         2    ;  uncertainty k = 0.287591
         6        45         1         5     4      180.000000        2.254723         2    ;  uncertainty k = 0.287591
         8         7         9        11     4      180.000000       54.402417         2    ;  uncertainty k = 0.011975
         8         9        11         7     4      180.000000       54.402417         2    ;  uncertainty k = 0.011975
         8        11         7         9     4      180.000000       54.402417         2    ;  uncertainty k = 0.011975
         9         8        10        32     4      180.000000        0.347695         2    ;  uncertainty k = 0.620136
         9        10        32         8     4      180.000000        0.347695         2    ;  uncertainty k = 0.620136
         9        32         8        10     4      180.000000        0.347695         2    ;  uncertainty k = 0.620136
        10         9        12        16     4      180.000000       30.056377         2    ;  uncertainty k = 0.135424
        10        12        16         9     4      180.000000       30.056377         2    ;  uncertainty k = 0.135424
        10        16         9        12     4      180.000000       30.056377         2    ;  uncertainty k = 0.135424
        13        12        14        23     4      180.000000       32.118775         2    ;  uncertainty k = 0.064889
        13        14        23        12     4      180.000000       32.118775         2    ;  uncertainty k = 0.064889
        13        23        12        14     4      180.000000       32.118775         2    ;  uncertainty k = 0.064889
        14        13        15        22     4      180.000000        5.339700         2    ;  uncertainty k = 0.455509
        14        15        22        13     4      180.000000        5.339700         2    ;  uncertainty k = 0.455509
        14        22        13        15     4      180.000000        5.339700         2    ;  uncertainty k = 0.455509
        15        14        16        21     4      180.000000       26.449005         2    ;  uncertainty k = 0.108353
        15        16        21        14     4      180.000000       26.449005         2    ;  uncertainty k = 0.108353
        15        21        14        16     4      180.000000       26.449005         2    ;  uncertainty k = 0.108353
        16        10        15        29     4      180.000000        0.521319         2    ;  uncertainty k = 0.605740
        16        15        29        10     4      180.000000        0.521319         2    ;  uncertainty k = 0.605740
        16        29        10        15     4      180.000000        0.521319         2    ;  uncertainty k = 0.605740

[ pairs ]
;       ai        aj funct
         1         4     1
         1         7     1
         1        17     1
         1        20     1
         2         5     1
         2         8     1
         2        28     1
         2        30     1
         2        31     1
         2        36     1
         2        37     1
         2        38     1
         2        45     1
         3         6     1
         3         9     1
         3        11     1
         3        17     1
         3        20     1
         3        27     1
         4         8     1
         4        18     1
         4        19     1
         4        30     1
         4        31     1
         4        45     1
         5         7     1
         5        27     1
         5        33     1
         5        34     1
         5        35     1
         6        18     1
         6        19     1
         6        28     1
         7        10     1
         7        19     1
         7        28     1
         7        32     1
         8        12     1
         8        16     1
         9        13     1
         9        15     1
         9        29     1
         9        30     1
         9        31     1
        10        11     1
        10        14     1
        10        21     1
        10        23     1
        11        30     1
        11        31     1
        11        32     1
        12        15     1
        12        22     1
        12        24     1
        12        29     1
        12        32     1
        13        16     1
        13        21     1
        13        25     1
        13        26     1
        13        41     1
        13        42     1
        14        24     1
        14        29     1
        14        39     1
        14        40     1
        15        23     1
        15        26     1
        16        22     1
        16        32     1
        16        39     1
        16        40     1
        17        28     1
        17        45     1
        19        27     1
        21        22     1
        21        29     1
        22        23     1
        23        43     1
        23        44     1
        23        46     1
        24        47     1
        24        48     1
        24        49     1
        25        50     1
        25        51     1
        25        52     1
        27        45     1
        41        43     1
        41        44     1
        41        46     1
        42        43     1
        42        44     1
        42        46     1
        43        47     1
        43        48     1
        43        49     1
        44        47     1
        44        48     1
        44        49     1
        47        50     1
        47        51     1
        47        52     1
        48        50     1
        48        51     1
        48        52     1
