; ITP file created by ByteFF-ML, 2026-02-21 07:47:16.750573

[ atomtypes ]
;name           bonded.type        at.num        mass        charge   ptype           sigma         epsilon
 n0bf                                   7      0.0000       0.00000       A     3.18991e-01     8.98410e-01
 c1bf                                   6      0.0000       0.00000       A     3.39802e-01     4.51399e-01
 c2bf                                   6      0.0000       0.00000       A     3.39737e-01     4.52316e-01
 c3bf                                   6      0.0000       0.00000       A     3.39953e-01     4.42911e-01
 c4bf                                   6      0.0000       0.00000       A     3.39737e-01     4.52316e-01
 c5bf                                   6      0.0000       0.00000       A     3.39802e-01     4.51399e-01
 c6bf                                   6      0.0000       0.00000       A     3.31588e-01     4.10914e-01
 c7bf                                   6      0.0000       0.00000       A     3.31472e-01     4.13479e-01
 c8bf                                   6      0.0000       0.00000       A     3.31527e-01     4.12656e-01
 c9bf                                   6      0.0000       0.00000       A     3.31490e-01     4.12710e-01
 c10bf                                  6      0.0000       0.00000       A     3.31465e-01     4.13235e-01
 c11bf                                  6      0.0000       0.00000       A     3.31484e-01     4.12929e-01
 c12bf                                  6      0.0000       0.00000       A     3.31450e-01     4.11677e-01
 n13bf                                  7      0.0000       0.00000       A     3.38522e-01     3.91532e-01
 c14bf                                  6      0.0000       0.00000       A     3.31588e-01     4.11697e-01
 c15bf                                  6      0.0000       0.00000       A     3.31436e-01     4.07615e-01
 n16bf                                  7      0.0000       0.00000       A     3.38387e-01     3.94695e-01
 c17bf                                  6      0.0000       0.00000       A     3.31471e-01     4.13733e-01
 cl18bf                                17      0.0000       0.00000       A     3.46745e-01     1.10550e+00
 cl19bf                                17      0.0000       0.00000       A     3.46725e-01     1.10759e+00
 n20bf                                  7      0.0000       0.00000       A     2.76368e-01     4.74797e+00
 c21bf                                  6      0.0000       0.00000       A     3.39520e-01     4.49397e-01
 h22bf                                  1      0.0000       0.00000       A     2.42252e-01     8.65900e-02
 h23bf                                  1      0.0000       0.00000       A     2.42252e-01     8.65900e-02
 h24bf                                  1      0.0000       0.00000       A     2.59993e-01     8.73289e-02
 h25bf                                  1      0.0000       0.00000       A     2.59993e-01     8.73289e-02
 h26bf                                  1      0.0000       0.00000       A     2.59993e-01     8.73289e-02
 h27bf                                  1      0.0000       0.00000       A     2.59993e-01     8.73289e-02
 h28bf                                  1      0.0000       0.00000       A     2.42252e-01     8.65900e-02
 h29bf                                  1      0.0000       0.00000       A     2.42252e-01     8.65900e-02
 h30bf                                  1      0.0000       0.00000       A     2.62433e-01     6.69663e-02
 h31bf                                  1      0.0000       0.00000       A     2.62502e-01     6.73461e-02
 h32bf                                  1      0.0000       0.00000       A     2.62496e-01     6.73046e-02
 h33bf                                  1      0.0000       0.00000       A     1.10628e-01     4.12153e-02
 h34bf                                  1      0.0000       0.00000       A     2.59831e-01     8.81397e-02
 h35bf                                  1      0.0000       0.00000       A     2.59831e-01     8.81397e-02
 h36bf                                  1      0.0000       0.00000       A     2.59831e-01     8.81397e-02
 h37bf                                  1      0.0000       0.00000       A     1.10628e-01     4.12153e-02
 h38bf                                  1      0.0000       0.00000       A     2.53641e-01     6.75457e-02
 h39bf                                  1      0.0000       0.00000       A     2.53687e-01     6.81841e-02
 h40bf                                  1      0.0000       0.00000       A     1.10628e-01     4.12153e-02

[ moleculetype ]
;name             nrexcl
 10                    3

[ atoms ]
;       nr            type      resi   res      atom      cgnr      charge          mass ; qtot
         1            n0bf         1   UNL        n0         1    -0.75023       14.0070 ; qtot   -0.750
         2            c1bf         1   UNL        c1         2     0.19797       12.0110 ; qtot   -0.552
         3            c2bf         1   UNL        c2         3    -0.11788       12.0110 ; qtot   -0.670
         4            c3bf         1   UNL        c3         4     0.17018       12.0110 ; qtot   -0.500
         5            c4bf         1   UNL        c4         5    -0.11788       12.0110 ; qtot   -0.618
         6            c5bf         1   UNL        c5         6     0.19797       12.0110 ; qtot   -0.420
         7            c6bf         1   UNL        c6         7    -0.12131       12.0110 ; qtot   -0.541
         8            c7bf         1   UNL        c7         8     0.14496       12.0110 ; qtot   -0.396
         9            c8bf         1   UNL        c8         9     0.11823       12.0110 ; qtot   -0.278
        10            c9bf         1   UNL        c9        10    -0.08482       12.0110 ; qtot   -0.363
        11           c10bf         1   UNL       c10        11    -0.10730       12.0110 ; qtot   -0.470
        12           c11bf         1   UNL       c11        12    -0.07339       12.0110 ; qtot   -0.543
        13           c12bf         1   UNL       c12        13     0.29666       12.0110 ; qtot   -0.247
        14           n13bf         1   UNL       n13        14    -0.60032       14.0070 ; qtot   -0.847
        15           c14bf         1   UNL       c14        15     0.22802       12.0110 ; qtot   -0.619
        16           c15bf         1   UNL       c15        16     0.56448       12.0110 ; qtot   -0.055
        17           n16bf         1   UNL       n16        17    -0.72053       14.0070 ; qtot   -0.775
        18           c17bf         1   UNL       c17        18     0.35910       12.0110 ; qtot   -0.416
        19          cl18bf         1   UNL      cl18        19    -0.17937       35.4530 ; qtot   -0.595
        20          cl19bf         1   UNL      cl19        20    -0.16898       35.4530 ; qtot   -0.764
        21           n20bf         1   UNL       n20        21    -0.99988       14.0070 ; qtot   -1.764
        22           c21bf         1   UNL       c21        22    -0.12370       12.0110 ; qtot   -1.888
        23           h22bf         1   UNL       h22        23     0.07540        1.0080 ; qtot   -1.813
        24           h23bf         1   UNL       h23        24     0.07540        1.0080 ; qtot   -1.737
        25           h24bf         1   UNL       h24        25     0.08357        1.0080 ; qtot   -1.654
        26           h25bf         1   UNL       h25        26     0.08357        1.0080 ; qtot   -1.570
        27           h26bf         1   UNL       h26        27     0.08357        1.0080 ; qtot   -1.487
        28           h27bf         1   UNL       h27        28     0.08357        1.0080 ; qtot   -1.403
        29           h28bf         1   UNL       h28        29     0.07540        1.0080 ; qtot   -1.328
        30           h29bf         1   UNL       h29        30     0.07540        1.0080 ; qtot   -1.252
        31           h30bf         1   UNL       h30        31     0.13777        1.0080 ; qtot   -1.114
        32           h31bf         1   UNL       h31        32     0.12850        1.0080 ; qtot   -0.986
        33           h32bf         1   UNL       h32        33     0.13299        1.0080 ; qtot   -0.853
        34           h33bf         1   UNL       h33        34     0.52124        1.0080 ; qtot   -0.332
        35           h34bf         1   UNL       h34        35     0.07436        1.0080 ; qtot   -0.257
        36           h35bf         1   UNL       h35        36     0.07436        1.0080 ; qtot   -0.183
        37           h36bf         1   UNL       h36        37     0.07436        1.0080 ; qtot   -0.109
        38           h37bf         1   UNL       h37        38     0.52124        1.0080 ; qtot    0.413
        39           h38bf         1   UNL       h38        39     0.03450        1.0080 ; qtot    0.447
        40           h39bf         1   UNL       h39        40     0.03158        1.0080 ; qtot    0.479
        41           h40bf         1   UNL       h40        41     0.52124        1.0080 ; qtot    1.000

[ bonds ]
;       ai        aj funct               r               k
         1         2     1        0.146514   189014.115283
         1         6     1        0.146514   189014.115283
         1        16     1        0.138008   286219.436670
         2         3     1        0.154085   170874.544678
         2        23     1        0.109330   299344.974609
         2        24     1        0.109330   299344.974609
         3         4     1        0.153901   170422.129248
         3        25     1        0.109412   300137.493262
         3        26     1        0.109412   300137.493262
         4         5     1        0.153901   170422.129248
         4        21     1        0.155311    81285.091577
         4        22     1        0.152862   185224.433789
         5         6     1        0.154085   170874.544678
         5        27     1        0.109412   300137.493262
         5        28     1        0.109412   300137.493262
         6        29     1        0.109330   299344.974609
         6        30     1        0.109330   299344.974609
         7         8     1        0.140813   258870.418311
         7        12     1        0.140486   284083.129785
         7        13     1        0.148658   209682.957812
         8         9     1        0.140425   277849.419238
         8        20     1        0.174862   153127.326221
         9        10     1        0.139783   293456.602393
         9        19     1        0.174841   155133.993970
        10        11     1        0.139565   310227.205176
        10        31     1        0.108429   326455.884961
        11        12     1        0.139337   322154.312109
        11        32     1        0.108544   323106.182324
        12        33     1        0.108481   323187.518018
        13        14     1        0.134737   281759.635889
        13        18     1        0.139955   266212.975684
        14        15     1        0.132446   362789.369141
        15        16     1        0.142734   224470.655127
        15        40     1        0.108631   317947.073340
        16        17     1        0.134850   273018.564258
        17        18     1        0.133314   350371.592188
        18        39     1        0.108663   318907.958154
        21        34     1        0.102770   380670.861719
        21        38     1        0.102770   380670.861719
        21        41     1        0.102770   380670.861719
        22        35     1        0.109334   304479.006152
        22        36     1        0.109334   304479.006152
        22        37     1        0.109334   304479.006152

[ angles ]
;       ai        aj        ak funct           theta             cth
         1         2         3     1      110.494286      648.599293
         1         2        23     1      109.690895      431.873890
         1         2        24     1      109.690895      431.873890
         1         6         5     1      110.494286      648.599293
         1         6        29     1      109.690895      431.873890
         1         6        30     1      109.690895      431.873890
         1        16        15     1      122.566696      566.852388
         1        16        17     1      117.763672      622.658186
         2         1         6     1      114.313766      469.405205
         2         1        16     1      119.330605      532.536323
         2         3         4     1      111.743065      618.441690
         2         3        25     1      109.261940      501.379453
         2         3        26     1      109.261940      501.379453
         3         2        23     1      109.907776      484.800634
         3         2        24     1      109.907776      484.800634
         3         4         5     1      110.528786      534.982107
         3         4        21     1      106.622520      675.512469
         3         4        22     1      112.587425      600.627258
         4         3        25     1      109.613670      487.526816
         4         3        26     1      109.613670      487.526816
         4         5         6     1      111.743065      618.441690
         4         5        27     1      109.613670      487.526816
         4         5        28     1      109.613670      487.526816
         4        21        34     1      111.194313      445.707501
         4        21        38     1      111.194313      445.707501
         4        21        41     1      111.194313      445.707501
         4        22        35     1      111.123024      496.118936
         4        22        36     1      111.123024      496.118936
         4        22        37     1      111.123024      496.118936
         5         4        21     1      106.622520      675.512469
         5         4        22     1      112.587425      600.627258
         5         6        29     1      109.907776      484.800634
         5         6        30     1      109.907776      484.800634
         6         1        16     1      119.330605      532.536323
         6         5        27     1      109.261940      501.379453
         6         5        28     1      109.261940      501.379453
         7         8         9     1      119.970596      588.276044
         7         8        20     1      120.577194      331.135547
         7        12        11     1      121.158302      694.349726
         7        12        33     1      118.311928      417.176326
         7        13        14     1      117.580162      533.506222
         7        13        18     1      122.419945      498.894852
         8         7        12     1      118.526817      535.587880
         8         7        13     1      123.330238      456.528628
         8         9        10     1      120.440086      582.646835
         8         9        19     1      121.305191      342.704369
         9         8        20     1      119.680687      385.159685
         9        10        11     1      119.701218      613.951309
         9        10        31     1      119.180435      412.481935
        10         9        19     1      118.130531      339.335386
        10        11        12     1      120.056252      729.153231
        10        11        32     1      119.709694      442.443125
        11        10        31     1      121.192947      417.179167
        11        12        33     1      120.468056      420.243205
        12         7        13     1      117.968834      540.478236
        12        11        32     1      120.244568      436.090162
        13        14        15     1      118.074989      765.872466
        13        18        17     1      122.846680      695.427137
        13        18        39     1      120.976929      394.386722
        14        13        18     1      119.605003      544.110124
        14        15        16     1      122.316185      819.486223
        14        15        40     1      116.405678      370.861330
        15        16        17     1      119.076294      582.442155
        16        15        40     1      121.912270      368.457522
        16        17        18     1      117.779015      958.560554
        17        18        39     1      116.163063      374.686151
        21         4        22     1      106.513611      724.561723
        23         2        24     1      107.284828      347.460113
        25         3        26     1      106.823082      356.804652
        27         5        28     1      106.823082      356.804652
        29         6        30     1      107.284828      347.460113
        34        21        38     1      107.909775      400.797366
        34        21        41     1      107.909775      400.797366
        35        22        36     1      107.934082      360.937993
        35        22        37     1      107.934082      360.937993
        36        22        37     1      107.934082      360.937993
        38        21        41     1      107.909775      400.797366

[ dihedrals ] ; propers for gromacs 4.5 or higher, use funct 9
;       ai        aj        ak        al funct           phase               k        pn
         1         2         3         4     9        0.000000        3.449085         1
         1         2         3         4     9      180.000000       -1.732264         2
         1         2         3         4     9        0.000000        0.433143         3
         1         2         3         4     9      180.000000       -0.114829         4
         1         2         3        25     9        0.000000       -0.016239         1
         1         2         3        25     9      180.000000       -0.011667         2
         1         2         3        25     9        0.000000        0.411042         3
         1         2         3        25     9      180.000000       -0.010656         4
         1         2         3        26     9        0.000000       -0.016239         1
         1         2         3        26     9      180.000000       -0.011667         2
         1         2         3        26     9        0.000000        0.411042         3
         1         2         3        26     9      180.000000       -0.010656         4
         1         6         5         4     9        0.000000        3.449085         1
         1         6         5         4     9      180.000000       -1.732264         2
         1         6         5         4     9        0.000000        0.433143         3
         1         6         5         4     9      180.000000       -0.114829         4
         1         6         5        27     9        0.000000       -0.016239         1
         1         6         5        27     9      180.000000       -0.011667         2
         1         6         5        27     9        0.000000        0.411042         3
         1         6         5        27     9      180.000000       -0.010656         4
         1         6         5        28     9        0.000000       -0.016239         1
         1         6         5        28     9      180.000000       -0.011667         2
         1         6         5        28     9        0.000000        0.411042         3
         1         6         5        28     9      180.000000       -0.010656         4
         1        16        15        14     9        0.000000        0.408293         1
         1        16        15        14     9      180.000000       11.112933         2
         1        16        15        14     9        0.000000        0.246750         3
         1        16        15        14     9      180.000000       -0.766830         4
         1        16        15        40     9        0.000000       -0.179895         1
         1        16        15        40     9      180.000000       10.183474         2
         1        16        15        40     9        0.000000       -0.138517         3
         1        16        15        40     9      180.000000       -0.190071         4
         1        16        17        18     9        0.000000        1.835239         1
         1        16        17        18     9      180.000000       22.761533         2
         1        16        17        18     9        0.000000        1.070042         3
         1        16        17        18     9      180.000000       -0.910022         4
         2         1         6         5     9        0.000000        0.126475         1
         2         1         6         5     9      180.000000        0.116608         2
         2         1         6         5     9        0.000000        0.812779         3
         2         1         6         5     9      180.000000        0.023287         4
         2         1         6        29     9        0.000000        0.052468         1
         2         1         6        29     9      180.000000        0.134991         2
         2         1         6        29     9        0.000000        0.918163         3
         2         1         6        29     9      180.000000        0.049079         4
         2         1         6        30     9        0.000000        0.052468         1
         2         1         6        30     9      180.000000        0.134991         2
         2         1         6        30     9        0.000000        0.918163         3
         2         1         6        30     9      180.000000        0.049079         4
         2         1        16        15     9        0.000000        2.884293         1
         2         1        16        15     9      180.000000        6.702668         2
         2         1        16        15     9        0.000000       -0.227804         3
         2         1        16        15     9      180.000000        0.151466         4
         2         1        16        17     9        0.000000        0.198532         1
         2         1        16        17     9      180.000000        7.756416         2
         2         1        16        17     9        0.000000       -0.296544         3
         2         1        16        17     9      180.000000       -0.082342         4
         2         3         4         5     9        0.000000        3.305309         1
         2         3         4         5     9      180.000000       -1.662805         2
         2         3         4         5     9        0.000000        0.073143         3
         2         3         4         5     9      180.000000        0.016898         4
         2         3         4        21     9        0.000000        3.630557         1
         2         3         4        21     9      180.000000       -1.235852         2
         2         3         4        21     9        0.000000        0.455688         3
         2         3         4        21     9      180.000000        0.423887         4
         2         3         4        22     9        0.000000       -2.449354         1
         2         3         4        22     9      180.000000        1.049945         2
         2         3         4        22     9        0.000000        0.264187         3
         2         3         4        22     9      180.000000        0.059308         4
         3         2         1         6     9        0.000000        0.126475         1
         3         2         1         6     9      180.000000        0.116608         2
         3         2         1         6     9        0.000000        0.812779         3
         3         2         1         6     9      180.000000        0.023287         4
         3         2         1        16     9        0.000000       -0.996267         1
         3         2         1        16     9      180.000000        0.936385         2
         3         2         1        16     9        0.000000        0.502771         3
         3         2         1        16     9      180.000000        0.044119         4
         3         4         5         6     9        0.000000        3.305309         1
         3         4         5         6     9      180.000000       -1.662805         2
         3         4         5         6     9        0.000000        0.073143         3
         3         4         5         6     9      180.000000        0.016898         4
         3         4         5        27     9        0.000000        0.007174         1
         3         4         5        27     9      180.000000        0.103972         2
         3         4         5        27     9        0.000000        0.342335         3
         3         4         5        27     9      180.000000       -0.008057         4
         3         4         5        28     9        0.000000        0.007174         1
         3         4         5        28     9      180.000000        0.103972         2
         3         4         5        28     9        0.000000        0.342335         3
         3         4         5        28     9      180.000000       -0.008057         4
         3         4        21        34     9        0.000000        0.062222         1
         3         4        21        34     9      180.000000        0.164656         2
         3         4        21        34     9        0.000000        0.559493         3
         3         4        21        34     9      180.000000        0.034876         4
         3         4        21        38     9        0.000000        0.062222         1
         3         4        21        38     9      180.000000        0.164656         2
         3         4        21        38     9        0.000000        0.559493         3
         3         4        21        38     9      180.000000        0.034876         4
         3         4        21        41     9        0.000000        0.062222         1
         3         4        21        41     9      180.000000        0.164656         2
         3         4        21        41     9        0.000000        0.559493         3
         3         4        21        41     9      180.000000        0.034876         4
         3         4        22        35     9        0.000000        0.001963         1
         3         4        22        35     9      180.000000        0.017089         2
         3         4        22        35     9        0.000000        0.502026         3
         3         4        22        35     9      180.000000        0.013943         4
         3         4        22        36     9        0.000000        0.001963         1
         3         4        22        36     9      180.000000        0.017089         2
         3         4        22        36     9        0.000000        0.502026         3
         3         4        22        36     9      180.000000        0.013943         4
         3         4        22        37     9        0.000000        0.001963         1
         3         4        22        37     9      180.000000        0.017089         2
         3         4        22        37     9        0.000000        0.502026         3
         3         4        22        37     9      180.000000        0.013943         4
         4         3         2        23     9        0.000000       -0.110172         1
         4         3         2        23     9      180.000000       -0.011484         2
         4         3         2        23     9        0.000000        0.408420         3
         4         3         2        23     9      180.000000        0.004906         4
         4         3         2        24     9        0.000000       -0.110172         1
         4         3         2        24     9      180.000000       -0.011484         2
         4         3         2        24     9        0.000000        0.408420         3
         4         3         2        24     9      180.000000        0.004906         4
         4         5         6        29     9        0.000000       -0.110172         1
         4         5         6        29     9      180.000000       -0.011484         2
         4         5         6        29     9        0.000000        0.408420         3
         4         5         6        29     9      180.000000        0.004906         4
         4         5         6        30     9        0.000000       -0.110172         1
         4         5         6        30     9      180.000000       -0.011484         2
         4         5         6        30     9        0.000000        0.408420         3
         4         5         6        30     9      180.000000        0.004906         4
         5         4         3        25     9        0.000000        0.007174         1
         5         4         3        25     9      180.000000        0.103972         2
         5         4         3        25     9        0.000000        0.342335         3
         5         4         3        25     9      180.000000       -0.008057         4
         5         4         3        26     9        0.000000        0.007174         1
         5         4         3        26     9      180.000000        0.103972         2
         5         4         3        26     9        0.000000        0.342335         3
         5         4         3        26     9      180.000000       -0.008057         4
         5         4        21        34     9        0.000000        0.062222         1
         5         4        21        34     9      180.000000        0.164656         2
         5         4        21        34     9        0.000000        0.559493         3
         5         4        21        34     9      180.000000        0.034876         4
         5         4        21        38     9        0.000000        0.062222         1
         5         4        21        38     9      180.000000        0.164656         2
         5         4        21        38     9        0.000000        0.559493         3
         5         4        21        38     9      180.000000        0.034876         4
         5         4        21        41     9        0.000000        0.062222         1
         5         4        21        41     9      180.000000        0.164656         2
         5         4        21        41     9        0.000000        0.559493         3
         5         4        21        41     9      180.000000        0.034876         4
         5         4        22        35     9        0.000000        0.001963         1
         5         4        22        35     9      180.000000        0.017089         2
         5         4        22        35     9        0.000000        0.502026         3
         5         4        22        35     9      180.000000        0.013943         4
         5         4        22        36     9        0.000000        0.001963         1
         5         4        22        36     9      180.000000        0.017089         2
         5         4        22        36     9        0.000000        0.502026         3
         5         4        22        36     9      180.000000        0.013943         4
         5         4        22        37     9        0.000000        0.001963         1
         5         4        22        37     9      180.000000        0.017089         2
         5         4        22        37     9        0.000000        0.502026         3
         5         4        22        37     9      180.000000        0.013943         4
         5         6         1        16     9        0.000000       -0.996267         1
         5         6         1        16     9      180.000000        0.936385         2
         5         6         1        16     9        0.000000        0.502771         3
         5         6         1        16     9      180.000000        0.044119         4
         6         1         2        23     9        0.000000        0.052468         1
         6         1         2        23     9      180.000000        0.134991         2
         6         1         2        23     9        0.000000        0.918163         3
         6         1         2        23     9      180.000000        0.049079         4
         6         1         2        24     9        0.000000        0.052468         1
         6         1         2        24     9      180.000000        0.134991         2
         6         1         2        24     9        0.000000        0.918163         3
         6         1         2        24     9      180.000000        0.049079         4
         6         1        16        15     9        0.000000        2.884293         1
         6         1        16        15     9      180.000000        6.702668         2
         6         1        16        15     9        0.000000       -0.227804         3
         6         1        16        15     9      180.000000        0.151466         4
         6         1        16        17     9        0.000000        0.198532         1
         6         1        16        17     9      180.000000        7.756416         2
         6         1        16        17     9        0.000000       -0.296544         3
         6         1        16        17     9      180.000000       -0.082342         4
         6         5         4        21     9        0.000000        3.630557         1
         6         5         4        21     9      180.000000       -1.235852         2
         6         5         4        21     9        0.000000        0.455688         3
         6         5         4        21     9      180.000000        0.423887         4
         6         5         4        22     9        0.000000       -2.449354         1
         6         5         4        22     9      180.000000        1.049945         2
         6         5         4        22     9        0.000000        0.264187         3
         6         5         4        22     9      180.000000        0.059308         4
         7         8         9        10     9        0.000000        0.014859         1
         7         8         9        10     9      180.000000       16.700847         2
         7         8         9        10     9        0.000000       -0.921581         3
         7         8         9        10     9      180.000000       -0.429507         4
         7         8         9        19     9        0.000000        0.292040         1
         7         8         9        19     9      180.000000       16.865018         2
         7         8         9        19     9        0.000000        0.032091         3
         7         8         9        19     9      180.000000       -0.621873         4
         7        12        11        10     9        0.000000       -0.022503         1
         7        12        11        10     9      180.000000       18.958175         2
         7        12        11        10     9        0.000000       -1.589490         3
         7        12        11        10     9      180.000000       -0.417096         4
         7        12        11        32     9        0.000000       -0.059416         1
         7        12        11        32     9      180.000000       14.957064         2
         7        12        11        32     9        0.000000       -0.733034         3
         7        12        11        32     9      180.000000       -0.020270         4
         7        13        14        15     9        0.000000        0.350199         1
         7        13        14        15     9      180.000000       24.059099         2
         7        13        14        15     9        0.000000        0.989010         3
         7        13        14        15     9      180.000000       -0.881062         4
         7        13        18        17     9        0.000000        0.240378         1
         7        13        18        17     9      180.000000       14.773032         2
         7        13        18        17     9        0.000000        0.159437         3
         7        13        18        17     9      180.000000       -0.583667         4
         7        13        18        39     9        0.000000       -0.079008         1
         7        13        18        39     9      180.000000       12.246653         2
         7        13        18        39     9        0.000000       -0.134241         3
         7        13        18        39     9      180.000000        0.066602         4
         8         7        12        11     9        0.000000       -0.001360         1
         8         7        12        11     9      180.000000       18.036226         2
         8         7        12        11     9        0.000000       -1.444019         3
         8         7        12        11     9      180.000000       -0.311919         4
         8         7        12        33     9        0.000000       -0.062474         1
         8         7        12        33     9      180.000000       13.956871         2
         8         7        12        33     9        0.000000       -0.685720         3
         8         7        12        33     9      180.000000        0.150506         4
         8         7        13        14     9        0.000000       -2.735783         1
         8         7        13        14     9      180.000000        3.070438         2
         8         7        13        14     9        0.000000        0.537477         3
         8         7        13        14     9      180.000000       -0.123863         4
         8         7        13        18     9        0.000000        0.702140         1
         8         7        13        18     9      180.000000        1.773387         2
         8         7        13        18     9        0.000000       -0.360631         3
         8         7        13        18     9      180.000000        0.094735         4
         8         9        10        11     9        0.000000       -0.002003         1
         8         9        10        11     9      180.000000       17.992779         2
         8         9        10        11     9        0.000000       -1.111476         3
         8         9        10        11     9      180.000000       -0.422058         4
         8         9        10        31     9        0.000000        0.100960         1
         8         9        10        31     9      180.000000       13.410778         2
         8         9        10        31     9        0.000000       -0.421162         3
         8         9        10        31     9      180.000000        0.068888         4
         9         8         7        12     9        0.000000       -0.066775         1
         9         8         7        12     9      180.000000       17.018259         2
         9         8         7        12     9        0.000000       -1.249760         3
         9         8         7        12     9      180.000000       -0.458555         4
         9         8         7        13     9        0.000000        0.200904         1
         9         8         7        13     9      180.000000       13.194837         2
         9         8         7        13     9        0.000000       -0.196694         3
         9         8         7        13     9      180.000000       -0.362992         4
         9        10        11        12     9        0.000000        0.003033         1
         9        10        11        12     9      180.000000       18.574676         2
         9        10        11        12     9        0.000000       -1.434564         3
         9        10        11        12     9      180.000000       -0.418936         4
         9        10        11        32     9        0.000000        0.039097         1
         9        10        11        32     9      180.000000       14.176347         2
         9        10        11        32     9        0.000000       -0.528022         3
         9        10        11        32     9      180.000000        0.072993         4
        10         9         8        20     9        0.000000        0.116037         1
        10         9         8        20     9      180.000000       17.460071         2
        10         9         8        20     9        0.000000        0.070598         3
        10         9         8        20     9      180.000000       -0.497473         4
        10        11        12        33     9        0.000000        0.033421         1
        10        11        12        33     9      180.000000       15.011601         2
        10        11        12        33     9        0.000000       -0.721519         3
        10        11        12        33     9      180.000000        0.094169         4
        11        10         9        19     9        0.000000        0.378297         1
        11        10         9        19     9      180.000000       19.840271         2
        11        10         9        19     9        0.000000        0.460777         3
        11        10         9        19     9      180.000000       -0.662431         4
        11        12         7        13     9        0.000000        0.208970         1
        11        12         7        13     9      180.000000       16.693867         2
        11        12         7        13     9        0.000000       -0.026369         3
        11        12         7        13     9      180.000000       -0.344174         4
        12         7         8        20     9        0.000000        0.295059         1
        12         7         8        20     9      180.000000       17.903333         2
        12         7         8        20     9        0.000000        0.248856         3
        12         7         8        20     9      180.000000       -0.742431         4
        12         7        13        14     9        0.000000        1.113596         1
        12         7        13        14     9      180.000000        3.324128         2
        12         7        13        14     9        0.000000       -0.587201         3
        12         7        13        14     9      180.000000        0.139751         4
        12         7        13        18     9        0.000000       -0.886127         1
        12         7        13        18     9      180.000000        3.205364         2
        12         7        13        18     9        0.000000        0.555040         3
        12         7        13        18     9      180.000000       -0.082210         4
        12        11        10        31     9        0.000000        0.042486         1
        12        11        10        31     9      180.000000       13.949670         2
        12        11        10        31     9        0.000000       -0.771321         3
        12        11        10        31     9      180.000000        0.134408         4
        13         7         8        20     9        0.000000       -0.046460         1
        13         7         8        20     9      180.000000       15.588623         2
        13         7         8        20     9        0.000000        0.293761         3
        13         7         8        20     9      180.000000       -0.764240         4
        13         7        12        33     9        0.000000       -0.136049         1
        13         7        12        33     9      180.000000       13.186184         2
        13         7        12        33     9        0.000000       -0.258892         3
        13         7        12        33     9      180.000000        0.172290         4
        13        14        15        16     9        0.000000       -0.182597         1
        13        14        15        16     9      180.000000       22.358430         2
        13        14        15        16     9        0.000000       -0.784324         3
        13        14        15        16     9      180.000000       -0.241823         4
        13        14        15        40     9        0.000000        0.613847         1
        13        14        15        40     9      180.000000       20.757843         2
        13        14        15        40     9        0.000000        0.041732         3
        13        14        15        40     9      180.000000       -0.109837         4
        13        18        17        16     9        0.000000       -0.006384         1
        13        18        17        16     9      180.000000       22.150468         2
        13        18        17        16     9        0.000000       -1.091908         3
        13        18        17        16     9      180.000000       -0.279544         4
        14        13        18        17     9        0.000000       -0.294222         1
        14        13        18        17     9      180.000000       13.977290         2
        14        13        18        17     9        0.000000       -0.214885         3
        14        13        18        17     9      180.000000       -0.604955         4
        14        13        18        39     9        0.000000        0.112069         1
        14        13        18        39     9      180.000000       11.519429         2
        14        13        18        39     9        0.000000       -0.368073         3
        14        13        18        39     9      180.000000       -0.152937         4
        14        15        16        17     9        0.000000       -1.226294         1
        14        15        16        17     9      180.000000        6.804112         2
        14        15        16        17     9        0.000000        0.166549         3
        14        15        16        17     9      180.000000       -0.656952         4
        15        14        13        18     9        0.000000       -0.027694         1
        15        14        13        18     9      180.000000       20.446823         2
        15        14        13        18     9        0.000000       -0.437773         3
        15        14        13        18     9      180.000000        0.026368         4
        15        16        17        18     9        0.000000        0.793727         1
        15        16        17        18     9      180.000000       16.795609         2
        15        16        17        18     9        0.000000        0.382285         3
        15        16        17        18     9      180.000000       -0.355616         4
        16         1         2        23     9        0.000000        0.067888         1
        16         1         2        23     9      180.000000        0.016799         2
        16         1         2        23     9        0.000000        0.614382         3
        16         1         2        23     9      180.000000       -0.010528         4
        16         1         2        24     9        0.000000        0.067888         1
        16         1         2        24     9      180.000000        0.016799         2
        16         1         2        24     9        0.000000        0.614382         3
        16         1         2        24     9      180.000000       -0.010528         4
        16         1         6        29     9        0.000000        0.067888         1
        16         1         6        29     9      180.000000        0.016799         2
        16         1         6        29     9        0.000000        0.614382         3
        16         1         6        29     9      180.000000       -0.010528         4
        16         1         6        30     9        0.000000        0.067888         1
        16         1         6        30     9      180.000000        0.016799         2
        16         1         6        30     9        0.000000        0.614382         3
        16         1         6        30     9      180.000000       -0.010528         4
        16        17        18        39     9        0.000000        0.887280         1
        16        17        18        39     9      180.000000       19.408790         2
        16        17        18        39     9        0.000000        0.182132         3
        16        17        18        39     9      180.000000       -0.171058         4
        17        16        15        40     9        0.000000       -0.455425         1
        17        16        15        40     9      180.000000        6.687134         2
        17        16        15        40     9        0.000000       -0.403483         3
        17        16        15        40     9      180.000000       -0.331908         4
        19         9         8        20     9        0.000000       -0.161623         1
        19         9         8        20     9      180.000000       18.875687         2
        19         9         8        20     9        0.000000        0.211035         3
        19         9         8        20     9      180.000000       -1.009790         4
        19         9        10        31     9        0.000000        0.106997         1
        19         9        10        31     9      180.000000       13.913808         2
        19         9        10        31     9        0.000000       -0.103000         3
        19         9        10        31     9      180.000000        0.172748         4
        21         4         3        25     9        0.000000       -0.169322         1
        21         4         3        25     9      180.000000        0.053936         2
        21         4         3        25     9        0.000000        0.536176         3
        21         4         3        25     9      180.000000       -0.087261         4
        21         4         3        26     9        0.000000       -0.169322         1
        21         4         3        26     9      180.000000        0.053936         2
        21         4         3        26     9        0.000000        0.536176         3
        21         4         3        26     9      180.000000       -0.087261         4
        21         4         5        27     9        0.000000       -0.169322         1
        21         4         5        27     9      180.000000        0.053936         2
        21         4         5        27     9        0.000000        0.536176         3
        21         4         5        27     9      180.000000       -0.087261         4
        21         4         5        28     9        0.000000       -0.169322         1
        21         4         5        28     9      180.000000        0.053936         2
        21         4         5        28     9        0.000000        0.536176         3
        21         4         5        28     9      180.000000       -0.087261         4
        21         4        22        35     9        0.000000       -0.256018         1
        21         4        22        35     9      180.000000       -0.145324         2
        21         4        22        35     9        0.000000        0.609263         3
        21         4        22        35     9      180.000000        0.002710         4
        21         4        22        36     9        0.000000       -0.256018         1
        21         4        22        36     9      180.000000       -0.145324         2
        21         4        22        36     9        0.000000        0.609263         3
        21         4        22        36     9      180.000000        0.002710         4
        21         4        22        37     9        0.000000       -0.256018         1
        21         4        22        37     9      180.000000       -0.145324         2
        21         4        22        37     9        0.000000        0.609263         3
        21         4        22        37     9      180.000000        0.002710         4
        22         4         3        25     9        0.000000        0.063473         1
        22         4         3        25     9      180.000000        0.001370         2
        22         4         3        25     9        0.000000        0.453990         3
        22         4         3        25     9      180.000000        0.000725         4
        22         4         3        26     9        0.000000        0.063473         1
        22         4         3        26     9      180.000000        0.001370         2
        22         4         3        26     9        0.000000        0.453990         3
        22         4         3        26     9      180.000000        0.000725         4
        22         4         5        27     9        0.000000        0.063473         1
        22         4         5        27     9      180.000000        0.001370         2
        22         4         5        27     9        0.000000        0.453990         3
        22         4         5        27     9      180.000000        0.000725         4
        22         4         5        28     9        0.000000        0.063473         1
        22         4         5        28     9      180.000000        0.001370         2
        22         4         5        28     9        0.000000        0.453990         3
        22         4         5        28     9      180.000000        0.000725         4
        22         4        21        34     9        0.000000       -0.241238         1
        22         4        21        34     9      180.000000        0.219200         2
        22         4        21        34     9        0.000000        0.596224         3
        22         4        21        34     9      180.000000        0.018226         4
        22         4        21        38     9        0.000000       -0.241238         1
        22         4        21        38     9      180.000000        0.219200         2
        22         4        21        38     9        0.000000        0.596224         3
        22         4        21        38     9      180.000000        0.018226         4
        22         4        21        41     9        0.000000       -0.241238         1
        22         4        21        41     9      180.000000        0.219200         2
        22         4        21        41     9        0.000000        0.596224         3
        22         4        21        41     9      180.000000        0.018226         4
        23         2         3        25     9        0.000000       -0.008238         1
        23         2         3        25     9      180.000000        0.010357         2
        23         2         3        25     9        0.000000        0.419133         3
        23         2         3        25     9      180.000000       -0.004232         4
        23         2         3        26     9        0.000000       -0.008238         1
        23         2         3        26     9      180.000000        0.010357         2
        23         2         3        26     9        0.000000        0.419133         3
        23         2         3        26     9      180.000000       -0.004232         4
        24         2         3        25     9        0.000000       -0.008238         1
        24         2         3        25     9      180.000000        0.010357         2
        24         2         3        25     9        0.000000        0.419133         3
        24         2         3        25     9      180.000000       -0.004232         4
        24         2         3        26     9        0.000000       -0.008238         1
        24         2         3        26     9      180.000000        0.010357         2
        24         2         3        26     9        0.000000        0.419133         3
        24         2         3        26     9      180.000000       -0.004232         4
        27         5         6        29     9        0.000000       -0.008238         1
        27         5         6        29     9      180.000000        0.010357         2
        27         5         6        29     9        0.000000        0.419133         3
        27         5         6        29     9      180.000000       -0.004232         4
        27         5         6        30     9        0.000000       -0.008238         1
        27         5         6        30     9      180.000000        0.010357         2
        27         5         6        30     9        0.000000        0.419133         3
        27         5         6        30     9      180.000000       -0.004232         4
        28         5         6        29     9        0.000000       -0.008238         1
        28         5         6        29     9      180.000000        0.010357         2
        28         5         6        29     9        0.000000        0.419133         3
        28         5         6        29     9      180.000000       -0.004232         4
        28         5         6        30     9        0.000000       -0.008238         1
        28         5         6        30     9      180.000000        0.010357         2
        28         5         6        30     9        0.000000        0.419133         3
        28         5         6        30     9      180.000000       -0.004232         4
        31        10        11        32     9        0.000000       -0.213817         1
        31        10        11        32     9      180.000000       11.349868         2
        31        10        11        32     9        0.000000       -0.597407         3
        31        10        11        32     9      180.000000        0.253272         4
        32        11        12        33     9        0.000000       -0.262469         1
        32        11        12        33     9      180.000000       12.181518         2
        32        11        12        33     9        0.000000       -0.765528         3
        32        11        12        33     9      180.000000        0.308162         4

[ dihedrals ] ; impropers
;       ai        aj        ak        al funct           phase               k        pn
        18        13        17        39     4      180.000000        2.859427         2
        18        17        39        13     4      180.000000        2.859427         2
        18        39        13        17     4      180.000000        2.859427         2

[ pairs ]
;       ai        aj funct
         1         4     1
         1        14     1
         1        18     1
         1        25     1
         1        26     1
         1        27     1
         1        28     1
         1        40     1
         2         5     1
         2        15     1
         2        17     1
         2        21     1
         2        22     1
         2        29     1
         2        30     1
         3         6     1
         3        16     1
         3        27     1
         3        28     1
         3        34     1
         3        35     1
         3        36     1
         3        37     1
         3        38     1
         3        41     1
         4        23     1
         4        24     1
         4        29     1
         4        30     1
         5        16     1
         5        25     1
         5        26     1
         5        34     1
         5        35     1
         5        36     1
         5        37     1
         5        38     1
         5        41     1
         6        15     1
         6        17     1
         6        21     1
         6        22     1
         6        23     1
         6        24     1
         7        10     1
         7        15     1
         7        17     1
         7        19     1
         7        32     1
         7        39     1
         8        11     1
         8        14     1
         8        18     1
         8        31     1
         8        33     1
         9        12     1
         9        13     1
         9        32     1
        10        20     1
        10        33     1
        11        13     1
        11        19     1
        12        14     1
        12        18     1
        12        20     1
        12        31     1
        13        16     1
        13        20     1
        13        33     1
        13        40     1
        14        17     1
        14        39     1
        15        18     1
        16        23     1
        16        24     1
        16        29     1
        16        30     1
        16        39     1
        17        40     1
        19        20     1
        19        31     1
        21        25     1
        21        26     1
        21        27     1
        21        28     1
        21        35     1
        21        36     1
        21        37     1
        22        25     1
        22        26     1
        22        27     1
        22        28     1
        22        34     1
        22        38     1
        22        41     1
        23        25     1
        23        26     1
        24        25     1
        24        26     1
        27        29     1
        27        30     1
        28        29     1
        28        30     1
        31        32     1
        32        33     1
