; ITP file created by ByteFF-ML, 2026-02-21 07:47:08.638477

[ atomtypes ]
;name           bonded.type        at.num        mass        charge   ptype           sigma         epsilon
 n0bf                                   7      0.0000       0.00000       A     3.19026e-01     8.99909e-01
 c1bf                                   6      0.0000       0.00000       A     3.39802e-01     4.51399e-01
 c2bf                                   6      0.0000       0.00000       A     3.39737e-01     4.52316e-01
 c3bf                                   6      0.0000       0.00000       A     3.39953e-01     4.42911e-01
 c4bf                                   6      0.0000       0.00000       A     3.39737e-01     4.52316e-01
 c5bf                                   6      0.0000       0.00000       A     3.39802e-01     4.51399e-01
 c6bf                                   6      0.0000       0.00000       A     3.31652e-01     4.12482e-01
 c7bf                                   6      0.0000       0.00000       A     3.31515e-01     4.14506e-01
 c8bf                                   6      0.0000       0.00000       A     3.31527e-01     4.12656e-01
 c9bf                                   6      0.0000       0.00000       A     3.31490e-01     4.12710e-01
 c10bf                                  6      0.0000       0.00000       A     3.31465e-01     4.13235e-01
 c11bf                                  6      0.0000       0.00000       A     3.31467e-01     4.12831e-01
 c12bf                                  6      0.0000       0.00000       A     3.31541e-01     4.11523e-01
 n13bf                                  7      0.0000       0.00000       A     3.38431e-01     3.90311e-01
 c14bf                                  6      0.0000       0.00000       A     3.31604e-01     4.11068e-01
 c15bf                                  6      0.0000       0.00000       A     3.31366e-01     4.07911e-01
 n16bf                                  7      0.0000       0.00000       A     3.38572e-01     3.91016e-01
 c17bf                                  6      0.0000       0.00000       A     3.31269e-01     4.15462e-01
 cl18bf                                17      0.0000       0.00000       A     3.46745e-01     1.10550e+00
 cl19bf                                17      0.0000       0.00000       A     3.46725e-01     1.10759e+00
 n20bf                                  7      0.0000       0.00000       A     3.27879e-01     6.42549e-01
 n21bf                                  7      0.0000       0.00000       A     2.76368e-01     4.74797e+00
 c22bf                                  6      0.0000       0.00000       A     3.39520e-01     4.49397e-01
 h23bf                                  1      0.0000       0.00000       A     2.42252e-01     8.65900e-02
 h24bf                                  1      0.0000       0.00000       A     2.42252e-01     8.65900e-02
 h25bf                                  1      0.0000       0.00000       A     2.59993e-01     8.73289e-02
 h26bf                                  1      0.0000       0.00000       A     2.59993e-01     8.73289e-02
 h27bf                                  1      0.0000       0.00000       A     2.59993e-01     8.73289e-02
 h28bf                                  1      0.0000       0.00000       A     2.59993e-01     8.73289e-02
 h29bf                                  1      0.0000       0.00000       A     2.42252e-01     8.65900e-02
 h30bf                                  1      0.0000       0.00000       A     2.42252e-01     8.65900e-02
 h31bf                                  1      0.0000       0.00000       A     2.62433e-01     6.69663e-02
 h32bf                                  1      0.0000       0.00000       A     2.62502e-01     6.73461e-02
 h33bf                                  1      0.0000       0.00000       A     2.62496e-01     6.73046e-02
 c34bf                                  6      0.0000       0.00000       A     3.39764e-01     4.51060e-01
 h35bf                                  1      0.0000       0.00000       A     1.10628e-01     4.12153e-02
 h36bf                                  1      0.0000       0.00000       A     2.59831e-01     8.81397e-02
 h37bf                                  1      0.0000       0.00000       A     2.59831e-01     8.81397e-02
 h38bf                                  1      0.0000       0.00000       A     2.59831e-01     8.81397e-02
 h39bf                                  1      0.0000       0.00000       A     1.10628e-01     4.12153e-02
 h40bf                                  1      0.0000       0.00000       A     2.53687e-01     6.81841e-02
 h41bf                                  1      0.0000       0.00000       A     1.10362e-01     4.07077e-02
 h42bf                                  1      0.0000       0.00000       A     2.41924e-01     8.72316e-02
 h43bf                                  1      0.0000       0.00000       A     2.41924e-01     8.72316e-02
 h44bf                                  1      0.0000       0.00000       A     2.41924e-01     8.72316e-02
 h45bf                                  1      0.0000       0.00000       A     1.10628e-01     4.12153e-02

[ moleculetype ]
;name             nrexcl
 11                    3

[ atoms ]
;       nr            type      resi   res      atom      cgnr      charge          mass ; qtot
         1            n0bf         1   UNL        n0         1    -0.74697       14.0070 ; qtot   -0.747
         2            c1bf         1   UNL        c1         2     0.19684       12.0110 ; qtot   -0.550
         3            c2bf         1   UNL        c2         3    -0.11788       12.0110 ; qtot   -0.668
         4            c3bf         1   UNL        c3         4     0.17018       12.0110 ; qtot   -0.498
         5            c4bf         1   UNL        c4         5    -0.11788       12.0110 ; qtot   -0.616
         6            c5bf         1   UNL        c5         6     0.19684       12.0110 ; qtot   -0.419
         7            c6bf         1   UNL        c6         7    -0.11441       12.0110 ; qtot   -0.533
         8            c7bf         1   UNL        c7         8     0.13722       12.0110 ; qtot   -0.396
         9            c8bf         1   UNL        c8         9     0.12141       12.0110 ; qtot   -0.275
        10            c9bf         1   UNL        c9        10    -0.08482       12.0110 ; qtot   -0.359
        11           c10bf         1   UNL       c10        11    -0.10472       12.0110 ; qtot   -0.464
        12           c11bf         1   UNL       c11        12    -0.07996       12.0110 ; qtot   -0.544
        13           c12bf         1   UNL       c12        13     0.24636       12.0110 ; qtot   -0.298
        14           n13bf         1   UNL       n13        14    -0.56646       14.0070 ; qtot   -0.864
        15           c14bf         1   UNL       c14        15     0.18839       12.0110 ; qtot   -0.676
        16           c15bf         1   UNL       c15        16     0.59207       12.0110 ; qtot   -0.084
        17           n16bf         1   UNL       n16        17    -0.80313       14.0070 ; qtot   -0.887
        18           c17bf         1   UNL       c17        18     0.59357       12.0110 ; qtot   -0.293
        19          cl18bf         1   UNL      cl18        19    -0.17937       35.4530 ; qtot   -0.473
        20          cl19bf         1   UNL      cl19        20    -0.16743       35.4530 ; qtot   -0.640
        21           n20bf         1   UNL       n20        21    -0.88756       14.0070 ; qtot   -1.528
        22           n21bf         1   UNL       n21        22    -0.99988       14.0070 ; qtot   -2.528
        23           c22bf         1   UNL       c22        23    -0.12370       12.0110 ; qtot   -2.651
        24           h23bf         1   UNL       h23        24     0.07540        1.0080 ; qtot   -2.576
        25           h24bf         1   UNL       h24        25     0.07540        1.0080 ; qtot   -2.500
        26           h25bf         1   UNL       h25        26     0.08357        1.0080 ; qtot   -2.417
        27           h26bf         1   UNL       h26        27     0.08357        1.0080 ; qtot   -2.333
        28           h27bf         1   UNL       h27        28     0.08357        1.0080 ; qtot   -2.250
        29           h28bf         1   UNL       h28        29     0.08357        1.0080 ; qtot   -2.166
        30           h29bf         1   UNL       h29        30     0.07540        1.0080 ; qtot   -2.091
        31           h30bf         1   UNL       h30        31     0.07540        1.0080 ; qtot   -2.015
        32           h31bf         1   UNL       h31        32     0.13777        1.0080 ; qtot   -1.878
        33           h32bf         1   UNL       h32        33     0.12850        1.0080 ; qtot   -1.749
        34           h33bf         1   UNL       h33        34     0.13319        1.0080 ; qtot   -1.616
        35           c34bf         1   UNL       c34        35     0.18441       12.0110 ; qtot   -1.432
        36           h35bf         1   UNL       h35        36     0.52124        1.0080 ; qtot   -0.910
        37           h36bf         1   UNL       h36        37     0.07436        1.0080 ; qtot   -0.836
        38           h37bf         1   UNL       h37        38     0.07436        1.0080 ; qtot   -0.762
        39           h38bf         1   UNL       h38        39     0.07436        1.0080 ; qtot   -0.687
        40           h39bf         1   UNL       h39        40     0.52124        1.0080 ; qtot   -0.166
        41           h40bf         1   UNL       h40        41     0.03313        1.0080 ; qtot   -0.133
        42           h41bf         1   UNL       h41        42     0.47246        1.0080 ; qtot    0.340
        43           h42bf         1   UNL       h42        43     0.04639        1.0080 ; qtot    0.386
        44           h43bf         1   UNL       h43        44     0.04639        1.0080 ; qtot    0.432
        45           h44bf         1   UNL       h44        45     0.04639        1.0080 ; qtot    0.479
        46           h45bf         1   UNL       h45        46     0.52122        1.0080 ; qtot    1.000

[ bonds ]
;       ai        aj funct               r               k
         1         2     1        0.146511   188836.836670
         1         6     1        0.146511   188836.836670
         1        16     1        0.138253   282098.538867
         2         3     1        0.154085   170874.544678
         2        24     1        0.109330   299344.974609
         2        25     1        0.109330   299344.974609
         3         4     1        0.153901   170422.129248
         3        26     1        0.109412   300137.493262
         3        27     1        0.109412   300137.493262
         4         5     1        0.153901   170422.129248
         4        22     1        0.155311    81285.091577
         4        23     1        0.152862   185224.433789
         5         6     1        0.154085   170874.544678
         5        28     1        0.109412   300137.493262
         5        29     1        0.109412   300137.493262
         6        30     1        0.109330   299344.974609
         6        31     1        0.109330   299344.974609
         7         8     1        0.140722   261661.241309
         7        12     1        0.140369   284909.050977
         7        13     1        0.148923   208101.827686
         8         9     1        0.140387   278821.693604
         8        20     1        0.174706   154969.317920
         9        10     1        0.139783   293456.602393
         9        19     1        0.174841   155133.981201
        10        11     1        0.139565   310227.205176
        10        32     1        0.108429   326455.884961
        11        12     1        0.139378   319661.558252
        11        33     1        0.108544   323106.182324
        12        34     1        0.108477   323509.387744
        13        14     1        0.133484   313838.356738
        13        18     1        0.142605   218725.265186
        14        15     1        0.132756   350949.139453
        15        16     1        0.142295   231946.465137
        15        41     1        0.108577   318926.625781
        16        17     1        0.134362   293515.107910
        17        18     1        0.133700   313799.361572
        18        21     1        0.137528   304804.348926
        21        35     1        0.145969   221527.401123
        21        42     1        0.101138   419580.912549
        22        36     1        0.102770   380670.861719
        22        40     1        0.102770   380670.861719
        22        46     1        0.102770   380670.861719
        23        37     1        0.109334   304479.006152
        23        38     1        0.109334   304479.006152
        23        39     1        0.109334   304479.006152
        35        43     1        0.109343   300449.097070
        35        44     1        0.109343   300449.097070
        35        45     1        0.109343   300449.097070

[ angles ]
;       ai        aj        ak funct           theta             cth
         1         2         3     1      110.490799      649.030359
         1         2        24     1      109.697311      432.006683
         1         2        25     1      109.697311      432.006683
         1         6         5     1      110.490799      649.030359
         1         6        30     1      109.697311      432.006683
         1         6        31     1      109.697311      432.006683
         1        16        15     1      122.744263      569.169945
         1        16        17     1      117.152359      566.687354
         2         1         6     1      114.291527      468.156312
         2         1        16     1      119.140442      532.431206
         2         3         4     1      111.743065      618.441690
         2         3        26     1      109.261940      501.379453
         2         3        27     1      109.261940      501.379453
         3         2        24     1      109.907776      484.800570
         3         2        25     1      109.907776      484.800634
         3         4         5     1      110.528786      534.982107
         3         4        22     1      106.622520      675.512469
         3         4        23     1      112.587425      600.627258
         4         3        26     1      109.613670      487.526816
         4         3        27     1      109.613670      487.526816
         4         5         6     1      111.743065      618.441690
         4         5        28     1      109.613670      487.526816
         4         5        29     1      109.613670      487.526816
         4        22        36     1      111.194313      445.707501
         4        22        40     1      111.194313      445.707501
         4        22        46     1      111.194313      445.707501
         4        23        37     1      111.123024      496.118936
         4        23        38     1      111.123024      496.118936
         4        23        39     1      111.123024      496.118936
         5         4        22     1      106.622520      675.512469
         5         4        23     1      112.587425      600.627258
         5         6        30     1      109.907776      484.800634
         5         6        31     1      109.907776      484.800634
         6         1        16     1      119.140442      532.431206
         6         5        28     1      109.261940      501.379453
         6         5        29     1      109.261940      501.379453
         7         8         9     1      120.045921      600.741218
         7         8        20     1      120.158119      334.113302
         7        12        11     1      121.086342      701.736782
         7        12        34     1      118.375046      400.867434
         7        13        14     1      117.234238      505.886402
         7        13        18     1      122.553185      445.241896
         8         7        12     1      118.525681      603.025959
         8         7        13     1      122.673721      433.655773
         8         9        10     1      120.349487      591.281123
         8         9        19     1      121.253151      346.786508
         9         8        20     1      120.147606      381.455208
         9        10        11     1      119.701218      613.951309
         9        10        32     1      119.180435      412.481935
        10         9        19     1      118.130531      339.335386
        10        11        12     1      120.050781      736.602725
        10        11        33     1      119.709694      442.443125
        11        10        32     1      121.192947      417.179167
        11        12        34     1      120.517212      416.328781
        12         7        13     1      119.044777      492.905347
        12        11        33     1      120.245544      430.627679
        13        14        15     1      119.225426      684.286892
        13        18        17     1      120.799683      652.843752
        13        18        21     1      121.889076      546.523444
        14        13        18     1      119.777222      747.644588
        14        15        16     1      121.536850      804.874719
        14        15        41     1      116.699203      372.677721
        15        16        17     1      119.419235      597.708111
        16        15        41     1      122.364929      369.159186
        16        17        18     1      118.873901      939.374588
        17        18        21     1      117.106873      581.119077
        18        21        35     1      120.739418      491.276430
        18        21        42     1      114.678406      451.246532
        21        35        43     1      110.262245      466.130900
        21        35        44     1      110.262245      466.130900
        21        35        45     1      110.262245      466.130900
        22         4        23     1      106.513611      724.561723
        24         2        25     1      107.284828      347.460113
        26         3        27     1      106.823082      356.804652
        28         5        29     1      106.823082      356.804652
        30         6        31     1      107.284828      347.460113
        35        21        42     1      116.533180      413.612590
        36        22        40     1      107.909775      400.797366
        36        22        46     1      107.909775      400.797366
        37        23        38     1      107.934097      360.937961
        37        23        39     1      107.934097      360.937961
        38        23        39     1      107.934097      360.937961
        40        22        46     1      107.909775      400.797366
        43        35        44     1      108.771767      348.704025
        43        35        45     1      108.771767      348.704025
        44        35        45     1      108.771767      348.704025

[ dihedrals ] ; propers for gromacs 4.5 or higher, use funct 9
;       ai        aj        ak        al funct           phase               k        pn
         1         2         3         4     9        0.000000        3.493938         1
         1         2         3         4     9      180.000000       -1.749451         2
         1         2         3         4     9        0.000000        0.427505         3
         1         2         3         4     9      180.000000       -0.118074         4
         1         2         3        26     9        0.000000       -0.015747         1
         1         2         3        26     9      180.000000       -0.015029         2
         1         2         3        26     9        0.000000        0.410471         3
         1         2         3        26     9      180.000000       -0.011039         4
         1         2         3        27     9        0.000000       -0.015747         1
         1         2         3        27     9      180.000000       -0.015029         2
         1         2         3        27     9        0.000000        0.410471         3
         1         2         3        27     9      180.000000       -0.011039         4
         1         6         5         4     9        0.000000        3.493938         1
         1         6         5         4     9      180.000000       -1.749451         2
         1         6         5         4     9        0.000000        0.427505         3
         1         6         5         4     9      180.000000       -0.118074         4
         1         6         5        28     9        0.000000       -0.015747         1
         1         6         5        28     9      180.000000       -0.015029         2
         1         6         5        28     9        0.000000        0.410471         3
         1         6         5        28     9      180.000000       -0.011039         4
         1         6         5        29     9        0.000000       -0.015747         1
         1         6         5        29     9      180.000000       -0.015029         2
         1         6         5        29     9        0.000000        0.410471         3
         1         6         5        29     9      180.000000       -0.011039         4
         1        16        15        14     9        0.000000        0.668909         1
         1        16        15        14     9      180.000000       11.855619         2
         1        16        15        14     9        0.000000        0.409100         3
         1        16        15        14     9      180.000000       -0.913403         4
         1        16        15        41     9        0.000000       -0.139633         1
         1        16        15        41     9      180.000000       10.220127         2
         1        16        15        41     9        0.000000       -0.139308         3
         1        16        15        41     9      180.000000       -0.208097         4
         1        16        17        18     9        0.000000        1.474905         1
         1        16        17        18     9      180.000000       20.568518         2
         1        16        17        18     9        0.000000        0.796009         3
         1        16        17        18     9      180.000000       -0.972373         4
         2         1         6         5     9        0.000000        0.097834         1
         2         1         6         5     9      180.000000        0.071711         2
         2         1         6         5     9        0.000000        0.801694         3
         2         1         6         5     9      180.000000        0.019443         4
         2         1         6        30     9        0.000000        0.061239         1
         2         1         6        30     9      180.000000        0.125634         2
         2         1         6        30     9        0.000000        0.910232         3
         2         1         6        30     9      180.000000        0.047377         4
         2         1         6        31     9        0.000000        0.061239         1
         2         1         6        31     9      180.000000        0.125634         2
         2         1         6        31     9        0.000000        0.910232         3
         2         1         6        31     9      180.000000        0.047377         4
         2         1        16        15     9        0.000000        2.597830         1
         2         1        16        15     9      180.000000        6.804659         2
         2         1        16        15     9        0.000000       -0.284690         3
         2         1        16        15     9      180.000000        0.127312         4
         2         1        16        17     9        0.000000        0.346246         1
         2         1        16        17     9      180.000000        7.768350         2
         2         1        16        17     9        0.000000       -0.457542         3
         2         1        16        17     9      180.000000        0.061801         4
         2         3         4         5     9        0.000000        3.305309         1
         2         3         4         5     9      180.000000       -1.662805         2
         2         3         4         5     9        0.000000        0.073143         3
         2         3         4         5     9      180.000000        0.016898         4
         2         3         4        22     9        0.000000        3.630557         1
         2         3         4        22     9      180.000000       -1.235852         2
         2         3         4        22     9        0.000000        0.455688         3
         2         3         4        22     9      180.000000        0.423887         4
         2         3         4        23     9        0.000000       -2.449354         1
         2         3         4        23     9      180.000000        1.049946         2
         2         3         4        23     9        0.000000        0.264187         3
         2         3         4        23     9      180.000000        0.059308         4
         3         2         1         6     9        0.000000        0.097834         1
         3         2         1         6     9      180.000000        0.071711         2
         3         2         1         6     9        0.000000        0.801694         3
         3         2         1         6     9      180.000000        0.019443         4
         3         2         1        16     9        0.000000       -1.147370         1
         3         2         1        16     9      180.000000        0.930488         2
         3         2         1        16     9        0.000000        0.497211         3
         3         2         1        16     9      180.000000        0.045762         4
         3         4         5         6     9        0.000000        3.305309         1
         3         4         5         6     9      180.000000       -1.662805         2
         3         4         5         6     9        0.000000        0.073143         3
         3         4         5         6     9      180.000000        0.016898         4
         3         4         5        28     9        0.000000        0.007174         1
         3         4         5        28     9      180.000000        0.103972         2
         3         4         5        28     9        0.000000        0.342335         3
         3         4         5        28     9      180.000000       -0.008057         4
         3         4         5        29     9        0.000000        0.007174         1
         3         4         5        29     9      180.000000        0.103972         2
         3         4         5        29     9        0.000000        0.342335         3
         3         4         5        29     9      180.000000       -0.008057         4
         3         4        22        36     9        0.000000        0.062222         1
         3         4        22        36     9      180.000000        0.164656         2
         3         4        22        36     9        0.000000        0.559493         3
         3         4        22        36     9      180.000000        0.034876         4
         3         4        22        40     9        0.000000        0.062222         1
         3         4        22        40     9      180.000000        0.164656         2
         3         4        22        40     9        0.000000        0.559493         3
         3         4        22        40     9      180.000000        0.034876         4
         3         4        22        46     9        0.000000        0.062222         1
         3         4        22        46     9      180.000000        0.164656         2
         3         4        22        46     9        0.000000        0.559493         3
         3         4        22        46     9      180.000000        0.034876         4
         3         4        23        37     9        0.000000        0.001962         1
         3         4        23        37     9      180.000000        0.017089         2
         3         4        23        37     9        0.000000        0.502026         3
         3         4        23        37     9      180.000000        0.013943         4
         3         4        23        38     9        0.000000        0.001962         1
         3         4        23        38     9      180.000000        0.017089         2
         3         4        23        38     9        0.000000        0.502026         3
         3         4        23        38     9      180.000000        0.013943         4
         3         4        23        39     9        0.000000        0.001962         1
         3         4        23        39     9      180.000000        0.017089         2
         3         4        23        39     9        0.000000        0.502026         3
         3         4        23        39     9      180.000000        0.013943         4
         4         3         2        24     9        0.000000       -0.110172         1
         4         3         2        24     9      180.000000       -0.011484         2
         4         3         2        24     9        0.000000        0.408420         3
         4         3         2        24     9      180.000000        0.004907         4
         4         3         2        25     9        0.000000       -0.110172         1
         4         3         2        25     9      180.000000       -0.011484         2
         4         3         2        25     9        0.000000        0.408420         3
         4         3         2        25     9      180.000000        0.004906         4
         4         5         6        30     9        0.000000       -0.110172         1
         4         5         6        30     9      180.000000       -0.011484         2
         4         5         6        30     9        0.000000        0.408420         3
         4         5         6        30     9      180.000000        0.004906         4
         4         5         6        31     9        0.000000       -0.110172         1
         4         5         6        31     9      180.000000       -0.011484         2
         4         5         6        31     9        0.000000        0.408420         3
         4         5         6        31     9      180.000000        0.004906         4
         5         4         3        26     9        0.000000        0.007174         1
         5         4         3        26     9      180.000000        0.103972         2
         5         4         3        26     9        0.000000        0.342335         3
         5         4         3        26     9      180.000000       -0.008057         4
         5         4         3        27     9        0.000000        0.007174         1
         5         4         3        27     9      180.000000        0.103972         2
         5         4         3        27     9        0.000000        0.342335         3
         5         4         3        27     9      180.000000       -0.008057         4
         5         4        22        36     9        0.000000        0.062222         1
         5         4        22        36     9      180.000000        0.164656         2
         5         4        22        36     9        0.000000        0.559493         3
         5         4        22        36     9      180.000000        0.034876         4
         5         4        22        40     9        0.000000        0.062222         1
         5         4        22        40     9      180.000000        0.164656         2
         5         4        22        40     9        0.000000        0.559493         3
         5         4        22        40     9      180.000000        0.034876         4
         5         4        22        46     9        0.000000        0.062222         1
         5         4        22        46     9      180.000000        0.164656         2
         5         4        22        46     9        0.000000        0.559493         3
         5         4        22        46     9      180.000000        0.034876         4
         5         4        23        37     9        0.000000        0.001962         1
         5         4        23        37     9      180.000000        0.017089         2
         5         4        23        37     9        0.000000        0.502026         3
         5         4        23        37     9      180.000000        0.013943         4
         5         4        23        38     9        0.000000        0.001962         1
         5         4        23        38     9      180.000000        0.017089         2
         5         4        23        38     9        0.000000        0.502026         3
         5         4        23        38     9      180.000000        0.013943         4
         5         4        23        39     9        0.000000        0.001962         1
         5         4        23        39     9      180.000000        0.017089         2
         5         4        23        39     9        0.000000        0.502026         3
         5         4        23        39     9      180.000000        0.013943         4
         5         6         1        16     9        0.000000       -1.147370         1
         5         6         1        16     9      180.000000        0.930488         2
         5         6         1        16     9        0.000000        0.497211         3
         5         6         1        16     9      180.000000        0.045762         4
         6         1         2        24     9        0.000000        0.061238         1
         6         1         2        24     9      180.000000        0.125634         2
         6         1         2        24     9        0.000000        0.910232         3
         6         1         2        24     9      180.000000        0.047377         4
         6         1         2        25     9        0.000000        0.061239         1
         6         1         2        25     9      180.000000        0.125634         2
         6         1         2        25     9        0.000000        0.910232         3
         6         1         2        25     9      180.000000        0.047377         4
         6         1        16        15     9        0.000000        2.597830         1
         6         1        16        15     9      180.000000        6.804659         2
         6         1        16        15     9        0.000000       -0.284690         3
         6         1        16        15     9      180.000000        0.127312         4
         6         1        16        17     9        0.000000        0.346246         1
         6         1        16        17     9      180.000000        7.768350         2
         6         1        16        17     9        0.000000       -0.457542         3
         6         1        16        17     9      180.000000        0.061801         4
         6         5         4        22     9        0.000000        3.630557         1
         6         5         4        22     9      180.000000       -1.235852         2
         6         5         4        22     9        0.000000        0.455688         3
         6         5         4        22     9      180.000000        0.423887         4
         6         5         4        23     9        0.000000       -2.449354         1
         6         5         4        23     9      180.000000        1.049946         2
         6         5         4        23     9        0.000000        0.264187         3
         6         5         4        23     9      180.000000        0.059308         4
         7         8         9        10     9        0.000000       -0.002850         1
         7         8         9        10     9      180.000000       16.412649         2
         7         8         9        10     9        0.000000       -1.008107         3
         7         8         9        10     9      180.000000       -0.389646         4
         7         8         9        19     9        0.000000        0.154105         1
         7         8         9        19     9      180.000000       16.281452         2
         7         8         9        19     9        0.000000        0.004738         3
         7         8         9        19     9      180.000000       -0.514603         4
         7        12        11        10     9        0.000000       -0.004110         1
         7        12        11        10     9      180.000000       18.892709         2
         7        12        11        10     9        0.000000       -1.579545         3
         7        12        11        10     9      180.000000       -0.479517         4
         7        12        11        33     9        0.000000       -0.002988         1
         7        12        11        33     9      180.000000       14.486529         2
         7        12        11        33     9        0.000000       -0.765923         3
         7        12        11        33     9      180.000000        0.028058         4
         7        13        14        15     9        0.000000       -0.134027         1
         7        13        14        15     9      180.000000       24.644041         2
         7        13        14        15     9        0.000000        0.681316         3
         7        13        14        15     9      180.000000       -0.742430         4
         7        13        18        17     9        0.000000       -0.174714         1
         7        13        18        17     9      180.000000        7.816349         2
         7        13        18        17     9        0.000000        0.172991         3
         7        13        18        17     9      180.000000       -0.656459         4
         7        13        18        21     9        0.000000        0.685946         1
         7        13        18        21     9      180.000000       10.829780         2
         7        13        18        21     9        0.000000        0.297512         3
         7        13        18        21     9      180.000000       -0.594389         4
         8         7        12        11     9        0.000000       -0.041917         1
         8         7        12        11     9      180.000000       18.602753         2
         8         7        12        11     9        0.000000       -1.508459         3
         8         7        12        11     9      180.000000       -0.367985         4
         8         7        12        34     9        0.000000        0.010731         1
         8         7        12        34     9      180.000000       14.321460         2
         8         7        12        34     9        0.000000       -0.612551         3
         8         7        12        34     9      180.000000        0.116066         4
         8         7        13        14     9        0.000000       -2.651736         1
         8         7        13        14     9      180.000000        2.857615         2
         8         7        13        14     9        0.000000        0.544266         3
         8         7        13        14     9      180.000000       -0.204156         4
         8         7        13        18     9        0.000000        2.397983         1
         8         7        13        18     9      180.000000       -0.307074         2
         8         7        13        18     9        0.000000        0.690890         3
         8         7        13        18     9      180.000000       -0.029063         4
         8         9        10        11     9        0.000000        0.014733         1
         8         9        10        11     9      180.000000       17.989214         2
         8         9        10        11     9        0.000000       -1.144844         3
         8         9        10        11     9      180.000000       -0.419331         4
         8         9        10        32     9        0.000000        0.118544         1
         8         9        10        32     9      180.000000       13.407008         2
         8         9        10        32     9        0.000000       -0.432892         3
         8         9        10        32     9      180.000000        0.071731         4
         9         8         7        12     9        0.000000       -0.148737         1
         9         8         7        12     9      180.000000       17.322077         2
         9         8         7        12     9        0.000000       -1.187514         3
         9         8         7        12     9      180.000000       -0.512019         4
         9         8         7        13     9        0.000000        0.125063         1
         9         8         7        13     9      180.000000       13.401917         2
         9         8         7        13     9        0.000000       -0.292094         3
         9         8         7        13     9      180.000000       -0.318235         4
         9        10        11        12     9        0.000000       -0.015052         1
         9        10        11        12     9      180.000000       18.787087         2
         9        10        11        12     9        0.000000       -1.441663         3
         9        10        11        12     9      180.000000       -0.417482         4
         9        10        11        33     9        0.000000        0.039096         1
         9        10        11        33     9      180.000000       14.176347         2
         9        10        11        33     9        0.000000       -0.528023         3
         9        10        11        33     9      180.000000        0.072992         4
        10         9         8        20     9        0.000000        0.138716         1
        10         9         8        20     9      180.000000       17.502714         2
        10         9         8        20     9        0.000000        0.086590         3
        10         9         8        20     9      180.000000       -0.504530         4
        10        11        12        34     9        0.000000        0.056214         1
        10        11        12        34     9      180.000000       14.986210         2
        10        11        12        34     9        0.000000       -0.720986         3
        10        11        12        34     9      180.000000        0.071359         4
        11        10         9        19     9        0.000000        0.378297         1
        11        10         9        19     9      180.000000       19.840271         2
        11        10         9        19     9        0.000000        0.460777         3
        11        10         9        19     9      180.000000       -0.662431         4
        11        12         7        13     9        0.000000        0.275674         1
        11        12         7        13     9      180.000000       16.707215         2
        11        12         7        13     9        0.000000       -0.029505         3
        11        12         7        13     9      180.000000       -0.314156         4
        12         7         8        20     9        0.000000        0.444232         1
        12         7         8        20     9      180.000000       18.842157         2
        12         7         8        20     9        0.000000        0.256796         3
        12         7         8        20     9      180.000000       -0.878231         4
        12         7        13        14     9        0.000000        0.845368         1
        12         7        13        14     9      180.000000        3.467192         2
        12         7        13        14     9        0.000000       -0.185481         3
        12         7        13        14     9      180.000000        0.032678         4
        12         7        13        18     9        0.000000       -0.946787         1
        12         7        13        18     9      180.000000        2.091706         2
        12         7        13        18     9        0.000000        0.002452         3
        12         7        13        18     9      180.000000        0.006661         4
        12        11        10        32     9        0.000000        0.071283         1
        12        11        10        32     9      180.000000       14.058772         2
        12        11        10        32     9        0.000000       -0.744499         3
        12        11        10        32     9      180.000000        0.124991         4
        13         7         8        20     9        0.000000        0.127576         1
        13         7         8        20     9      180.000000       15.995469         2
        13         7         8        20     9        0.000000        0.235315         3
        13         7         8        20     9      180.000000       -0.809447         4
        13         7        12        34     9        0.000000       -0.068766         1
        13         7        12        34     9      180.000000       13.164838         2
        13         7        12        34     9        0.000000       -0.267667         3
        13         7        12        34     9      180.000000        0.190665         4
        13        14        15        16     9        0.000000       -0.042300         1
        13        14        15        16     9      180.000000       20.768118         2
        13        14        15        16     9        0.000000       -0.968707         3
        13        14        15        16     9      180.000000       -0.293593         4
        13        14        15        41     9        0.000000        0.713862         1
        13        14        15        41     9      180.000000       18.714667         2
        13        14        15        41     9        0.000000       -0.089767         3
        13        14        15        41     9      180.000000       -0.071592         4
        13        18        17        16     9        0.000000        0.384214         1
        13        18        17        16     9      180.000000       18.868600         2
        13        18        17        16     9        0.000000       -0.211683         3
        13        18        17        16     9      180.000000       -0.316128         4
        13        18        21        35     9        0.000000        1.900474         1
        13        18        21        35     9      180.000000        5.432798         2
        13        18        21        35     9        0.000000        0.671063         3
        13        18        21        35     9      180.000000        0.093555         4
        13        18        21        42     9        0.000000       -2.105552         1
        13        18        21        42     9      180.000000        7.456465         2
        13        18        21        42     9        0.000000       -0.331611         3
        13        18        21        42     9      180.000000       -0.210236         4
        14        13        18        17     9        0.000000       -1.432046         1
        14        13        18        17     9      180.000000        6.150732         2
        14        13        18        17     9        0.000000        0.341171         3
        14        13        18        17     9      180.000000       -0.776705         4
        14        13        18        21     9        0.000000        0.582469         1
        14        13        18        21     9      180.000000        9.156919         2
        14        13        18        21     9        0.000000        0.211506         3
        14        13        18        21     9      180.000000       -0.770021         4
        14        15        16        17     9        0.000000       -1.405517         1
        14        15        16        17     9      180.000000        8.895785         2
        14        15        16        17     9        0.000000        0.107087         3
        14        15        16        17     9      180.000000       -0.883110         4
        15        14        13        18     9        0.000000       -0.110498         1
        15        14        13        18     9      180.000000       23.043415         2
        15        14        13        18     9        0.000000       -0.682520         3
        15        14        13        18     9      180.000000       -0.303397         4
        15        16        17        18     9        0.000000        1.205382         1
        15        16        17        18     9      180.000000       14.282423         2
        15        16        17        18     9        0.000000        0.378811         3
        15        16        17        18     9      180.000000       -0.525148         4
        16         1         2        24     9        0.000000        0.038247         1
        16         1         2        24     9      180.000000        0.019542         2
        16         1         2        24     9        0.000000        0.604579         3
        16         1         2        24     9      180.000000       -0.013778         4
        16         1         2        25     9        0.000000        0.038248         1
        16         1         2        25     9      180.000000        0.019542         2
        16         1         2        25     9        0.000000        0.604579         3
        16         1         2        25     9      180.000000       -0.013778         4
        16         1         6        30     9        0.000000        0.038248         1
        16         1         6        30     9      180.000000        0.019542         2
        16         1         6        30     9        0.000000        0.604579         3
        16         1         6        30     9      180.000000       -0.013778         4
        16         1         6        31     9        0.000000        0.038248         1
        16         1         6        31     9      180.000000        0.019542         2
        16         1         6        31     9        0.000000        0.604579         3
        16         1         6        31     9      180.000000       -0.013778         4
        16        17        18        21     9        0.000000        0.829986         1
        16        17        18        21     9      180.000000       23.794908         2
        16        17        18        21     9        0.000000        0.783180         3
        16        17        18        21     9      180.000000       -0.806989         4
        17        16        15        41     9        0.000000       -0.372853         1
        17        16        15        41     9      180.000000        7.403326         2
        17        16        15        41     9        0.000000       -0.317307         3
        17        16        15        41     9      180.000000       -0.306286         4
        17        18        21        35     9        0.000000       -1.568345         1
        17        18        21        35     9      180.000000        7.622675         2
        17        18        21        35     9        0.000000       -0.156292         3
        17        18        21        35     9      180.000000        0.115348         4
        17        18        21        42     9        0.000000       10.730445         1
        17        18        21        42     9      180.000000        6.246290         2
        17        18        21        42     9        0.000000       -0.233446         3
        17        18        21        42     9      180.000000       -0.075259         4
        18        21        35        43     9        0.000000        0.008829         1
        18        21        35        43     9      180.000000        0.006298         2
        18        21        35        43     9        0.000000        0.191374         3
        18        21        35        43     9      180.000000        0.003009         4
        18        21        35        44     9        0.000000        0.008829         1
        18        21        35        44     9      180.000000        0.006298         2
        18        21        35        44     9        0.000000        0.191374         3
        18        21        35        44     9      180.000000        0.003009         4
        18        21        35        45     9        0.000000        0.008829         1
        18        21        35        45     9      180.000000        0.006298         2
        18        21        35        45     9        0.000000        0.191374         3
        18        21        35        45     9      180.000000        0.003009         4
        19         9         8        20     9        0.000000       -0.205349         1
        19         9         8        20     9      180.000000       19.002199         2
        19         9         8        20     9        0.000000        0.253249         3
        19         9         8        20     9      180.000000       -1.011539         4
        19         9        10        32     9        0.000000        0.106997         1
        19         9        10        32     9      180.000000       13.913808         2
        19         9        10        32     9        0.000000       -0.103000         3
        19         9        10        32     9      180.000000        0.172748         4
        22         4         3        26     9        0.000000       -0.169322         1
        22         4         3        26     9      180.000000        0.053936         2
        22         4         3        26     9        0.000000        0.536176         3
        22         4         3        26     9      180.000000       -0.087261         4
        22         4         3        27     9        0.000000       -0.169322         1
        22         4         3        27     9      180.000000        0.053936         2
        22         4         3        27     9        0.000000        0.536176         3
        22         4         3        27     9      180.000000       -0.087261         4
        22         4         5        28     9        0.000000       -0.169322         1
        22         4         5        28     9      180.000000        0.053936         2
        22         4         5        28     9        0.000000        0.536176         3
        22         4         5        28     9      180.000000       -0.087261         4
        22         4         5        29     9        0.000000       -0.169322         1
        22         4         5        29     9      180.000000        0.053936         2
        22         4         5        29     9        0.000000        0.536176         3
        22         4         5        29     9      180.000000       -0.087261         4
        22         4        23        37     9        0.000000       -0.256019         1
        22         4        23        37     9      180.000000       -0.145327         2
        22         4        23        37     9        0.000000        0.609264         3
        22         4        23        37     9      180.000000        0.002710         4
        22         4        23        38     9        0.000000       -0.256019         1
        22         4        23        38     9      180.000000       -0.145327         2
        22         4        23        38     9        0.000000        0.609264         3
        22         4        23        38     9      180.000000        0.002710         4
        22         4        23        39     9        0.000000       -0.256019         1
        22         4        23        39     9      180.000000       -0.145327         2
        22         4        23        39     9        0.000000        0.609264         3
        22         4        23        39     9      180.000000        0.002710         4
        23         4         3        26     9        0.000000        0.063473         1
        23         4         3        26     9      180.000000        0.001370         2
        23         4         3        26     9        0.000000        0.453990         3
        23         4         3        26     9      180.000000        0.000725         4
        23         4         3        27     9        0.000000        0.063473         1
        23         4         3        27     9      180.000000        0.001370         2
        23         4         3        27     9        0.000000        0.453990         3
        23         4         3        27     9      180.000000        0.000725         4
        23         4         5        28     9        0.000000        0.063473         1
        23         4         5        28     9      180.000000        0.001370         2
        23         4         5        28     9        0.000000        0.453990         3
        23         4         5        28     9      180.000000        0.000725         4
        23         4         5        29     9        0.000000        0.063473         1
        23         4         5        29     9      180.000000        0.001370         2
        23         4         5        29     9        0.000000        0.453990         3
        23         4         5        29     9      180.000000        0.000725         4
        23         4        22        36     9        0.000000       -0.241237         1
        23         4        22        36     9      180.000000        0.219200         2
        23         4        22        36     9        0.000000        0.596224         3
        23         4        22        36     9      180.000000        0.018226         4
        23         4        22        40     9        0.000000       -0.241237         1
        23         4        22        40     9      180.000000        0.219200         2
        23         4        22        40     9        0.000000        0.596224         3
        23         4        22        40     9      180.000000        0.018226         4
        23         4        22        46     9        0.000000       -0.241237         1
        23         4        22        46     9      180.000000        0.219200         2
        23         4        22        46     9        0.000000        0.596224         3
        23         4        22        46     9      180.000000        0.018226         4
        24         2         3        26     9        0.000000       -0.008238         1
        24         2         3        26     9      180.000000        0.010356         2
        24         2         3        26     9        0.000000        0.419133         3
        24         2         3        26     9      180.000000       -0.004233         4
        24         2         3        27     9        0.000000       -0.008238         1
        24         2         3        27     9      180.000000        0.010356         2
        24         2         3        27     9        0.000000        0.419133         3
        24         2         3        27     9      180.000000       -0.004233         4
        25         2         3        26     9        0.000000       -0.008238         1
        25         2         3        26     9      180.000000        0.010357         2
        25         2         3        26     9        0.000000        0.419133         3
        25         2         3        26     9      180.000000       -0.004232         4
        25         2         3        27     9        0.000000       -0.008238         1
        25         2         3        27     9      180.000000        0.010357         2
        25         2         3        27     9        0.000000        0.419133         3
        25         2         3        27     9      180.000000       -0.004232         4
        28         5         6        30     9        0.000000       -0.008238         1
        28         5         6        30     9      180.000000        0.010357         2
        28         5         6        30     9        0.000000        0.419133         3
        28         5         6        30     9      180.000000       -0.004232         4
        28         5         6        31     9        0.000000       -0.008238         1
        28         5         6        31     9      180.000000        0.010357         2
        28         5         6        31     9        0.000000        0.419133         3
        28         5         6        31     9      180.000000       -0.004232         4
        29         5         6        30     9        0.000000       -0.008238         1
        29         5         6        30     9      180.000000        0.010357         2
        29         5         6        30     9        0.000000        0.419133         3
        29         5         6        30     9      180.000000       -0.004232         4
        29         5         6        31     9        0.000000       -0.008238         1
        29         5         6        31     9      180.000000        0.010357         2
        29         5         6        31     9        0.000000        0.419133         3
        29         5         6        31     9      180.000000       -0.004232         4
        32        10        11        33     9        0.000000       -0.213817         1
        32        10        11        33     9      180.000000       11.349869         2
        32        10        11        33     9        0.000000       -0.597407         3
        32        10        11        33     9      180.000000        0.253272         4
        33        11        12        34     9        0.000000       -0.238170         1
        33        11        12        34     9      180.000000       12.190812         2
        33        11        12        34     9        0.000000       -0.736835         3
        33        11        12        34     9      180.000000        0.271760         4
        42        21        35        43     9        0.000000       -0.015731         1
        42        21        35        43     9      180.000000        0.042998         2
        42        21        35        43     9        0.000000        0.466501         3
        42        21        35        43     9      180.000000        0.003048         4
        42        21        35        44     9        0.000000       -0.015731         1
        42        21        35        44     9      180.000000        0.042998         2
        42        21        35        44     9        0.000000        0.466501         3
        42        21        35        44     9      180.000000        0.003048         4
        42        21        35        45     9        0.000000       -0.015731         1
        42        21        35        45     9      180.000000        0.042998         2
        42        21        35        45     9        0.000000        0.466501         3
        42        21        35        45     9      180.000000        0.003048         4

[ dihedrals ] ; impropers
;       ai        aj        ak        al funct           phase               k        pn
        11        10        12        33     4      180.000000        1.660399         2
        11        12        33        10     4      180.000000        1.660399         2
        11        33        10        12     4      180.000000        1.660399         2
        18        13        17        21     4      180.000000        4.831497         2
        18        17        21        13     4      180.000000        4.831497         2
        18        21        13        17     4      180.000000        4.831497         2

[ pairs ]
;       ai        aj funct
         1         4     1
         1        14     1
         1        18     1
         1        26     1
         1        27     1
         1        28     1
         1        29     1
         1        41     1
         2         5     1
         2        15     1
         2        17     1
         2        22     1
         2        23     1
         2        30     1
         2        31     1
         3         6     1
         3        16     1
         3        28     1
         3        29     1
         3        36     1
         3        37     1
         3        38     1
         3        39     1
         3        40     1
         3        46     1
         4        24     1
         4        25     1
         4        30     1
         4        31     1
         5        16     1
         5        26     1
         5        27     1
         5        36     1
         5        37     1
         5        38     1
         5        39     1
         5        40     1
         5        46     1
         6        15     1
         6        17     1
         6        22     1
         6        23     1
         6        24     1
         6        25     1
         7        10     1
         7        15     1
         7        17     1
         7        19     1
         7        21     1
         7        33     1
         8        11     1
         8        14     1
         8        18     1
         8        32     1
         8        34     1
         9        12     1
         9        13     1
         9        33     1
        10        20     1
        10        34     1
        11        13     1
        11        19     1
        12        14     1
        12        18     1
        12        20     1
        12        32     1
        13        16     1
        13        20     1
        13        34     1
        13        35     1
        13        41     1
        13        42     1
        14        17     1
        14        21     1
        15        18     1
        16        21     1
        16        24     1
        16        25     1
        16        30     1
        16        31     1
        17        35     1
        17        41     1
        17        42     1
        18        43     1
        18        44     1
        18        45     1
        19        20     1
        19        32     1
        22        26     1
        22        27     1
        22        28     1
        22        29     1
        22        37     1
        22        38     1
        22        39     1
        23        26     1
        23        27     1
        23        28     1
        23        29     1
        23        36     1
        23        40     1
        23        46     1
        24        26     1
        24        27     1
        25        26     1
        25        27     1
        28        30     1
        28        31     1
        29        30     1
        29        31     1
        32        33     1
        33        34     1
        42        43     1
        42        44     1
        42        45     1
