; ITP file created by ByteFF-ML, 2026-02-21 07:47:24.851528

[ atomtypes ]
;name           bonded.type        at.num        mass        charge   ptype           sigma         epsilon
 n0bf                                   7      0.0000       0.00000       A     3.19541e-01     9.03422e-01
 c1bf                                   6      0.0000       0.00000       A     3.39981e-01     4.51019e-01
 c2bf                                   6      0.0000       0.00000       A     3.39728e-01     4.52409e-01
 c3bf                                   6      0.0000       0.00000       A     3.39953e-01     4.42911e-01
 c4bf                                   6      0.0000       0.00000       A     3.39728e-01     4.52409e-01
 c5bf                                   6      0.0000       0.00000       A     3.39981e-01     4.51019e-01
 c6bf                                   6      0.0000       0.00000       A     3.31584e-01     4.13805e-01
 c7bf                                   6      0.0000       0.00000       A     3.31595e-01     4.14362e-01
 c8bf                                   6      0.0000       0.00000       A     3.31494e-01     4.12772e-01
 c9bf                                   6      0.0000       0.00000       A     3.31490e-01     4.12710e-01
 c10bf                                  6      0.0000       0.00000       A     3.31463e-01     4.13230e-01
 c11bf                                  6      0.0000       0.00000       A     3.31472e-01     4.12337e-01
 c12bf                                  6      0.0000       0.00000       A     3.31594e-01     4.14992e-01
 c13bf                                  6      0.0000       0.00000       A     3.31581e-01     4.14068e-01
 n14bf                                  7      0.0000       0.00000       A     3.38456e-01     3.95404e-01
 c15bf                                  6      0.0000       0.00000       A     3.31292e-01     4.15982e-01
 n16bf                                  7      0.0000       0.00000       A     3.38322e-01     3.92331e-01
 c17bf                                  6      0.0000       0.00000       A     3.31038e-01     4.12137e-01
 cl18bf                                17      0.0000       0.00000       A     3.46745e-01     1.10550e+00
 cl19bf                                17      0.0000       0.00000       A     3.46947e-01     1.10869e+00
 n20bf                                  7      0.0000       0.00000       A     3.36694e-01     4.67773e-01
 n21bf                                  7      0.0000       0.00000       A     2.76368e-01     4.74797e+00
 c22bf                                  6      0.0000       0.00000       A     3.39520e-01     4.49397e-01
 h23bf                                  1      0.0000       0.00000       A     2.42224e-01     8.69267e-02
 h24bf                                  1      0.0000       0.00000       A     2.42224e-01     8.69267e-02
 h25bf                                  1      0.0000       0.00000       A     2.59993e-01     8.73289e-02
 h26bf                                  1      0.0000       0.00000       A     2.59993e-01     8.73289e-02
 h27bf                                  1      0.0000       0.00000       A     2.59993e-01     8.73289e-02
 h28bf                                  1      0.0000       0.00000       A     2.59993e-01     8.73289e-02
 h29bf                                  1      0.0000       0.00000       A     2.42224e-01     8.69267e-02
 h30bf                                  1      0.0000       0.00000       A     2.42224e-01     8.69267e-02
 h31bf                                  1      0.0000       0.00000       A     2.62433e-01     6.69663e-02
 h32bf                                  1      0.0000       0.00000       A     2.62502e-01     6.73461e-02
 h33bf                                  1      0.0000       0.00000       A     2.62467e-01     6.72951e-02
 h34bf                                  1      0.0000       0.00000       A     1.10628e-01     4.12153e-02
 h35bf                                  1      0.0000       0.00000       A     2.59831e-01     8.81397e-02
 h36bf                                  1      0.0000       0.00000       A     2.59831e-01     8.81397e-02
 h37bf                                  1      0.0000       0.00000       A     2.59831e-01     8.81397e-02
 h38bf                                  1      0.0000       0.00000       A     1.10628e-01     4.12153e-02
 h39bf                                  1      0.0000       0.00000       A     1.10420e-01     4.16782e-02
 h40bf                                  1      0.0000       0.00000       A     2.53390e-01     6.73749e-02
 h41bf                                  1      0.0000       0.00000       A     1.10420e-01     4.16782e-02
 h42bf                                  1      0.0000       0.00000       A     1.10628e-01     4.12153e-02

[ moleculetype ]
;name             nrexcl
 Example_1             3

[ atoms ]
;       nr            type      resi   res      atom      cgnr      charge          mass ; qtot
         1            n0bf         1   UNL        n0         1    -0.75137       14.0070 ; qtot   -0.751
         2            c1bf         1   UNL        c1         2     0.21685       12.0110 ; qtot   -0.535
         3            c2bf         1   UNL        c2         3    -0.11988       12.0110 ; qtot   -0.654
         4            c3bf         1   UNL        c3         4     0.17348       12.0110 ; qtot   -0.481
         5            c4bf         1   UNL        c4         5    -0.11988       12.0110 ; qtot   -0.601
         6            c5bf         1   UNL        c5         6     0.21685       12.0110 ; qtot   -0.384
         7            c6bf         1   UNL        c6         7     0.00009       12.0110 ; qtot   -0.384
         8            c7bf         1   UNL        c7         8     0.12922       12.0110 ; qtot   -0.255
         9            c8bf         1   UNL        c8         9     0.12407       12.0110 ; qtot   -0.131
        10            c9bf         1   UNL        c9        10    -0.09179       12.0110 ; qtot   -0.222
        11           c10bf         1   UNL       c10        11    -0.10155       12.0110 ; qtot   -0.324
        12           c11bf         1   UNL       c11        12    -0.09367       12.0110 ; qtot   -0.418
        13           c12bf         1   UNL       c12        13    -0.25006       12.0110 ; qtot   -0.668
        14           c13bf         1   UNL       c13        14     0.18435       12.0110 ; qtot   -0.483
        15           n14bf         1   UNL       n14        15    -0.26852       14.0070 ; qtot   -0.752
        16           c15bf         1   UNL       c15        16     0.40661       12.0110 ; qtot   -0.345
        17           n16bf         1   UNL       n16        17    -0.32837       14.0070 ; qtot   -0.674
        18           c17bf         1   UNL       c17        18     0.39370       12.0110 ; qtot   -0.280
        19          cl18bf         1   UNL      cl18        19    -0.18112       35.4530 ; qtot   -0.461
        20          cl19bf         1   UNL      cl19        20    -0.17407       35.4530 ; qtot   -0.635
        21           n20bf         1   UNL       n20        21    -1.01070       14.0070 ; qtot   -1.646
        22           n21bf         1   UNL       n21        22    -0.99988       14.0070 ; qtot   -2.646
        23           c22bf         1   UNL       c22        23    -0.12370       12.0110 ; qtot   -2.769
        24           h23bf         1   UNL       h23        24     0.07656        1.0080 ; qtot   -2.693
        25           h24bf         1   UNL       h24        25     0.07656        1.0080 ; qtot   -2.616
        26           h25bf         1   UNL       h25        26     0.08264        1.0080 ; qtot   -2.534
        27           h26bf         1   UNL       h26        27     0.08264        1.0080 ; qtot   -2.451
        28           h27bf         1   UNL       h27        28     0.08264        1.0080 ; qtot   -2.368
        29           h28bf         1   UNL       h28        29     0.08264        1.0080 ; qtot   -2.286
        30           h29bf         1   UNL       h29        30     0.07656        1.0080 ; qtot   -2.209
        31           h30bf         1   UNL       h30        31     0.07656        1.0080 ; qtot   -2.133
        32           h31bf         1   UNL       h31        32     0.13777        1.0080 ; qtot   -1.995
        33           h32bf         1   UNL       h32        33     0.12721        1.0080 ; qtot   -1.868
        34           h33bf         1   UNL       h33        34     0.12697        1.0080 ; qtot   -1.741
        35           h34bf         1   UNL       h34        35     0.52124        1.0080 ; qtot   -1.219
        36           h35bf         1   UNL       h35        36     0.07436        1.0080 ; qtot   -1.145
        37           h36bf         1   UNL       h36        37     0.07436        1.0080 ; qtot   -1.071
        38           h37bf         1   UNL       h37        38     0.07436        1.0080 ; qtot   -0.996
        39           h38bf         1   UNL       h38        39     0.52124        1.0080 ; qtot   -0.475
        40           h39bf         1   UNL       h39        40     0.46340        1.0080 ; qtot   -0.012
        41           h40bf         1   UNL       h40        41     0.02700        1.0080 ; qtot    0.015
        42           h41bf         1   UNL       h41        42     0.46340        1.0080 ; qtot    0.479
        43           h42bf         1   UNL       h42        43     0.52123        1.0080 ; qtot    1.000

[ bonds ]
;       ai        aj funct               r               k
         1         2     1        0.146246   192923.438135
         1         6     1        0.146246   192923.438135
         1        16     1        0.136908   307878.225244
         2         3     1        0.153923   173079.010107
         2        24     1        0.109265   301353.161816
         2        25     1        0.109265   301353.161816
         3         4     1        0.153932   169886.960815
         3        26     1        0.109403   300377.210107
         3        27     1        0.109403   300377.210107
         4         5     1        0.153932   169886.960815
         4        22     1        0.155311    81285.091577
         4        23     1        0.152862   185224.433789
         5         6     1        0.153923   173079.010107
         5        28     1        0.109403   300377.210107
         5        29     1        0.109403   300377.210107
         6        30     1        0.109265   301353.161816
         6        31     1        0.109265   301353.161816
         7         8     1        0.140979   255588.618848
         7        12     1        0.140577   283247.759863
         7        13     1        0.148311   217264.133936
         8         9     1        0.140389   278327.473926
         8        20     1        0.174913   153035.047876
         9        10     1        0.139782   294236.990918
         9        19     1        0.174888   154987.410962
        10        11     1        0.139557   310905.521875
        10        32     1        0.108429   326455.884961
        11        12     1        0.139435   318942.407715
        11        33     1        0.108554   322807.398145
        12        34     1        0.108507   322042.382959
        13        14     1        0.139291   306464.312109
        13        18     1        0.142051   241617.010937
        14        15     1        0.133610   349191.777734
        14        41     1        0.108882   311726.642090
        15        16     1        0.135484   249332.205811
        16        17     1        0.135066   265212.482813
        17        18     1        0.133687   322432.385693
        18        21     1        0.137825   310604.592578
        21        40     1        0.101260   420823.931348
        21        42     1        0.101260   420823.931348
        22        35     1        0.102770   380670.861719
        22        39     1        0.102770   380670.861719
        22        43     1        0.102770   380670.861719
        23        36     1        0.109334   304479.006152
        23        37     1        0.109334   304479.006152
        23        38     1        0.109334   304479.006152

[ angles ]
;       ai        aj        ak funct           theta             cth
         1         2         3     1      110.240318      646.989625
         1         2        24     1      109.403671      442.030828
         1         2        25     1      109.403671      442.030828
         1         6         5     1      110.240318      646.989625
         1         6        30     1      109.403671      442.030828
         1         6        31     1      109.403671      442.030828
         1        16        15     1      117.333397      574.995087
         1        16        17     1      116.716797      545.164296
         2         1         6     1      115.112442      471.956745
         2         1        16     1      120.421898      509.404490
         2         3         4     1      111.663742      622.862739
         2         3        26     1      109.250656      502.091843
         2         3        27     1      109.250656      502.091811
         3         2        24     1      110.129150      483.732960
         3         2        25     1      110.129150      483.732960
         3         4         5     1      110.569092      534.807019
         3         4        22     1      106.634377      675.767713
         3         4        23     1      112.592728      599.387623
         4         3        26     1      109.625450      487.418539
         4         3        27     1      109.625450      487.418539
         4         5         6     1      111.663742      622.862739
         4         5        28     1      109.625450      487.418539
         4         5        29     1      109.625450      487.418539
         4        22        35     1      111.194313      445.707501
         4        22        39     1      111.194313      445.707501
         4        22        43     1      111.194313      445.707501
         4        23        36     1      111.123024      496.118936
         4        23        37     1      111.123024      496.118936
         4        23        38     1      111.123024      496.118936
         5         4        22     1      106.634377      675.767713
         5         4        23     1      112.592728      599.387623
         5         6        30     1      110.129150      483.732960
         5         6        31     1      110.129150      483.732960
         6         1        16     1      120.421898      509.404490
         6         5        28     1      109.250656      502.091843
         6         5        29     1      109.250656      502.091843
         7         8         9     1      120.218124      597.865803
         7         8        20     1      119.959679      330.771516
         7        12        11     1      121.292160      695.578253
         7        12        34     1      118.459152      418.565225
         7        13        14     1      122.037598      515.774722
         7        13        18     1      122.737831      459.489273
         8         7        12     1      118.201370      586.910830
         8         7        13     1      122.444679      409.286157
         8         9        10     1      120.411423      587.240961
         8         9        19     1      121.285194      353.045238
         9         8        20     1      119.985291      383.713679
         9        10        11     1      119.581017      612.476477
         9        10        32     1      119.242844      414.415860
        10         9        19     1      118.180420      340.143316
        10        11        12     1      120.130577      724.623970
        10        11        33     1      119.692444      442.218270
        11        10        32     1      121.240067      418.362301
        11        12        34     1      120.194412      421.704693
        12         7        13     1      119.554054      463.021087
        12        11        33     1      120.163231      431.657143
        13        14        15     1      124.605606      716.971583
        13        14        41     1      119.363853      392.894876
        13        18        17     1      121.945435      684.551968
        13        18        21     1      121.753456      535.420899
        14        13        18     1      114.971634      840.915177
        14        15        16     1      115.867310      955.318746
        15        14        41     1      115.856796      381.859525
        15        16        17     1      125.249390      592.850506
        16        17        18     1      117.565331     1008.572302
        17        18        21     1      116.274452      628.266391
        18        21        40     1      115.648087      463.358496
        18        21        42     1      115.648094      463.358496
        22         4        23     1      106.513611      724.561723
        24         2        25     1      107.396446      347.046763
        26         3        27     1      106.859085      356.478288
        28         5        29     1      106.859085      356.478288
        30         6        31     1      107.396446      347.046763
        35        22        39     1      107.909775      400.797366
        35        22        43     1      107.909775      400.797366
        36        23        37     1      107.934082      360.937993
        36        23        38     1      107.934082      360.937993
        37        23        38     1      107.934082      360.937993
        39        22        43     1      107.909775      400.797366
        40        21        42     1      115.463928      336.780206

[ dihedrals ] ; propers for gromacs 4.5 or higher, use funct 9
;       ai        aj        ak        al funct           phase               k        pn
         1         2         3         4     9        0.000000        3.296778         1
         1         2         3         4     9      180.000000       -2.013947         2
         1         2         3         4     9        0.000000        0.298540         3
         1         2         3         4     9      180.000000       -0.014361         4
         1         2         3        26     9        0.000000        0.019258         1
         1         2         3        26     9      180.000000       -0.030477         2
         1         2         3        26     9        0.000000        0.340665         3
         1         2         3        26     9      180.000000       -0.004655         4
         1         2         3        27     9        0.000000        0.019258         1
         1         2         3        27     9      180.000000       -0.030477         2
         1         2         3        27     9        0.000000        0.340665         3
         1         2         3        27     9      180.000000       -0.004655         4
         1         6         5         4     9        0.000000        3.296778         1
         1         6         5         4     9      180.000000       -2.013947         2
         1         6         5         4     9        0.000000        0.298540         3
         1         6         5         4     9      180.000000       -0.014361         4
         1         6         5        28     9        0.000000        0.019258         1
         1         6         5        28     9      180.000000       -0.030477         2
         1         6         5        28     9        0.000000        0.340665         3
         1         6         5        28     9      180.000000       -0.004655         4
         1         6         5        29     9        0.000000        0.019258         1
         1         6         5        29     9      180.000000       -0.030477         2
         1         6         5        29     9        0.000000        0.340665         3
         1         6         5        29     9      180.000000       -0.004655         4
         1        16        15        14     9        0.000000        1.400946         1
         1        16        15        14     9      180.000000       15.450416         2
         1        16        15        14     9        0.000000        0.725944         3
         1        16        15        14     9      180.000000       -0.993260         4
         1        16        17        18     9        0.000000        2.061219         1
         1        16        17        18     9      180.000000       15.656560         2
         1        16        17        18     9        0.000000        0.558075         3
         1        16        17        18     9      180.000000       -1.096796         4
         2         1         6         5     9        0.000000        0.300442         1
         2         1         6         5     9      180.000000        0.270933         2
         2         1         6         5     9        0.000000        0.598156         3
         2         1         6         5     9      180.000000        0.070810         4
         2         1         6        30     9        0.000000        0.150083         1
         2         1         6        30     9      180.000000        0.094374         2
         2         1         6        30     9        0.000000        0.804044         3
         2         1         6        30     9      180.000000        0.048195         4
         2         1         6        31     9        0.000000        0.150083         1
         2         1         6        31     9      180.000000        0.094374         2
         2         1         6        31     9        0.000000        0.804044         3
         2         1         6        31     9      180.000000        0.048195         4
         2         1        16        15     9        0.000000        0.688935         1
         2         1        16        15     9      180.000000       10.388331         2
         2         1        16        15     9        0.000000       -0.280025         3
         2         1        16        15     9      180.000000       -0.969867         4
         2         1        16        17     9        0.000000        0.730829         1
         2         1        16        17     9      180.000000       10.074813         2
         2         1        16        17     9        0.000000       -0.387081         3
         2         1        16        17     9      180.000000       -0.872987         4
         2         3         4         5     9        0.000000        3.255797         1
         2         3         4         5     9      180.000000       -1.795673         2
         2         3         4         5     9        0.000000        0.110659         3
         2         3         4         5     9      180.000000        0.043987         4
         2         3         4        22     9        0.000000        3.430266         1
         2         3         4        22     9      180.000000       -1.258128         2
         2         3         4        22     9        0.000000        0.439758         3
         2         3         4        22     9      180.000000        0.400165         4
         2         3         4        23     9        0.000000       -2.296704         1
         2         3         4        23     9      180.000000        1.047034         2
         2         3         4        23     9        0.000000        0.258553         3
         2         3         4        23     9      180.000000        0.066530         4
         3         2         1         6     9        0.000000        0.300442         1
         3         2         1         6     9      180.000000        0.270933         2
         3         2         1         6     9        0.000000        0.598156         3
         3         2         1         6     9      180.000000        0.070810         4
         3         2         1        16     9        0.000000       -2.365683         1
         3         2         1        16     9      180.000000        0.518435         2
         3         2         1        16     9        0.000000        0.556826         3
         3         2         1        16     9      180.000000       -0.043300         4
         3         4         5         6     9        0.000000        3.255797         1
         3         4         5         6     9      180.000000       -1.795673         2
         3         4         5         6     9        0.000000        0.110659         3
         3         4         5         6     9      180.000000        0.043987         4
         3         4         5        28     9        0.000000        0.011339         1
         3         4         5        28     9      180.000000        0.105243         2
         3         4         5        28     9        0.000000        0.350568         3
         3         4         5        28     9      180.000000       -0.010935         4
         3         4         5        29     9        0.000000        0.011339         1
         3         4         5        29     9      180.000000        0.105243         2
         3         4         5        29     9        0.000000        0.350568         3
         3         4         5        29     9      180.000000       -0.010935         4
         3         4        22        35     9        0.000000        0.050460         1
         3         4        22        35     9      180.000000        0.143579         2
         3         4        22        35     9        0.000000        0.557225         3
         3         4        22        35     9      180.000000        0.022165         4
         3         4        22        39     9        0.000000        0.050460         1
         3         4        22        39     9      180.000000        0.143579         2
         3         4        22        39     9        0.000000        0.557225         3
         3         4        22        39     9      180.000000        0.022165         4
         3         4        22        43     9        0.000000        0.050460         1
         3         4        22        43     9      180.000000        0.143579         2
         3         4        22        43     9        0.000000        0.557225         3
         3         4        22        43     9      180.000000        0.022165         4
         3         4        23        36     9        0.000000       -0.001812         1
         3         4        23        36     9      180.000000        0.018931         2
         3         4        23        36     9        0.000000        0.497752         3
         3         4        23        36     9      180.000000        0.012723         4
         3         4        23        37     9        0.000000       -0.001812         1
         3         4        23        37     9      180.000000        0.018931         2
         3         4        23        37     9        0.000000        0.497752         3
         3         4        23        37     9      180.000000        0.012723         4
         3         4        23        38     9        0.000000       -0.001812         1
         3         4        23        38     9      180.000000        0.018931         2
         3         4        23        38     9        0.000000        0.497752         3
         3         4        23        38     9      180.000000        0.012723         4
         4         3         2        24     9        0.000000       -0.131602         1
         4         3         2        24     9      180.000000        0.011745         2
         4         3         2        24     9        0.000000        0.327792         3
         4         3         2        24     9      180.000000        0.003114         4
         4         3         2        25     9        0.000000       -0.131602         1
         4         3         2        25     9      180.000000        0.011745         2
         4         3         2        25     9        0.000000        0.327792         3
         4         3         2        25     9      180.000000        0.003114         4
         4         5         6        30     9        0.000000       -0.131602         1
         4         5         6        30     9      180.000000        0.011745         2
         4         5         6        30     9        0.000000        0.327792         3
         4         5         6        30     9      180.000000        0.003114         4
         4         5         6        31     9        0.000000       -0.131602         1
         4         5         6        31     9      180.000000        0.011745         2
         4         5         6        31     9        0.000000        0.327792         3
         4         5         6        31     9      180.000000        0.003114         4
         5         4         3        26     9        0.000000        0.011339         1
         5         4         3        26     9      180.000000        0.105243         2
         5         4         3        26     9        0.000000        0.350568         3
         5         4         3        26     9      180.000000       -0.010935         4
         5         4         3        27     9        0.000000        0.011339         1
         5         4         3        27     9      180.000000        0.105243         2
         5         4         3        27     9        0.000000        0.350568         3
         5         4         3        27     9      180.000000       -0.010935         4
         5         4        22        35     9        0.000000        0.050460         1
         5         4        22        35     9      180.000000        0.143579         2
         5         4        22        35     9        0.000000        0.557225         3
         5         4        22        35     9      180.000000        0.022165         4
         5         4        22        39     9        0.000000        0.050460         1
         5         4        22        39     9      180.000000        0.143579         2
         5         4        22        39     9        0.000000        0.557225         3
         5         4        22        39     9      180.000000        0.022165         4
         5         4        22        43     9        0.000000        0.050460         1
         5         4        22        43     9      180.000000        0.143579         2
         5         4        22        43     9        0.000000        0.557225         3
         5         4        22        43     9      180.000000        0.022165         4
         5         4        23        36     9        0.000000       -0.001812         1
         5         4        23        36     9      180.000000        0.018931         2
         5         4        23        36     9        0.000000        0.497752         3
         5         4        23        36     9      180.000000        0.012723         4
         5         4        23        37     9        0.000000       -0.001812         1
         5         4        23        37     9      180.000000        0.018931         2
         5         4        23        37     9        0.000000        0.497752         3
         5         4        23        37     9      180.000000        0.012723         4
         5         4        23        38     9        0.000000       -0.001812         1
         5         4        23        38     9      180.000000        0.018931         2
         5         4        23        38     9        0.000000        0.497752         3
         5         4        23        38     9      180.000000        0.012723         4
         5         6         1        16     9        0.000000       -2.365683         1
         5         6         1        16     9      180.000000        0.518435         2
         5         6         1        16     9        0.000000        0.556826         3
         5         6         1        16     9      180.000000       -0.043300         4
         6         1         2        24     9        0.000000        0.150083         1
         6         1         2        24     9      180.000000        0.094374         2
         6         1         2        24     9        0.000000        0.804044         3
         6         1         2        24     9      180.000000        0.048195         4
         6         1         2        25     9        0.000000        0.150083         1
         6         1         2        25     9      180.000000        0.094374         2
         6         1         2        25     9        0.000000        0.804044         3
         6         1         2        25     9      180.000000        0.048195         4
         6         1        16        15     9        0.000000        0.688935         1
         6         1        16        15     9      180.000000       10.388331         2
         6         1        16        15     9        0.000000       -0.280025         3
         6         1        16        15     9      180.000000       -0.969867         4
         6         1        16        17     9        0.000000        0.730829         1
         6         1        16        17     9      180.000000       10.074813         2
         6         1        16        17     9        0.000000       -0.387081         3
         6         1        16        17     9      180.000000       -0.872987         4
         6         5         4        22     9        0.000000        3.430266         1
         6         5         4        22     9      180.000000       -1.258128         2
         6         5         4        22     9        0.000000        0.439758         3
         6         5         4        22     9      180.000000        0.400165         4
         6         5         4        23     9        0.000000       -2.296704         1
         6         5         4        23     9      180.000000        1.047034         2
         6         5         4        23     9        0.000000        0.258553         3
         6         5         4        23     9      180.000000        0.066530         4
         7         8         9        10     9        0.000000       -0.023114         1
         7         8         9        10     9      180.000000       16.732683         2
         7         8         9        10     9        0.000000       -0.946340         3
         7         8         9        10     9      180.000000       -0.429773         4
         7         8         9        19     9        0.000000        0.222059         1
         7         8         9        19     9      180.000000       16.474718         2
         7         8         9        19     9        0.000000        0.039906         3
         7         8         9        19     9      180.000000       -0.527501         4
         7        12        11        10     9        0.000000        0.022431         1
         7        12        11        10     9      180.000000       18.990771         2
         7        12        11        10     9        0.000000       -1.543320         3
         7        12        11        10     9      180.000000       -0.450039         4
         7        12        11        33     9        0.000000       -0.017941         1
         7        12        11        33     9      180.000000       14.405146         2
         7        12        11        33     9        0.000000       -0.639828         3
         7        12        11        33     9      180.000000        0.066627         4
         7        13        14        15     9        0.000000        0.134269         1
         7        13        14        15     9      180.000000       16.106058         2
         7        13        14        15     9        0.000000        0.267378         3
         7        13        14        15     9      180.000000       -0.538494         4
         7        13        14        41     9        0.000000        0.175220         1
         7        13        14        41     9      180.000000       13.277126         2
         7        13        14        41     9        0.000000        0.052563         3
         7        13        14        41     9      180.000000        0.047987         4
         7        13        18        17     9        0.000000       -0.182153         1
         7        13        18        17     9      180.000000       11.162775         2
         7        13        18        17     9        0.000000       -0.126905         3
         7        13        18        17     9      180.000000       -0.339491         4
         7        13        18        21     9        0.000000       -0.167495         1
         7        13        18        21     9      180.000000       14.325148         2
         7        13        18        21     9        0.000000       -0.109074         3
         7        13        18        21     9      180.000000       -0.595098         4
         8         7        12        11     9        0.000000       -0.065761         1
         8         7        12        11     9      180.000000       18.828100         2
         8         7        12        11     9        0.000000       -1.400623         3
         8         7        12        11     9      180.000000       -0.413094         4
         8         7        12        34     9        0.000000        0.011645         1
         8         7        12        34     9      180.000000       14.269680         2
         8         7        12        34     9        0.000000       -0.486798         3
         8         7        12        34     9      180.000000        0.114275         4
         8         7        13        14     9        0.000000        0.789741         1
         8         7        13        14     9      180.000000        1.223962         2
         8         7        13        14     9        0.000000       -0.132431         3
         8         7        13        14     9      180.000000        0.009058         4
         8         7        13        18     9        0.000000        2.523514         1
         8         7        13        18     9      180.000000       -0.788768         2
         8         7        13        18     9        0.000000        0.941249         3
         8         7        13        18     9      180.000000       -0.062844         4
         8         9        10        11     9        0.000000       -0.016976         1
         8         9        10        11     9      180.000000       17.947141         2
         8         9        10        11     9        0.000000       -1.137460         3
         8         9        10        11     9      180.000000       -0.431669         4
         8         9        10        32     9        0.000000        0.144847         1
         8         9        10        32     9      180.000000       13.371193         2
         8         9        10        32     9        0.000000       -0.392303         3
         8         9        10        32     9      180.000000        0.074988         4
         9         8         7        12     9        0.000000       -0.093936         1
         9         8         7        12     9      180.000000       16.754417         2
         9         8         7        12     9        0.000000       -1.168682         3
         9         8         7        12     9      180.000000       -0.393699         4
         9         8         7        13     9        0.000000        0.311675         1
         9         8         7        13     9      180.000000       13.945334         2
         9         8         7        13     9        0.000000       -0.271704         3
         9         8         7        13     9      180.000000       -0.339127         4
         9        10        11        12     9        0.000000       -0.001427         1
         9        10        11        12     9      180.000000       18.898329         2
         9        10        11        12     9        0.000000       -1.446127         3
         9        10        11        12     9      180.000000       -0.461061         4
         9        10        11        33     9        0.000000        0.035367         1
         9        10        11        33     9      180.000000       14.151331         2
         9        10        11        33     9        0.000000       -0.500518         3
         9        10        11        33     9      180.000000        0.060072         4
        10         9         8        20     9        0.000000        0.117947         1
        10         9         8        20     9      180.000000       17.189567         2
        10         9         8        20     9        0.000000        0.051938         3
        10         9         8        20     9      180.000000       -0.475048         4
        10        11        12        34     9        0.000000        0.082885         1
        10        11        12        34     9      180.000000       14.679733         2
        10        11        12        34     9        0.000000       -0.715977         3
        10        11        12        34     9      180.000000        0.114299         4
        11        10         9        19     9        0.000000        0.404385         1
        11        10         9        19     9      180.000000       19.799021         2
        11        10         9        19     9        0.000000        0.435219         3
        11        10         9        19     9      180.000000       -0.659410         4
        11        12         7        13     9        0.000000        0.288664         1
        11        12         7        13     9      180.000000       16.931307         2
        11        12         7        13     9        0.000000       -0.140816         3
        11        12         7        13     9      180.000000       -0.283198         4
        12         7         8        20     9        0.000000        0.294629         1
        12         7         8        20     9      180.000000       17.251886         2
        12         7         8        20     9        0.000000        0.330736         3
        12         7         8        20     9      180.000000       -0.617835         4
        12         7        13        14     9        0.000000       -0.781744         1
        12         7        13        14     9      180.000000        2.879728         2
        12         7        13        14     9        0.000000        0.391456         3
        12         7        13        14     9      180.000000       -0.042875         4
        12         7        13        18     9        0.000000       -0.736450         1
        12         7        13        18     9      180.000000        1.699265         2
        12         7        13        18     9        0.000000       -0.362954         3
        12         7        13        18     9      180.000000        0.212282         4
        12        11        10        32     9        0.000000        0.016264         1
        12        11        10        32     9      180.000000       14.025209         2
        12        11        10        32     9        0.000000       -0.741650         3
        12        11        10        32     9      180.000000        0.129195         4
        13         7         8        20     9        0.000000       -0.026139         1
        13         7         8        20     9      180.000000       15.393153         2
        13         7         8        20     9        0.000000        0.166899         3
        13         7         8        20     9      180.000000       -0.546982         4
        13         7        12        34     9        0.000000       -0.033408         1
        13         7        12        34     9      180.000000       13.653007         2
        13         7        12        34     9        0.000000       -0.286514         3
        13         7        12        34     9      180.000000        0.203403         4
        13        14        15        16     9        0.000000       -0.300953         1
        13        14        15        16     9      180.000000       19.405368         2
        13        14        15        16     9        0.000000       -1.254161         3
        13        14        15        16     9      180.000000       -0.317462         4
        13        18        17        16     9        0.000000       -0.162556         1
        13        18        17        16     9      180.000000       18.826013         2
        13        18        17        16     9        0.000000       -0.612046         3
        13        18        17        16     9      180.000000       -0.439842         4
        13        18        21        40     9        0.000000        2.902184         1
        13        18        21        40     9      180.000000        7.016687         2
        13        18        21        40     9        0.000000        0.661675         3
        13        18        21        40     9      180.000000        0.227025         4
        13        18        21        42     9        0.000000        2.902184         1
        13        18        21        42     9      180.000000        7.016687         2
        13        18        21        42     9        0.000000        0.661675         3
        13        18        21        42     9      180.000000        0.227025         4
        14        13        18        17     9        0.000000       -0.129005         1
        14        13        18        17     9      180.000000       11.021164         2
        14        13        18        17     9        0.000000        0.242503         3
        14        13        18        17     9      180.000000       -0.494536         4
        14        13        18        21     9        0.000000        0.165095         1
        14        13        18        21     9      180.000000       14.601941         2
        14        13        18        21     9        0.000000        0.222613         3
        14        13        18        21     9      180.000000       -0.720645         4
        14        15        16        17     9        0.000000        0.776539         1
        14        15        16        17     9      180.000000        9.958043         2
        14        15        16        17     9        0.000000        0.771410         3
        14        15        16        17     9      180.000000       -0.677275         4
        15        14        13        18     9        0.000000       -0.145784         1
        15        14        13        18     9      180.000000       17.367190         2
        15        14        13        18     9        0.000000       -0.746284         3
        15        14        13        18     9      180.000000       -0.592768         4
        15        16        17        18     9        0.000000        0.977620         1
        15        16        17        18     9      180.000000        9.279800         2
        15        16        17        18     9        0.000000        0.477097         3
        15        16        17        18     9      180.000000       -0.298118         4
        16         1         2        24     9        0.000000        0.032030         1
        16         1         2        24     9      180.000000       -0.145876         2
        16         1         2        24     9        0.000000        0.433013         3
        16         1         2        24     9      180.000000        0.030306         4
        16         1         2        25     9        0.000000        0.032030         1
        16         1         2        25     9      180.000000       -0.145876         2
        16         1         2        25     9        0.000000        0.433013         3
        16         1         2        25     9      180.000000        0.030306         4
        16         1         6        30     9        0.000000        0.032030         1
        16         1         6        30     9      180.000000       -0.145876         2
        16         1         6        30     9        0.000000        0.433013         3
        16         1         6        30     9      180.000000        0.030306         4
        16         1         6        31     9        0.000000        0.032030         1
        16         1         6        31     9      180.000000       -0.145876         2
        16         1         6        31     9        0.000000        0.433013         3
        16         1         6        31     9      180.000000        0.030306         4
        16        15        14        41     9        0.000000        0.262858         1
        16        15        14        41     9      180.000000       17.937158         2
        16        15        14        41     9        0.000000       -0.097301         3
        16        15        14        41     9      180.000000       -0.196738         4
        16        17        18        21     9        0.000000       -0.393823         1
        16        17        18        21     9      180.000000       23.357948         2
        16        17        18        21     9        0.000000        0.081141         3
        16        17        18        21     9      180.000000       -0.889915         4
        17        18        21        40     9        0.000000        2.747967         1
        17        18        21        40     9      180.000000        9.878381         2
        17        18        21        40     9        0.000000       -0.355740         3
        17        18        21        40     9      180.000000        0.183634         4
        17        18        21        42     9        0.000000        2.747967         1
        17        18        21        42     9      180.000000        9.878381         2
        17        18        21        42     9        0.000000       -0.355740         3
        17        18        21        42     9      180.000000        0.183634         4
        18        13        14        41     9        0.000000        0.309420         1
        18        13        14        41     9      180.000000       14.584842         2
        18        13        14        41     9        0.000000       -0.662384         3
        18        13        14        41     9      180.000000        0.019654         4
        19         9         8        20     9        0.000000       -0.266537         1
        19         9         8        20     9      180.000000       18.883777         2
        19         9         8        20     9        0.000000        0.244712         3
        19         9         8        20     9      180.000000       -0.968433         4
        19         9        10        32     9        0.000000        0.110069         1
        19         9        10        32     9      180.000000       13.890684         2
        19         9        10        32     9        0.000000       -0.094608         3
        19         9        10        32     9      180.000000        0.168208         4
        22         4         3        26     9        0.000000       -0.210419         1
        22         4         3        26     9      180.000000        0.059164         2
        22         4         3        26     9        0.000000        0.534105         3
        22         4         3        26     9      180.000000       -0.079644         4
        22         4         3        27     9        0.000000       -0.210419         1
        22         4         3        27     9      180.000000        0.059164         2
        22         4         3        27     9        0.000000        0.534105         3
        22         4         3        27     9      180.000000       -0.079644         4
        22         4         5        28     9        0.000000       -0.210419         1
        22         4         5        28     9      180.000000        0.059164         2
        22         4         5        28     9        0.000000        0.534105         3
        22         4         5        28     9      180.000000       -0.079644         4
        22         4         5        29     9        0.000000       -0.210419         1
        22         4         5        29     9      180.000000        0.059164         2
        22         4         5        29     9        0.000000        0.534105         3
        22         4         5        29     9      180.000000       -0.079644         4
        22         4        23        36     9        0.000000       -0.256018         1
        22         4        23        36     9      180.000000       -0.145324         2
        22         4        23        36     9        0.000000        0.609263         3
        22         4        23        36     9      180.000000        0.002710         4
        22         4        23        37     9        0.000000       -0.256018         1
        22         4        23        37     9      180.000000       -0.145324         2
        22         4        23        37     9        0.000000        0.609263         3
        22         4        23        37     9      180.000000        0.002710         4
        22         4        23        38     9        0.000000       -0.256018         1
        22         4        23        38     9      180.000000       -0.145324         2
        22         4        23        38     9        0.000000        0.609263         3
        22         4        23        38     9      180.000000        0.002710         4
        23         4         3        26     9        0.000000        0.057706         1
        23         4         3        26     9      180.000000        0.007075         2
        23         4         3        26     9        0.000000        0.458867         3
        23         4         3        26     9      180.000000        0.000801         4
        23         4         3        27     9        0.000000        0.057706         1
        23         4         3        27     9      180.000000        0.007075         2
        23         4         3        27     9        0.000000        0.458867         3
        23         4         3        27     9      180.000000        0.000801         4
        23         4         5        28     9        0.000000        0.057706         1
        23         4         5        28     9      180.000000        0.007075         2
        23         4         5        28     9        0.000000        0.458867         3
        23         4         5        28     9      180.000000        0.000801         4
        23         4         5        29     9        0.000000        0.057706         1
        23         4         5        29     9      180.000000        0.007075         2
        23         4         5        29     9        0.000000        0.458867         3
        23         4         5        29     9      180.000000        0.000801         4
        23         4        22        35     9        0.000000       -0.241238         1
        23         4        22        35     9      180.000000        0.219200         2
        23         4        22        35     9        0.000000        0.596224         3
        23         4        22        35     9      180.000000        0.018226         4
        23         4        22        39     9        0.000000       -0.241238         1
        23         4        22        39     9      180.000000        0.219200         2
        23         4        22        39     9        0.000000        0.596224         3
        23         4        22        39     9      180.000000        0.018226         4
        23         4        22        43     9        0.000000       -0.241238         1
        23         4        22        43     9      180.000000        0.219200         2
        23         4        22        43     9        0.000000        0.596224         3
        23         4        22        43     9      180.000000        0.018226         4
        24         2         3        26     9        0.000000        0.004304         1
        24         2         3        26     9      180.000000        0.029400         2
        24         2         3        26     9        0.000000        0.385600         3
        24         2         3        26     9      180.000000        0.001531         4
        24         2         3        27     9        0.000000        0.004304         1
        24         2         3        27     9      180.000000        0.029400         2
        24         2         3        27     9        0.000000        0.385600         3
        24         2         3        27     9      180.000000        0.001531         4
        25         2         3        26     9        0.000000        0.004304         1
        25         2         3        26     9      180.000000        0.029400         2
        25         2         3        26     9        0.000000        0.385600         3
        25         2         3        26     9      180.000000        0.001531         4
        25         2         3        27     9        0.000000        0.004304         1
        25         2         3        27     9      180.000000        0.029400         2
        25         2         3        27     9        0.000000        0.385600         3
        25         2         3        27     9      180.000000        0.001531         4
        28         5         6        30     9        0.000000        0.004304         1
        28         5         6        30     9      180.000000        0.029400         2
        28         5         6        30     9        0.000000        0.385600         3
        28         5         6        30     9      180.000000        0.001531         4
        28         5         6        31     9        0.000000        0.004304         1
        28         5         6        31     9      180.000000        0.029400         2
        28         5         6        31     9        0.000000        0.385600         3
        28         5         6        31     9      180.000000        0.001531         4
        29         5         6        30     9        0.000000        0.004304         1
        29         5         6        30     9      180.000000        0.029400         2
        29         5         6        30     9        0.000000        0.385600         3
        29         5         6        30     9      180.000000        0.001531         4
        29         5         6        31     9        0.000000        0.004304         1
        29         5         6        31     9      180.000000        0.029400         2
        29         5         6        31     9        0.000000        0.385600         3
        29         5         6        31     9      180.000000        0.001531         4
        32        10        11        33     9        0.000000       -0.233000         1
        32        10        11        33     9      180.000000       11.297329         2
        32        10        11        33     9        0.000000       -0.594786         3
        32        10        11        33     9      180.000000        0.260176         4
        33        11        12        34     9        0.000000       -0.257474         1
        33        11        12        34     9      180.000000       11.899267         2
        33        11        12        34     9        0.000000       -0.704241         3
        33        11        12        34     9      180.000000        0.291880         4

[ dihedrals ] ; impropers
;       ai        aj        ak        al funct           phase               k        pn
        11        10        12        33     4      180.000000        1.333890         2
        11        12        33        10     4      180.000000        1.333890         2
        11        33        10        12     4      180.000000        1.333890         2
        14        13        15        41     4      180.000000        8.880832         2
        14        15        41        13     4      180.000000        8.880832         2
        14        41        13        15     4      180.000000        8.880832         2
        16         1        15        17     4      180.000000       27.893333         2
        16        15        17         1     4      180.000000       27.893333         2
        16        17         1        15     4      180.000000       27.893333         2

[ pairs ]
;       ai        aj funct
         1         4     1
         1        14     1
         1        18     1
         1        26     1
         1        27     1
         1        28     1
         1        29     1
         2         5     1
         2        15     1
         2        17     1
         2        22     1
         2        23     1
         2        30     1
         2        31     1
         3         6     1
         3        16     1
         3        28     1
         3        29     1
         3        35     1
         3        36     1
         3        37     1
         3        38     1
         3        39     1
         3        43     1
         4        24     1
         4        25     1
         4        30     1
         4        31     1
         5        16     1
         5        26     1
         5        27     1
         5        35     1
         5        36     1
         5        37     1
         5        38     1
         5        39     1
         5        43     1
         6        15     1
         6        17     1
         6        22     1
         6        23     1
         6        24     1
         6        25     1
         7        10     1
         7        15     1
         7        17     1
         7        19     1
         7        21     1
         7        33     1
         7        41     1
         8        11     1
         8        14     1
         8        18     1
         8        32     1
         8        34     1
         9        12     1
         9        13     1
         9        33     1
        10        20     1
        10        34     1
        11        13     1
        11        19     1
        12        14     1
        12        18     1
        12        20     1
        12        32     1
        13        16     1
        13        20     1
        13        34     1
        13        40     1
        13        42     1
        14        17     1
        14        21     1
        15        18     1
        16        21     1
        16        24     1
        16        25     1
        16        30     1
        16        31     1
        16        41     1
        17        40     1
        17        42     1
        18        41     1
        19        20     1
        19        32     1
        22        26     1
        22        27     1
        22        28     1
        22        29     1
        22        36     1
        22        37     1
        22        38     1
        23        26     1
        23        27     1
        23        28     1
        23        29     1
        23        35     1
        23        39     1
        23        43     1
        24        26     1
        24        27     1
        25        26     1
        25        27     1
        28        30     1
        28        31     1
        29        30     1
        29        31     1
        32        33     1
        33        34     1
