; ITP file created by ByteFF-ML, 2026-02-21 07:46:41.547372

[ atomtypes ]
;name           bonded.type        at.num        mass        charge   ptype           sigma         epsilon
 n0bf                                   7      0.0000       0.00000       A     3.19224e-01     9.07077e-01
 c1bf                                   6      0.0000       0.00000       A     3.39667e-01     4.50629e-01
 c2bf                                   6      0.0000       0.00000       A     3.39737e-01     4.52316e-01
 c3bf                                   6      0.0000       0.00000       A     3.39953e-01     4.42911e-01
 c4bf                                   6      0.0000       0.00000       A     3.39737e-01     4.52316e-01
 c5bf                                   6      0.0000       0.00000       A     3.39667e-01     4.50629e-01
 c6bf                                   6      0.0000       0.00000       A     3.31680e-01     4.11456e-01
 c7bf                                   6      0.0000       0.00000       A     3.31515e-01     4.14506e-01
 c8bf                                   6      0.0000       0.00000       A     3.31527e-01     4.12656e-01
 c9bf                                   6      0.0000       0.00000       A     3.31490e-01     4.12710e-01
 c10bf                                  6      0.0000       0.00000       A     3.31465e-01     4.13235e-01
 c11bf                                  6      0.0000       0.00000       A     3.31467e-01     4.12831e-01
 c12bf                                  6      0.0000       0.00000       A     3.31570e-01     4.13661e-01
 n13bf                                  7      0.0000       0.00000       A     3.38281e-01     3.91249e-01
 c14bf                                  6      0.0000       0.00000       A     3.31453e-01     4.12104e-01
 c15bf                                  6      0.0000       0.00000       A     3.31480e-01     4.12755e-01
 n16bf                                  7      0.0000       0.00000       A     3.38245e-01     3.92627e-01
 c17bf                                  6      0.0000       0.00000       A     3.31215e-01     4.13157e-01
 cl18bf                                17      0.0000       0.00000       A     3.46745e-01     1.10550e+00
 cl19bf                                17      0.0000       0.00000       A     3.46725e-01     1.10759e+00
 n20bf                                  7      0.0000       0.00000       A     3.36721e-01     4.64006e-01
 n21bf                                  7      0.0000       0.00000       A     2.76368e-01     4.74797e+00
 c22bf                                  6      0.0000       0.00000       A     3.39520e-01     4.49397e-01
 h23bf                                  1      0.0000       0.00000       A     2.42252e-01     8.65900e-02
 h24bf                                  1      0.0000       0.00000       A     2.42252e-01     8.65900e-02
 h25bf                                  1      0.0000       0.00000       A     2.59993e-01     8.73289e-02
 h26bf                                  1      0.0000       0.00000       A     2.59993e-01     8.73289e-02
 h27bf                                  1      0.0000       0.00000       A     2.59993e-01     8.73289e-02
 h28bf                                  1      0.0000       0.00000       A     2.59993e-01     8.73289e-02
 h29bf                                  1      0.0000       0.00000       A     2.42252e-01     8.65900e-02
 h30bf                                  1      0.0000       0.00000       A     2.42252e-01     8.65900e-02
 h31bf                                  1      0.0000       0.00000       A     2.62433e-01     6.69663e-02
 h32bf                                  1      0.0000       0.00000       A     2.62496e-01     6.73046e-02
 c33bf                                  6      0.0000       0.00000       A     3.39718e-01     4.50904e-01
 h34bf                                  1      0.0000       0.00000       A     1.10348e-01     4.18186e-02
 h35bf                                  1      0.0000       0.00000       A     1.10348e-01     4.18186e-02
 h36bf                                  1      0.0000       0.00000       A     1.10628e-01     4.12153e-02
 h37bf                                  1      0.0000       0.00000       A     2.59831e-01     8.81397e-02
 h38bf                                  1      0.0000       0.00000       A     2.59831e-01     8.81397e-02
 h39bf                                  1      0.0000       0.00000       A     2.59831e-01     8.81397e-02
 h40bf                                  1      0.0000       0.00000       A     1.10628e-01     4.12153e-02
 h41bf                                  1      0.0000       0.00000       A     2.62502e-01     6.73461e-02
 h42bf                                  1      0.0000       0.00000       A     2.59887e-01     8.70496e-02
 h43bf                                  1      0.0000       0.00000       A     2.59887e-01     8.70496e-02
 h44bf                                  1      0.0000       0.00000       A     2.59887e-01     8.70496e-02
 h45bf                                  1      0.0000       0.00000       A     1.10628e-01     4.12153e-02

[ moleculetype ]
;name             nrexcl
 Example_24            3

[ atoms ]
;       nr            type      resi   res      atom      cgnr      charge          mass ; qtot
         1            n0bf         1   UNL        n0         1    -0.73485       14.0070 ; qtot   -0.735
         2            c1bf         1   UNL        c1         2     0.19280       12.0110 ; qtot   -0.542
         3            c2bf         1   UNL        c2         3    -0.11690       12.0110 ; qtot   -0.659
         4            c3bf         1   UNL        c3         4     0.17018       12.0110 ; qtot   -0.489
         5            c4bf         1   UNL        c4         5    -0.11690       12.0110 ; qtot   -0.606
         6            c5bf         1   UNL        c5         6     0.19280       12.0110 ; qtot   -0.413
         7            c6bf         1   UNL        c6         7    -0.11158       12.0110 ; qtot   -0.524
         8            c7bf         1   UNL        c7         8     0.13725       12.0110 ; qtot   -0.387
         9            c8bf         1   UNL        c8         9     0.12141       12.0110 ; qtot   -0.266
        10            c9bf         1   UNL        c9        10    -0.08482       12.0110 ; qtot   -0.351
        11           c10bf         1   UNL       c10        11    -0.10472       12.0110 ; qtot   -0.455
        12           c11bf         1   UNL       c11        12    -0.08018       12.0110 ; qtot   -0.536
        13           c12bf         1   UNL       c12        13     0.26116       12.0110 ; qtot   -0.274
        14           n13bf         1   UNL       n13        14    -0.59411       14.0070 ; qtot   -0.868
        15           c14bf         1   UNL       c14        15     0.24908       12.0110 ; qtot   -0.619
        16           c15bf         1   UNL       c15        16     0.54725       12.0110 ; qtot   -0.072
        17           n16bf         1   UNL       n16        17    -0.78231       14.0070 ; qtot   -0.854
        18           c17bf         1   UNL       c17        18     0.56472       12.0110 ; qtot   -0.290
        19          cl18bf         1   UNL      cl18        19    -0.17937       35.4530 ; qtot   -0.469
        20          cl19bf         1   UNL      cl19        20    -0.16743       35.4530 ; qtot   -0.637
        21           n20bf         1   UNL       n20        21    -1.01083       14.0070 ; qtot   -1.647
        22           n21bf         1   UNL       n21        22    -0.99988       14.0070 ; qtot   -2.647
        23           c22bf         1   UNL       c22        23    -0.12370       12.0110 ; qtot   -2.771
        24           h23bf         1   UNL       h23        24     0.07446        1.0080 ; qtot   -2.696
        25           h24bf         1   UNL       h24        25     0.07446        1.0080 ; qtot   -2.622
        26           h25bf         1   UNL       h25        26     0.08357        1.0080 ; qtot   -2.538
        27           h26bf         1   UNL       h26        27     0.08357        1.0080 ; qtot   -2.455
        28           h27bf         1   UNL       h27        28     0.08357        1.0080 ; qtot   -2.371
        29           h28bf         1   UNL       h28        29     0.08357        1.0080 ; qtot   -2.288
        30           h29bf         1   UNL       h29        30     0.07446        1.0080 ; qtot   -2.213
        31           h30bf         1   UNL       h30        31     0.07446        1.0080 ; qtot   -2.139
        32           h31bf         1   UNL       h31        32     0.13777        1.0080 ; qtot   -2.001
        33           h32bf         1   UNL       h32        33     0.13319        1.0080 ; qtot   -1.868
        34           c33bf         1   UNL       c33        34    -0.13293       12.0110 ; qtot   -2.001
        35           h34bf         1   UNL       h34        35     0.46078        1.0080 ; qtot   -1.540
        36           h35bf         1   UNL       h35        36     0.46078        1.0080 ; qtot   -1.079
        37           h36bf         1   UNL       h36        37     0.52124        1.0080 ; qtot   -0.558
        38           h37bf         1   UNL       h37        38     0.07436        1.0080 ; qtot   -0.484
        39           h38bf         1   UNL       h38        39     0.07436        1.0080 ; qtot   -0.409
        40           h39bf         1   UNL       h39        40     0.07436        1.0080 ; qtot   -0.335
        41           h40bf         1   UNL       h40        41     0.52124        1.0080 ; qtot    0.186
        42           h41bf         1   UNL       h41        42     0.12850        1.0080 ; qtot    0.315
        43           h42bf         1   UNL       h42        43     0.05464        1.0080 ; qtot    0.369
        44           h43bf         1   UNL       h43        44     0.05464        1.0080 ; qtot    0.424
        45           h44bf         1   UNL       h44        45     0.05464        1.0080 ; qtot    0.479
        46           h45bf         1   UNL       h45        46     0.52124        1.0080 ; qtot    1.000

[ bonds ]
;       ai        aj funct               r               k
         1         2     1        0.147037   183281.876953
         1         6     1        0.147037   183281.876953
         1        16     1        0.140276   246372.684668
         2         3     1        0.154105   170460.817969
         2        24     1        0.109318   299676.190918
         2        25     1        0.109318   299676.190918
         3         4     1        0.153901   170422.129248
         3        26     1        0.109412   300137.493262
         3        27     1        0.109412   300137.493262
         4         5     1        0.153901   170422.129248
         4        22     1        0.155311    81285.091577
         4        23     1        0.152862   185224.433789
         5         6     1        0.154105   170460.817969
         5        28     1        0.109412   300137.493262
         5        29     1        0.109412   300137.493262
         6        30     1        0.109318   299676.190918
         6        31     1        0.109318   299676.190918
         7         8     1        0.140719   261496.348193
         7        12     1        0.140367   284823.680420
         7        13     1        0.148829   208640.303174
         8         9     1        0.140387   278821.693604
         8        20     1        0.174706   154969.317920
         9        10     1        0.139783   293456.602393
         9        19     1        0.174841   155133.981201
        10        11     1        0.139565   310227.205176
        10        32     1        0.108429   326455.884961
        11        12     1        0.139378   319661.558252
        11        42     1        0.108544   323106.182324
        12        33     1        0.108477   323509.387744
        13        14     1        0.133979   300860.014697
        13        18     1        0.141698   234020.946680
        14        15     1        0.133180   329948.595410
        15        16     1        0.142589   213107.956616
        15        34     1        0.150855   203070.787305
        16        17     1        0.133929   300194.696387
        17        18     1        0.133589   315536.140381
        18        21     1        0.138823   295603.226270
        21        35     1        0.101319   418006.447607
        21        36     1        0.101319   418006.447607
        22        37     1        0.102770   380670.861719
        22        41     1        0.102770   380670.861719
        22        46     1        0.102770   380670.861719
        23        38     1        0.109334   304479.006152
        23        39     1        0.109334   304479.006152
        23        40     1        0.109334   304479.006152
        34        43     1        0.109311   304359.237109
        34        44     1        0.109311   304359.237109
        34        45     1        0.109311   304359.237109

[ angles ]
;       ai        aj        ak funct           theta             cth
         1         2         3     1      110.712486      638.596599
         1         2        24     1      109.594910      436.461216
         1         2        25     1      109.594910      436.461280
         1         6         5     1      110.712486      638.596599
         1         6        30     1      109.594910      436.461280
         1         6        31     1      109.594910      436.461280
         1        16        15     1      121.687134      420.399875
         1        16        17     1      117.164467      534.615714
         2         1         6     1      112.417381      507.545197
         2         1        16     1      116.297226      543.205982
         2         3         4     1      111.678612      618.950581
         2         3        26     1      109.285851      500.532036
         2         3        27     1      109.285851      500.532036
         3         2        24     1      109.961220      484.480750
         3         2        25     1      109.961220      484.480750
         3         4         5     1      110.528786      534.982107
         3         4        22     1      106.622520      675.512469
         3         4        23     1      112.587425      600.627258
         4         3        26     1      109.613670      487.526816
         4         3        27     1      109.613670      487.526816
         4         5         6     1      111.678612      618.950581
         4         5        28     1      109.613670      487.526816
         4         5        29     1      109.613670      487.526816
         4        22        37     1      111.194313      445.707501
         4        22        41     1      111.194313      445.707501
         4        22        46     1      111.194313      445.707501
         4        23        38     1      111.123024      496.118936
         4        23        39     1      111.123024      496.118936
         4        23        40     1      111.123024      496.118936
         5         4        22     1      106.622520      675.512469
         5         4        23     1      112.587425      600.627258
         5         6        30     1      109.961220      484.480750
         5         6        31     1      109.961220      484.480750
         6         1        16     1      116.297226      543.205982
         6         5        28     1      109.285851      500.532036
         6         5        29     1      109.285851      500.532036
         7         8         9     1      120.029747      601.297863
         7         8        20     1      120.165085      335.657818
         7        12        11     1      121.080238      702.191024
         7        12        33     1      118.334763      401.873660
         7        13        14     1      117.218552      476.740963
         7        13        18     1      122.398544      464.112639
         8         7        12     1      118.525436      601.740740
         8         7        13     1      122.653992      434.054503
         8         9        10     1      120.349487      591.281123
         8         9        19     1      121.253151      346.786508
         9         8        20     1      120.147606      381.455208
         9        10        11     1      119.701218      613.951309
         9        10        32     1      119.180435      412.481935
        10         9        19     1      118.130531      339.335386
        10        11        12     1      120.050781      736.602725
        10        11        42     1      119.709694      442.443188
        11        10        32     1      121.192947      417.179167
        11        12        33     1      120.517212      416.328781
        12         7        13     1      119.048584      491.546006
        12        11        42     1      120.245544      430.627679
        13        14        15     1      120.240677      703.985452
        13        18        17     1      120.737808      642.994472
        13        18        21     1      122.555298      527.630804
        14        13        18     1      119.793579      706.508455
        14        15        16     1      119.545166      752.278361
        14        15        34     1      116.696312      485.998005
        15        16        17     1      120.323463      588.392429
        15        34        43     1      110.632690      482.093222
        15        34        44     1      110.632675      482.093286
        15        34        45     1      110.632675      482.093286
        16        15        34     1      123.818092      403.381722
        16        17        18     1      119.348610      904.736691
        17        18        21     1      116.949509      608.123230
        18        21        35     1      114.085922      470.100804
        18        21        36     1      114.085922      470.100804
        22         4        23     1      106.513611      724.561723
        24         2        25     1      107.289078      347.512751
        26         3        27     1      106.823082      356.804652
        28         5        29     1      106.823082      356.804652
        30         6        31     1      107.289078      347.512751
        35        21        36     1      114.442482      347.937816
        37        22        41     1      107.909775      400.797366
        37        22        46     1      107.909775      400.797366
        38        23        39     1      107.934097      360.937961
        38        23        40     1      107.934097      360.937961
        39        23        40     1      107.934097      360.937961
        41        22        46     1      107.909775      400.797366
        43        34        44     1      108.411606      355.753321
        43        34        45     1      108.411606      355.753321
        44        34        45     1      108.411606      355.753321

[ dihedrals ] ; propers for gromacs 4.5 or higher, use funct 9
;       ai        aj        ak        al funct           phase               k        pn
         1         2         3         4     9        0.000000        3.109227         1
         1         2         3         4     9      180.000000       -1.674421         2
         1         2         3         4     9        0.000000        0.492705         3
         1         2         3         4     9      180.000000       -0.180417         4
         1         2         3        26     9        0.000000       -0.028049         1
         1         2         3        26     9      180.000000       -0.089643         2
         1         2         3        26     9        0.000000        0.418690         3
         1         2         3        26     9      180.000000        0.011722         4
         1         2         3        27     9        0.000000       -0.028049         1
         1         2         3        27     9      180.000000       -0.089643         2
         1         2         3        27     9        0.000000        0.418690         3
         1         2         3        27     9      180.000000        0.011722         4
         1         6         5         4     9        0.000000        3.109227         1
         1         6         5         4     9      180.000000       -1.674421         2
         1         6         5         4     9        0.000000        0.492705         3
         1         6         5         4     9      180.000000       -0.180417         4
         1         6         5        28     9        0.000000       -0.028049         1
         1         6         5        28     9      180.000000       -0.089643         2
         1         6         5        28     9        0.000000        0.418690         3
         1         6         5        28     9      180.000000        0.011722         4
         1         6         5        29     9        0.000000       -0.028049         1
         1         6         5        29     9      180.000000       -0.089643         2
         1         6         5        29     9        0.000000        0.418690         3
         1         6         5        29     9      180.000000        0.011722         4
         1        16        15        14     9        0.000000       -0.067522         1
         1        16        15        14     9      180.000000       10.874554         2
         1        16        15        14     9        0.000000        0.533428         3
         1        16        15        14     9      180.000000       -0.927088         4
         1        16        15        34     9        0.000000       -0.405981         1
         1        16        15        34     9      180.000000        9.660447         2
         1        16        15        34     9        0.000000       -0.163866         3
         1        16        15        34     9      180.000000       -0.384739         4
         1        16        17        18     9        0.000000        1.107189         1
         1        16        17        18     9      180.000000       23.675155         2
         1        16        17        18     9        0.000000        1.061514         3
         1        16        17        18     9      180.000000       -1.196469         4
         2         1         6         5     9        0.000000        0.116117         1
         2         1         6         5     9      180.000000       -0.475716         2
         2         1         6         5     9        0.000000        0.811399         3
         2         1         6         5     9      180.000000        0.127351         4
         2         1         6        30     9        0.000000        0.037648         1
         2         1         6        30     9      180.000000        0.211247         2
         2         1         6        30     9        0.000000        0.856470         3
         2         1         6        30     9      180.000000        0.017493         4
         2         1         6        31     9        0.000000        0.037648         1
         2         1         6        31     9      180.000000        0.211247         2
         2         1         6        31     9        0.000000        0.856470         3
         2         1         6        31     9      180.000000        0.017493         4
         2         1        16        15     9        0.000000        5.646166         1
         2         1        16        15     9      180.000000        5.001627         2
         2         1        16        15     9        0.000000        0.767514         3
         2         1        16        15     9      180.000000       -0.018133         4
         2         1        16        17     9        0.000000       -1.193344         1
         2         1        16        17     9      180.000000        8.116515         2
         2         1        16        17     9        0.000000       -1.063041         3
         2         1        16        17     9      180.000000        0.115292         4
         2         3         4         5     9        0.000000        3.138796         1
         2         3         4         5     9      180.000000       -1.627654         2
         2         3         4         5     9        0.000000        0.102217         3
         2         3         4         5     9      180.000000        0.008375         4
         2         3         4        22     9        0.000000        3.788940         1
         2         3         4        22     9      180.000000       -1.286250         2
         2         3         4        22     9        0.000000        0.469358         3
         2         3         4        22     9      180.000000        0.433621         4
         2         3         4        23     9        0.000000       -2.400262         1
         2         3         4        23     9      180.000000        1.043007         2
         2         3         4        23     9        0.000000        0.275289         3
         2         3         4        23     9      180.000000        0.057065         4
         3         2         1         6     9        0.000000        0.116117         1
         3         2         1         6     9      180.000000       -0.475716         2
         3         2         1         6     9        0.000000        0.811399         3
         3         2         1         6     9      180.000000        0.127351         4
         3         2         1        16     9        0.000000       -2.066131         1
         3         2         1        16     9      180.000000        0.593709         2
         3         2         1        16     9        0.000000        0.409608         3
         3         2         1        16     9      180.000000       -0.004165         4
         3         4         5         6     9        0.000000        3.138796         1
         3         4         5         6     9      180.000000       -1.627654         2
         3         4         5         6     9        0.000000        0.102217         3
         3         4         5         6     9      180.000000        0.008375         4
         3         4         5        28     9        0.000000        0.007174         1
         3         4         5        28     9      180.000000        0.103972         2
         3         4         5        28     9        0.000000        0.342335         3
         3         4         5        28     9      180.000000       -0.008057         4
         3         4         5        29     9        0.000000        0.007174         1
         3         4         5        29     9      180.000000        0.103972         2
         3         4         5        29     9        0.000000        0.342335         3
         3         4         5        29     9      180.000000       -0.008057         4
         3         4        22        37     9        0.000000        0.062222         1
         3         4        22        37     9      180.000000        0.164656         2
         3         4        22        37     9        0.000000        0.559493         3
         3         4        22        37     9      180.000000        0.034876         4
         3         4        22        41     9        0.000000        0.062222         1
         3         4        22        41     9      180.000000        0.164656         2
         3         4        22        41     9        0.000000        0.559493         3
         3         4        22        41     9      180.000000        0.034876         4
         3         4        22        46     9        0.000000        0.062222         1
         3         4        22        46     9      180.000000        0.164656         2
         3         4        22        46     9        0.000000        0.559493         3
         3         4        22        46     9      180.000000        0.034876         4
         3         4        23        38     9        0.000000        0.001962         1
         3         4        23        38     9      180.000000        0.017089         2
         3         4        23        38     9        0.000000        0.502026         3
         3         4        23        38     9      180.000000        0.013943         4
         3         4        23        39     9        0.000000        0.001962         1
         3         4        23        39     9      180.000000        0.017089         2
         3         4        23        39     9        0.000000        0.502026         3
         3         4        23        39     9      180.000000        0.013943         4
         3         4        23        40     9        0.000000        0.001962         1
         3         4        23        40     9      180.000000        0.017089         2
         3         4        23        40     9        0.000000        0.502026         3
         3         4        23        40     9      180.000000        0.013943         4
         4         3         2        24     9        0.000000       -0.126100         1
         4         3         2        24     9      180.000000       -0.013452         2
         4         3         2        24     9        0.000000        0.410691         3
         4         3         2        24     9      180.000000        0.010494         4
         4         3         2        25     9        0.000000       -0.126100         1
         4         3         2        25     9      180.000000       -0.013453         2
         4         3         2        25     9        0.000000        0.410691         3
         4         3         2        25     9      180.000000        0.010494         4
         4         5         6        30     9        0.000000       -0.126100         1
         4         5         6        30     9      180.000000       -0.013453         2
         4         5         6        30     9        0.000000        0.410691         3
         4         5         6        30     9      180.000000        0.010494         4
         4         5         6        31     9        0.000000       -0.126100         1
         4         5         6        31     9      180.000000       -0.013453         2
         4         5         6        31     9        0.000000        0.410691         3
         4         5         6        31     9      180.000000        0.010494         4
         5         4         3        26     9        0.000000        0.007174         1
         5         4         3        26     9      180.000000        0.103972         2
         5         4         3        26     9        0.000000        0.342335         3
         5         4         3        26     9      180.000000       -0.008057         4
         5         4         3        27     9        0.000000        0.007174         1
         5         4         3        27     9      180.000000        0.103972         2
         5         4         3        27     9        0.000000        0.342335         3
         5         4         3        27     9      180.000000       -0.008057         4
         5         4        22        37     9        0.000000        0.062222         1
         5         4        22        37     9      180.000000        0.164656         2
         5         4        22        37     9        0.000000        0.559493         3
         5         4        22        37     9      180.000000        0.034876         4
         5         4        22        41     9        0.000000        0.062222         1
         5         4        22        41     9      180.000000        0.164656         2
         5         4        22        41     9        0.000000        0.559493         3
         5         4        22        41     9      180.000000        0.034876         4
         5         4        22        46     9        0.000000        0.062222         1
         5         4        22        46     9      180.000000        0.164656         2
         5         4        22        46     9        0.000000        0.559493         3
         5         4        22        46     9      180.000000        0.034876         4
         5         4        23        38     9        0.000000        0.001962         1
         5         4        23        38     9      180.000000        0.017089         2
         5         4        23        38     9        0.000000        0.502026         3
         5         4        23        38     9      180.000000        0.013943         4
         5         4        23        39     9        0.000000        0.001962         1
         5         4        23        39     9      180.000000        0.017089         2
         5         4        23        39     9        0.000000        0.502026         3
         5         4        23        39     9      180.000000        0.013943         4
         5         4        23        40     9        0.000000        0.001962         1
         5         4        23        40     9      180.000000        0.017089         2
         5         4        23        40     9        0.000000        0.502026         3
         5         4        23        40     9      180.000000        0.013943         4
         5         6         1        16     9        0.000000       -2.066131         1
         5         6         1        16     9      180.000000        0.593709         2
         5         6         1        16     9        0.000000        0.409608         3
         5         6         1        16     9      180.000000       -0.004165         4
         6         1         2        24     9        0.000000        0.037649         1
         6         1         2        24     9      180.000000        0.211248         2
         6         1         2        24     9        0.000000        0.856471         3
         6         1         2        24     9      180.000000        0.017493         4
         6         1         2        25     9        0.000000        0.037648         1
         6         1         2        25     9      180.000000        0.211247         2
         6         1         2        25     9        0.000000        0.856470         3
         6         1         2        25     9      180.000000        0.017493         4
         6         1        16        15     9        0.000000        5.646166         1
         6         1        16        15     9      180.000000        5.001627         2
         6         1        16        15     9        0.000000        0.767514         3
         6         1        16        15     9      180.000000       -0.018133         4
         6         1        16        17     9        0.000000       -1.193344         1
         6         1        16        17     9      180.000000        8.116515         2
         6         1        16        17     9        0.000000       -1.063041         3
         6         1        16        17     9      180.000000        0.115292         4
         6         5         4        22     9        0.000000        3.788940         1
         6         5         4        22     9      180.000000       -1.286250         2
         6         5         4        22     9        0.000000        0.469358         3
         6         5         4        22     9      180.000000        0.433621         4
         6         5         4        23     9        0.000000       -2.400262         1
         6         5         4        23     9      180.000000        1.043007         2
         6         5         4        23     9        0.000000        0.275289         3
         6         5         4        23     9      180.000000        0.057065         4
         7         8         9        10     9        0.000000       -0.024214         1
         7         8         9        10     9      180.000000       16.474184         2
         7         8         9        10     9        0.000000       -1.016427         3
         7         8         9        10     9      180.000000       -0.402501         4
         7         8         9        19     9        0.000000        0.185446         1
         7         8         9        19     9      180.000000       16.388868         2
         7         8         9        19     9        0.000000        0.042779         3
         7         8         9        19     9      180.000000       -0.530500         4
         7        12        11        10     9        0.000000        0.000022         1
         7        12        11        10     9      180.000000       18.918978         2
         7        12        11        10     9        0.000000       -1.600455         3
         7        12        11        10     9      180.000000       -0.484141         4
         7        12        11        42     9        0.000000       -0.004665         1
         7        12        11        42     9      180.000000       14.552022         2
         7        12        11        42     9        0.000000       -0.745652         3
         7        12        11        42     9      180.000000        0.023723         4
         7        13        14        15     9        0.000000       -0.098846         1
         7        13        14        15     9      180.000000       23.477258         2
         7        13        14        15     9        0.000000        0.448908         3
         7        13        14        15     9      180.000000       -0.824818         4
         7        13        18        17     9        0.000000       -0.275938         1
         7        13        18        17     9      180.000000        9.459336         2
         7        13        18        17     9        0.000000        0.030240         3
         7        13        18        17     9      180.000000       -0.584971         4
         7        13        18        21     9        0.000000        0.427093         1
         7        13        18        21     9      180.000000       13.841667         2
         7        13        18        21     9        0.000000        0.284239         3
         7        13        18        21     9      180.000000       -0.680014         4
         8         7        12        11     9        0.000000       -0.041442         1
         8         7        12        11     9      180.000000       18.541667         2
         8         7        12        11     9        0.000000       -1.506900         3
         8         7        12        11     9      180.000000       -0.369344         4
         8         7        12        33     9        0.000000        0.034187         1
         8         7        12        33     9      180.000000       14.257759         2
         8         7        12        33     9        0.000000       -0.629184         3
         8         7        12        33     9      180.000000        0.115464         4
         8         7        13        14     9        0.000000       -2.904984         1
         8         7        13        14     9      180.000000        2.508439         2
         8         7        13        14     9        0.000000        0.606144         3
         8         7        13        14     9      180.000000       -0.258327         4
         8         7        13        18     9        0.000000        3.027915         1
         8         7        13        18     9      180.000000       -0.893958         2
         8         7        13        18     9        0.000000        0.673293         3
         8         7        13        18     9      180.000000        0.007597         4
         8         9        10        11     9        0.000000        0.014733         1
         8         9        10        11     9      180.000000       17.989214         2
         8         9        10        11     9        0.000000       -1.144844         3
         8         9        10        11     9      180.000000       -0.419331         4
         8         9        10        32     9        0.000000        0.118544         1
         8         9        10        32     9      180.000000       13.407008         2
         8         9        10        32     9        0.000000       -0.432892         3
         8         9        10        32     9      180.000000        0.071731         4
         9         8         7        12     9        0.000000       -0.143390         1
         9         8         7        12     9      180.000000       17.232864         2
         9         8         7        12     9        0.000000       -1.237742         3
         9         8         7        12     9      180.000000       -0.508679         4
         9         8         7        13     9        0.000000        0.195998         1
         9         8         7        13     9      180.000000       13.670589         2
         9         8         7        13     9        0.000000       -0.380671         3
         9         8         7        13     9      180.000000       -0.301046         4
         9        10        11        12     9        0.000000       -0.015052         1
         9        10        11        12     9      180.000000       18.787087         2
         9        10        11        12     9        0.000000       -1.441663         3
         9        10        11        12     9      180.000000       -0.417482         4
         9        10        11        42     9        0.000000        0.039097         1
         9        10        11        42     9      180.000000       14.176347         2
         9        10        11        42     9        0.000000       -0.528022         3
         9        10        11        42     9      180.000000        0.072993         4
        10         9         8        20     9        0.000000        0.138716         1
        10         9         8        20     9      180.000000       17.502714         2
        10         9         8        20     9        0.000000        0.086590         3
        10         9         8        20     9      180.000000       -0.504530         4
        10        11        12        33     9        0.000000        0.056214         1
        10        11        12        33     9      180.000000       14.986210         2
        10        11        12        33     9        0.000000       -0.720986         3
        10        11        12        33     9      180.000000        0.071359         4
        11        10         9        19     9        0.000000        0.378297         1
        11        10         9        19     9      180.000000       19.840271         2
        11        10         9        19     9        0.000000        0.460777         3
        11        10         9        19     9      180.000000       -0.662431         4
        11        12         7        13     9        0.000000        0.263397         1
        11        12         7        13     9      180.000000       16.770216         2
        11        12         7        13     9        0.000000       -0.121586         3
        11        12         7        13     9      180.000000       -0.303239         4
        12         7         8        20     9        0.000000        0.453751         1
        12         7         8        20     9      180.000000       18.699263         2
        12         7         8        20     9        0.000000        0.271013         3
        12         7         8        20     9      180.000000       -0.865381         4
        12         7        13        14     9        0.000000        1.230209         1
        12         7        13        14     9      180.000000        3.274633         2
        12         7        13        14     9        0.000000       -0.151453         3
        12         7        13        14     9      180.000000        0.001557         4
        12         7        13        18     9        0.000000       -0.178942         1
        12         7        13        18     9      180.000000        1.416391         2
        12         7        13        18     9        0.000000       -0.146739         3
        12         7        13        18     9      180.000000        0.051755         4
        12        11        10        32     9        0.000000        0.071283         1
        12        11        10        32     9      180.000000       14.058772         2
        12        11        10        32     9        0.000000       -0.744499         3
        12        11        10        32     9      180.000000        0.124991         4
        13         7         8        20     9        0.000000        0.099970         1
        13         7         8        20     9      180.000000       15.894116         2
        13         7         8        20     9        0.000000        0.233696         3
        13         7         8        20     9      180.000000       -0.728237         4
        13         7        12        33     9        0.000000       -0.022560         1
        13         7        12        33     9      180.000000       13.243075         2
        13         7        12        33     9        0.000000       -0.340497         3
        13         7        12        33     9      180.000000        0.190914         4
        13        14        15        16     9        0.000000       -0.264821         1
        13        14        15        16     9      180.000000       22.360784         2
        13        14        15        16     9        0.000000       -0.498436         3
        13        14        15        16     9      180.000000       -0.172213         4
        13        14        15        34     9        0.000000       -0.140838         1
        13        14        15        34     9      180.000000       23.398915         2
        13        14        15        34     9        0.000000        0.529099         3
        13        14        15        34     9      180.000000       -0.490436         4
        13        18        17        16     9        0.000000       -0.047178         1
        13        18        17        16     9      180.000000       21.083553         2
        13        18        17        16     9        0.000000       -0.693646         3
        13        18        17        16     9      180.000000       -0.259007         4
        13        18        21        35     9        0.000000       -1.873287         1
        13        18        21        35     9      180.000000        6.546507         2
        13        18        21        35     9        0.000000        0.055600         3
        13        18        21        35     9      180.000000        0.534169         4
        13        18        21        36     9        0.000000       -1.873288         1
        13        18        21        36     9      180.000000        6.546507         2
        13        18        21        36     9        0.000000        0.055600         3
        13        18        21        36     9      180.000000        0.534168         4
        14        13        18        17     9        0.000000       -0.894123         1
        14        13        18        17     9      180.000000        8.830333         2
        14        13        18        17     9        0.000000        0.070173         3
        14        13        18        17     9      180.000000       -0.734997         4
        14        13        18        21     9        0.000000        0.914559         1
        14        13        18        21     9      180.000000       13.772245         2
        14        13        18        21     9        0.000000        0.150241         3
        14        13        18        21     9      180.000000       -0.932935         4
        14        15        16        17     9        0.000000       -2.376640         1
        14        15        16        17     9      180.000000        5.895018         2
        14        15        16        17     9        0.000000       -0.021548         3
        14        15        16        17     9      180.000000       -0.574133         4
        14        15        34        43     9        0.000000        0.032035         1
        14        15        34        43     9      180.000000        0.057975         2
        14        15        34        43     9        0.000000       -0.078790         3
        14        15        34        43     9      180.000000       -0.012478         4
        14        15        34        44     9        0.000000        0.032035         1
        14        15        34        44     9      180.000000        0.057975         2
        14        15        34        44     9        0.000000       -0.078790         3
        14        15        34        44     9      180.000000       -0.012478         4
        14        15        34        45     9        0.000000        0.032035         1
        14        15        34        45     9      180.000000        0.057975         2
        14        15        34        45     9        0.000000       -0.078790         3
        14        15        34        45     9      180.000000       -0.012478         4
        15        14        13        18     9        0.000000        0.164490         1
        15        14        13        18     9      180.000000       21.383580         2
        15        14        13        18     9        0.000000       -0.696658         3
        15        14        13        18     9      180.000000       -0.435025         4
        15        16        17        18     9        0.000000        1.043691         1
        15        16        17        18     9      180.000000       14.926190         2
        15        16        17        18     9        0.000000        0.295990         3
        15        16        17        18     9      180.000000       -0.586600         4
        16         1         2        24     9        0.000000        0.178101         1
        16         1         2        24     9      180.000000       -0.088624         2
        16         1         2        24     9        0.000000        0.147142         3
        16         1         2        24     9      180.000000       -0.001249         4
        16         1         2        25     9        0.000000        0.178102         1
        16         1         2        25     9      180.000000       -0.088624         2
        16         1         2        25     9        0.000000        0.147142         3
        16         1         2        25     9      180.000000       -0.001249         4
        16         1         6        30     9        0.000000        0.178102         1
        16         1         6        30     9      180.000000       -0.088624         2
        16         1         6        30     9        0.000000        0.147142         3
        16         1         6        30     9      180.000000       -0.001249         4
        16         1         6        31     9        0.000000        0.178102         1
        16         1         6        31     9      180.000000       -0.088624         2
        16         1         6        31     9        0.000000        0.147142         3
        16         1         6        31     9      180.000000       -0.001249         4
        16        15        34        43     9        0.000000       -0.073378         1
        16        15        34        43     9      180.000000        0.054791         2
        16        15        34        43     9        0.000000       -0.136267         3
        16        15        34        43     9      180.000000       -0.026662         4
        16        15        34        44     9        0.000000       -0.073378         1
        16        15        34        44     9      180.000000        0.054791         2
        16        15        34        44     9        0.000000       -0.136267         3
        16        15        34        44     9      180.000000       -0.026662         4
        16        15        34        45     9        0.000000       -0.073378         1
        16        15        34        45     9      180.000000        0.054791         2
        16        15        34        45     9        0.000000       -0.136267         3
        16        15        34        45     9      180.000000       -0.026662         4
        16        17        18        21     9        0.000000       -0.095871         1
        16        17        18        21     9      180.000000       28.390604         2
        16        17        18        21     9        0.000000        0.773688         3
        16        17        18        21     9      180.000000       -0.932801         4
        17        16        15        34     9        0.000000       -1.732278         1
        17        16        15        34     9      180.000000        5.555122         2
        17        16        15        34     9        0.000000       -0.554059         3
        17        16        15        34     9      180.000000       -0.346767         4
        17        18        21        35     9        0.000000       12.216588         1
        17        18        21        35     9      180.000000        7.336568         2
        17        18        21        35     9        0.000000        0.209308         3
        17        18        21        35     9      180.000000        0.631304         4
        17        18        21        36     9        0.000000       12.216587         1
        17        18        21        36     9      180.000000        7.336568         2
        17        18        21        36     9        0.000000        0.209308         3
        17        18        21        36     9      180.000000        0.631304         4
        19         9         8        20     9        0.000000       -0.205349         1
        19         9         8        20     9      180.000000       19.002199         2
        19         9         8        20     9        0.000000        0.253249         3
        19         9         8        20     9      180.000000       -1.011539         4
        19         9        10        32     9        0.000000        0.106997         1
        19         9        10        32     9      180.000000       13.913808         2
        19         9        10        32     9        0.000000       -0.103000         3
        19         9        10        32     9      180.000000        0.172748         4
        22         4         3        26     9        0.000000       -0.169322         1
        22         4         3        26     9      180.000000        0.053936         2
        22         4         3        26     9        0.000000        0.536176         3
        22         4         3        26     9      180.000000       -0.087261         4
        22         4         3        27     9        0.000000       -0.169322         1
        22         4         3        27     9      180.000000        0.053936         2
        22         4         3        27     9        0.000000        0.536176         3
        22         4         3        27     9      180.000000       -0.087261         4
        22         4         5        28     9        0.000000       -0.169322         1
        22         4         5        28     9      180.000000        0.053936         2
        22         4         5        28     9        0.000000        0.536176         3
        22         4         5        28     9      180.000000       -0.087261         4
        22         4         5        29     9        0.000000       -0.169322         1
        22         4         5        29     9      180.000000        0.053936         2
        22         4         5        29     9        0.000000        0.536176         3
        22         4         5        29     9      180.000000       -0.087261         4
        22         4        23        38     9        0.000000       -0.256019         1
        22         4        23        38     9      180.000000       -0.145327         2
        22         4        23        38     9        0.000000        0.609264         3
        22         4        23        38     9      180.000000        0.002710         4
        22         4        23        39     9        0.000000       -0.256019         1
        22         4        23        39     9      180.000000       -0.145327         2
        22         4        23        39     9        0.000000        0.609264         3
        22         4        23        39     9      180.000000        0.002710         4
        22         4        23        40     9        0.000000       -0.256019         1
        22         4        23        40     9      180.000000       -0.145327         2
        22         4        23        40     9        0.000000        0.609264         3
        22         4        23        40     9      180.000000        0.002710         4
        23         4         3        26     9        0.000000        0.063473         1
        23         4         3        26     9      180.000000        0.001370         2
        23         4         3        26     9        0.000000        0.453990         3
        23         4         3        26     9      180.000000        0.000725         4
        23         4         3        27     9        0.000000        0.063473         1
        23         4         3        27     9      180.000000        0.001370         2
        23         4         3        27     9        0.000000        0.453990         3
        23         4         3        27     9      180.000000        0.000725         4
        23         4         5        28     9        0.000000        0.063473         1
        23         4         5        28     9      180.000000        0.001370         2
        23         4         5        28     9        0.000000        0.453990         3
        23         4         5        28     9      180.000000        0.000725         4
        23         4         5        29     9        0.000000        0.063473         1
        23         4         5        29     9      180.000000        0.001370         2
        23         4         5        29     9        0.000000        0.453990         3
        23         4         5        29     9      180.000000        0.000725         4
        23         4        22        37     9        0.000000       -0.241237         1
        23         4        22        37     9      180.000000        0.219200         2
        23         4        22        37     9        0.000000        0.596224         3
        23         4        22        37     9      180.000000        0.018226         4
        23         4        22        41     9        0.000000       -0.241237         1
        23         4        22        41     9      180.000000        0.219200         2
        23         4        22        41     9        0.000000        0.596224         3
        23         4        22        41     9      180.000000        0.018226         4
        23         4        22        46     9        0.000000       -0.241237         1
        23         4        22        46     9      180.000000        0.219200         2
        23         4        22        46     9        0.000000        0.596224         3
        23         4        22        46     9      180.000000        0.018226         4
        24         2         3        26     9        0.000000       -0.005087         1
        24         2         3        26     9      180.000000        0.027187         2
        24         2         3        26     9        0.000000        0.423225         3
        24         2         3        26     9      180.000000       -0.002060         4
        24         2         3        27     9        0.000000       -0.005087         1
        24         2         3        27     9      180.000000        0.027187         2
        24         2         3        27     9        0.000000        0.423225         3
        24         2         3        27     9      180.000000       -0.002060         4
        25         2         3        26     9        0.000000       -0.005086         1
        25         2         3        26     9      180.000000        0.027187         2
        25         2         3        26     9        0.000000        0.423225         3
        25         2         3        26     9      180.000000       -0.002061         4
        25         2         3        27     9        0.000000       -0.005086         1
        25         2         3        27     9      180.000000        0.027187         2
        25         2         3        27     9        0.000000        0.423225         3
        25         2         3        27     9      180.000000       -0.002061         4
        28         5         6        30     9        0.000000       -0.005086         1
        28         5         6        30     9      180.000000        0.027187         2
        28         5         6        30     9        0.000000        0.423225         3
        28         5         6        30     9      180.000000       -0.002061         4
        28         5         6        31     9        0.000000       -0.005086         1
        28         5         6        31     9      180.000000        0.027187         2
        28         5         6        31     9        0.000000        0.423225         3
        28         5         6        31     9      180.000000       -0.002061         4
        29         5         6        30     9        0.000000       -0.005086         1
        29         5         6        30     9      180.000000        0.027187         2
        29         5         6        30     9        0.000000        0.423225         3
        29         5         6        30     9      180.000000       -0.002061         4
        29         5         6        31     9        0.000000       -0.005086         1
        29         5         6        31     9      180.000000        0.027187         2
        29         5         6        31     9        0.000000        0.423225         3
        29         5         6        31     9      180.000000       -0.002061         4
        32        10        11        42     9        0.000000       -0.213817         1
        32        10        11        42     9      180.000000       11.349868         2
        32        10        11        42     9        0.000000       -0.597407         3
        32        10        11        42     9      180.000000        0.253272         4
        33        12        11        42     9        0.000000       -0.238171         1
        33        12        11        42     9      180.000000       12.190813         2
        33        12        11        42     9        0.000000       -0.736835         3
        33        12        11        42     9      180.000000        0.271759         4

[ dihedrals ] ; impropers
;       ai        aj        ak        al funct           phase               k        pn
        11        10        12        42     4      180.000000        1.660399         2
        11        12        42        10     4      180.000000        1.660399         2
        11        42        10        12     4      180.000000        1.660399         2

[ pairs ]
;       ai        aj funct
         1         4     1
         1        14     1
         1        18     1
         1        26     1
         1        27     1
         1        28     1
         1        29     1
         1        34     1
         2         5     1
         2        15     1
         2        17     1
         2        22     1
         2        23     1
         2        30     1
         2        31     1
         3         6     1
         3        16     1
         3        28     1
         3        29     1
         3        37     1
         3        38     1
         3        39     1
         3        40     1
         3        41     1
         3        46     1
         4        24     1
         4        25     1
         4        30     1
         4        31     1
         5        16     1
         5        26     1
         5        27     1
         5        37     1
         5        38     1
         5        39     1
         5        40     1
         5        41     1
         5        46     1
         6        15     1
         6        17     1
         6        22     1
         6        23     1
         6        24     1
         6        25     1
         7        10     1
         7        15     1
         7        17     1
         7        19     1
         7        21     1
         7        42     1
         8        11     1
         8        14     1
         8        18     1
         8        32     1
         8        33     1
         9        12     1
         9        13     1
         9        42     1
        10        20     1
        10        33     1
        11        13     1
        11        19     1
        12        14     1
        12        18     1
        12        20     1
        12        32     1
        13        16     1
        13        20     1
        13        33     1
        13        34     1
        13        35     1
        13        36     1
        14        17     1
        14        21     1
        14        43     1
        14        44     1
        14        45     1
        15        18     1
        16        21     1
        16        24     1
        16        25     1
        16        30     1
        16        31     1
        16        43     1
        16        44     1
        16        45     1
        17        34     1
        17        35     1
        17        36     1
        19        20     1
        19        32     1
        22        26     1
        22        27     1
        22        28     1
        22        29     1
        22        38     1
        22        39     1
        22        40     1
        23        26     1
        23        27     1
        23        28     1
        23        29     1
        23        37     1
        23        41     1
        23        46     1
        24        26     1
        24        27     1
        25        26     1
        25        27     1
        28        30     1
        28        31     1
        29        30     1
        29        31     1
        32        42     1
        33        42     1
