; ITP file created by ByteFF-ML, 2026-02-21 07:46:35.945681

[ atomtypes ]
;name           bonded.type        at.num        mass        charge   ptype           sigma         epsilon
 n0bf                                   7      0.0000       0.00000       A     3.19026e-01     8.99909e-01
 c1bf                                   6      0.0000       0.00000       A     3.39802e-01     4.51399e-01
 c2bf                                   6      0.0000       0.00000       A     3.39737e-01     4.52316e-01
 c3bf                                   6      0.0000       0.00000       A     3.39953e-01     4.42911e-01
 c4bf                                   6      0.0000       0.00000       A     3.39737e-01     4.52316e-01
 c5bf                                   6      0.0000       0.00000       A     3.39802e-01     4.51399e-01
 c6bf                                   6      0.0000       0.00000       A     3.31684e-01     4.11459e-01
 c7bf                                   6      0.0000       0.00000       A     3.31515e-01     4.14506e-01
 c8bf                                   6      0.0000       0.00000       A     3.31527e-01     4.12656e-01
 c9bf                                   6      0.0000       0.00000       A     3.31490e-01     4.12710e-01
 c10bf                                  6      0.0000       0.00000       A     3.31465e-01     4.13235e-01
 c11bf                                  6      0.0000       0.00000       A     3.31467e-01     4.12831e-01
 c12bf                                  6      0.0000       0.00000       A     3.31500e-01     4.13835e-01
 n13bf                                  7      0.0000       0.00000       A     3.38462e-01     3.90569e-01
 c14bf                                  6      0.0000       0.00000       A     3.31604e-01     4.11068e-01
 c15bf                                  6      0.0000       0.00000       A     3.31347e-01     4.08329e-01
 n16bf                                  7      0.0000       0.00000       A     3.38338e-01     3.92981e-01
 c17bf                                  6      0.0000       0.00000       A     3.31203e-01     4.13411e-01
 cl18bf                                17      0.0000       0.00000       A     3.46745e-01     1.10550e+00
 cl19bf                                17      0.0000       0.00000       A     3.46725e-01     1.10759e+00
 n20bf                                  7      0.0000       0.00000       A     3.36721e-01     4.64006e-01
 n21bf                                  7      0.0000       0.00000       A     2.76368e-01     4.74797e+00
 c22bf                                  6      0.0000       0.00000       A     3.39520e-01     4.49397e-01
 h23bf                                  1      0.0000       0.00000       A     2.42252e-01     8.65900e-02
 h24bf                                  1      0.0000       0.00000       A     2.42252e-01     8.65900e-02
 h25bf                                  1      0.0000       0.00000       A     2.59993e-01     8.73289e-02
 h26bf                                  1      0.0000       0.00000       A     2.59993e-01     8.73289e-02
 h27bf                                  1      0.0000       0.00000       A     2.59993e-01     8.73289e-02
 h28bf                                  1      0.0000       0.00000       A     2.59993e-01     8.73289e-02
 h29bf                                  1      0.0000       0.00000       A     2.42252e-01     8.65900e-02
 h30bf                                  1      0.0000       0.00000       A     2.42252e-01     8.65900e-02
 h31bf                                  1      0.0000       0.00000       A     2.62433e-01     6.69663e-02
 h32bf                                  1      0.0000       0.00000       A     2.62502e-01     6.73461e-02
 h33bf                                  1      0.0000       0.00000       A     2.62496e-01     6.73046e-02
 h34bf                                  1      0.0000       0.00000       A     2.53687e-01     6.81841e-02
 h35bf                                  1      0.0000       0.00000       A     1.10348e-01     4.18186e-02
 h36bf                                  1      0.0000       0.00000       A     1.10348e-01     4.18186e-02
 h37bf                                  1      0.0000       0.00000       A     1.10628e-01     4.12153e-02
 h38bf                                  1      0.0000       0.00000       A     1.10628e-01     4.12153e-02
 h39bf                                  1      0.0000       0.00000       A     2.59831e-01     8.81397e-02
 h40bf                                  1      0.0000       0.00000       A     2.59831e-01     8.81397e-02
 h41bf                                  1      0.0000       0.00000       A     2.59831e-01     8.81397e-02
 h42bf                                  1      0.0000       0.00000       A     1.10628e-01     4.12153e-02

[ moleculetype ]
;name             nrexcl
 Example_7             3

[ atoms ]
;       nr            type      resi   res      atom      cgnr      charge          mass ; qtot
         1            n0bf         1   UNL        n0         1    -0.74651       14.0070 ; qtot   -0.747
         2            c1bf         1   UNL        c1         2     0.19684       12.0110 ; qtot   -0.550
         3            c2bf         1   UNL        c2         3    -0.11788       12.0110 ; qtot   -0.668
         4            c3bf         1   UNL        c3         4     0.17018       12.0110 ; qtot   -0.497
         5            c4bf         1   UNL        c4         5    -0.11788       12.0110 ; qtot   -0.615
         6            c5bf         1   UNL        c5         6     0.19684       12.0110 ; qtot   -0.418
         7            c6bf         1   UNL        c6         7    -0.11417       12.0110 ; qtot   -0.533
         8            c7bf         1   UNL        c7         8     0.13800       12.0110 ; qtot   -0.395
         9            c8bf         1   UNL        c8         9     0.12141       12.0110 ; qtot   -0.273
        10            c9bf         1   UNL        c9        10    -0.08482       12.0110 ; qtot   -0.358
        11           c10bf         1   UNL       c10        11    -0.10472       12.0110 ; qtot   -0.463
        12           c11bf         1   UNL       c11        12    -0.07881       12.0110 ; qtot   -0.542
        13           c12bf         1   UNL       c12        13     0.25222       12.0110 ; qtot   -0.289
        14           n13bf         1   UNL       n13        14    -0.56943       14.0070 ; qtot   -0.859
        15           c14bf         1   UNL       c14        15     0.19536       12.0110 ; qtot   -0.663
        16           c15bf         1   UNL       c15        16     0.58721       12.0110 ; qtot   -0.076
        17           n16bf         1   UNL       n16        17    -0.79803       14.0070 ; qtot   -0.874
        18           c17bf         1   UNL       c17        18     0.57975       12.0110 ; qtot   -0.294
        19          cl18bf         1   UNL      cl18        19    -0.17937       35.4530 ; qtot   -0.474
        20          cl19bf         1   UNL      cl19        20    -0.16743       35.4530 ; qtot   -0.641
        21           n20bf         1   UNL       n20        21    -1.01202       14.0070 ; qtot   -1.653
        22           n21bf         1   UNL       n21        22    -0.99988       14.0070 ; qtot   -2.653
        23           c22bf         1   UNL       c22        23    -0.12370       12.0110 ; qtot   -2.777
        24           h23bf         1   UNL       h23        24     0.07540        1.0080 ; qtot   -2.701
        25           h24bf         1   UNL       h24        25     0.07540        1.0080 ; qtot   -2.626
        26           h25bf         1   UNL       h25        26     0.08357        1.0080 ; qtot   -2.542
        27           h26bf         1   UNL       h26        27     0.08357        1.0080 ; qtot   -2.459
        28           h27bf         1   UNL       h27        28     0.08357        1.0080 ; qtot   -2.375
        29           h28bf         1   UNL       h28        29     0.08357        1.0080 ; qtot   -2.292
        30           h29bf         1   UNL       h29        30     0.07540        1.0080 ; qtot   -2.216
        31           h30bf         1   UNL       h30        31     0.07540        1.0080 ; qtot   -2.141
        32           h31bf         1   UNL       h31        32     0.13777        1.0080 ; qtot   -2.003
        33           h32bf         1   UNL       h32        33     0.12850        1.0080 ; qtot   -1.875
        34           h33bf         1   UNL       h33        34     0.13319        1.0080 ; qtot   -1.741
        35           h34bf         1   UNL       h34        35     0.03313        1.0080 ; qtot   -1.708
        36           h35bf         1   UNL       h35        36     0.46078        1.0080 ; qtot   -1.248
        37           h36bf         1   UNL       h36        37     0.46078        1.0080 ; qtot   -0.787
        38           h37bf         1   UNL       h37        38     0.52124        1.0080 ; qtot   -0.266
        39           h38bf         1   UNL       h38        39     0.52124        1.0080 ; qtot    0.256
        40           h39bf         1   UNL       h39        40     0.07436        1.0080 ; qtot    0.330
        41           h40bf         1   UNL       h40        41     0.07436        1.0080 ; qtot    0.404
        42           h41bf         1   UNL       h41        42     0.07436        1.0080 ; qtot    0.479
        43           h42bf         1   UNL       h42        43     0.52125        1.0080 ; qtot    1.000

[ bonds ]
;       ai        aj funct               r               k
         1         2     1        0.146511   188836.836670
         1         6     1        0.146511   188836.836670
         1        16     1        0.138186   283235.272217
         2         3     1        0.154085   170874.544678
         2        24     1        0.109330   299344.974609
         2        25     1        0.109330   299344.974609
         3         4     1        0.153901   170422.129248
         3        26     1        0.109412   300137.493262
         3        27     1        0.109412   300137.493262
         4         5     1        0.153901   170422.129248
         4        22     1        0.155311    81285.091577
         4        23     1        0.152862   185224.433789
         5         6     1        0.154085   170874.544678
         5        28     1        0.109412   300137.493262
         5        29     1        0.109412   300137.493262
         6        30     1        0.109330   299344.974609
         6        31     1        0.109330   299344.974609
         7         8     1        0.140710   261792.297754
         7        12     1        0.140354   285048.075000
         7        13     1        0.148833   208862.782471
         8         9     1        0.140387   278821.693604
         8        20     1        0.174706   154969.317920
         9        10     1        0.139783   293456.602393
         9        19     1        0.174841   155133.993970
        10        11     1        0.139565   310227.205176
        10        32     1        0.108429   326455.884961
        11        12     1        0.139378   319661.558252
        11        33     1        0.108544   323106.182324
        12        34     1        0.108477   323509.413281
        13        14     1        0.133825   302729.714160
        13        18     1        0.142179   226218.619189
        14        15     1        0.132650   354483.194482
        15        16     1        0.142359   230931.926855
        15        35     1        0.108577   318926.625781
        16        17     1        0.134444   289254.266748
        17        18     1        0.133478   320630.104199
        18        21     1        0.138493   300966.478906
        21        36     1        0.101319   418006.447607
        21        37     1        0.101319   418006.447607
        22        38     1        0.102770   380670.861719
        22        39     1        0.102770   380670.861719
        22        43     1        0.102770   380670.861719
        23        40     1        0.109334   304479.006152
        23        41     1        0.109334   304479.006152
        23        42     1        0.109334   304479.006152

[ angles ]
;       ai        aj        ak funct           theta             cth
         1         2         3     1      110.490799      649.030359
         1         2        24     1      109.697311      432.006683
         1         2        25     1      109.697311      432.006683
         1         6         5     1      110.490799      649.030359
         1         6        30     1      109.697311      432.006683
         1         6        31     1      109.697311      432.006683
         1        16        15     1      122.749901      568.493211
         1        16        17     1      117.144730      580.974473
         2         1         6     1      114.291527      468.156312
         2         1        16     1      119.183144      534.130668
         2         3         4     1      111.743065      618.441690
         2         3        26     1      109.261940      501.379453
         2         3        27     1      109.261940      501.379453
         3         2        24     1      109.907776      484.800570
         3         2        25     1      109.907776      484.800634
         3         4         5     1      110.528786      534.982107
         3         4        22     1      106.622520      675.512469
         3         4        23     1      112.587425      600.627258
         4         3        26     1      109.613670      487.526816
         4         3        27     1      109.613670      487.526816
         4         5         6     1      111.743065      618.441690
         4         5        28     1      109.613670      487.526816
         4         5        29     1      109.613670      487.526816
         4        22        38     1      111.194313      445.707501
         4        22        39     1      111.194313      445.707501
         4        22        43     1      111.194313      445.707501
         4        23        40     1      111.123024      496.118936
         4        23        41     1      111.123024      496.118936
         4        23        42     1      111.123024      496.118936
         5         4        22     1      106.622520      675.512469
         5         4        23     1      112.587425      600.627258
         5         6        30     1      109.907776      484.800634
         5         6        31     1      109.907776      484.800634
         6         1        16     1      119.183144      534.130668
         6         5        28     1      109.261940      501.379453
         6         5        29     1      109.261940      501.379453
         7         8         9     1      119.997276      599.390560
         7         8        20     1      120.161278      335.846378
         7        12        11     1      121.055527      700.910210
         7        12        34     1      118.366478      402.030617
         7        13        14     1      117.392982      506.470084
         7        13        18     1      122.344376      459.468205
         8         7        12     1      118.561058      599.229038
         8         7        13     1      122.578758      435.207249
         8         9        10     1      120.349487      591.281123
         8         9        19     1      121.253151      346.786508
         9         8        20     1      120.147606      381.455208
         9        10        11     1      119.701218      613.951309
         9        10        32     1      119.180435      412.481935
        10         9        19     1      118.130531      339.335386
        10        11        12     1      120.050781      736.602725
        10        11        33     1      119.709694      442.443125
        11        10        32     1      121.192947      417.179167
        11        12        34     1      120.517212      416.328781
        12         7        13     1      119.001266      492.708455
        12        11        33     1      120.245544      430.627679
        13        14        15     1      119.215477      683.327719
        13        18        17     1      121.342758      645.385958
        13        18        21     1      122.275841      522.322245
        14        13        18     1      119.635056      703.541107
        14        15        16     1      121.593262      807.009430
        14        15        35     1      116.675438      372.196634
        15        16        17     1      119.323959      592.596923
        16        15        35     1      122.323936      369.386466
        16        17        18     1      118.821533      930.386866
        17        18        21     1      116.780075      609.127349
        18        21        36     1      114.485062      466.799047
        18        21        37     1      114.485062      466.799047
        22         4        23     1      106.513611      724.561723
        24         2        25     1      107.284828      347.460113
        26         3        27     1      106.823082      356.804652
        28         5        29     1      106.823082      356.804652
        30         6        31     1      107.284828      347.460113
        36        21        37     1      114.442482      347.937816
        38        22        39     1      107.909775      400.797366
        38        22        43     1      107.909775      400.797366
        39        22        43     1      107.909775      400.797366
        40        23        41     1      107.934082      360.937993
        40        23        42     1      107.934082      360.937993
        41        23        42     1      107.934082      360.937929

[ dihedrals ] ; propers for gromacs 4.5 or higher, use funct 9
;       ai        aj        ak        al funct           phase               k        pn
         1         2         3         4     9        0.000000        3.493938         1
         1         2         3         4     9      180.000000       -1.749451         2
         1         2         3         4     9        0.000000        0.427505         3
         1         2         3         4     9      180.000000       -0.118074         4
         1         2         3        26     9        0.000000       -0.015747         1
         1         2         3        26     9      180.000000       -0.015029         2
         1         2         3        26     9        0.000000        0.410471         3
         1         2         3        26     9      180.000000       -0.011039         4
         1         2         3        27     9        0.000000       -0.015747         1
         1         2         3        27     9      180.000000       -0.015029         2
         1         2         3        27     9        0.000000        0.410471         3
         1         2         3        27     9      180.000000       -0.011039         4
         1         6         5         4     9        0.000000        3.493938         1
         1         6         5         4     9      180.000000       -1.749451         2
         1         6         5         4     9        0.000000        0.427505         3
         1         6         5         4     9      180.000000       -0.118074         4
         1         6         5        28     9        0.000000       -0.015747         1
         1         6         5        28     9      180.000000       -0.015029         2
         1         6         5        28     9        0.000000        0.410471         3
         1         6         5        28     9      180.000000       -0.011039         4
         1         6         5        29     9        0.000000       -0.015747         1
         1         6         5        29     9      180.000000       -0.015029         2
         1         6         5        29     9        0.000000        0.410471         3
         1         6         5        29     9      180.000000       -0.011039         4
         1        16        15        14     9        0.000000        0.629477         1
         1        16        15        14     9      180.000000       11.828862         2
         1        16        15        14     9        0.000000        0.392731         3
         1        16        15        14     9      180.000000       -0.894801         4
         1        16        15        35     9        0.000000       -0.150775         1
         1        16        15        35     9      180.000000       10.253559         2
         1        16        15        35     9        0.000000       -0.130717         3
         1        16        15        35     9      180.000000       -0.205705         4
         1        16        17        18     9        0.000000        1.781757         1
         1        16        17        18     9      180.000000       19.693554         2
         1        16        17        18     9        0.000000        0.996750         3
         1        16        17        18     9      180.000000       -1.097555         4
         2         1         6         5     9        0.000000        0.097834         1
         2         1         6         5     9      180.000000        0.071711         2
         2         1         6         5     9        0.000000        0.801694         3
         2         1         6         5     9      180.000000        0.019443         4
         2         1         6        30     9        0.000000        0.061239         1
         2         1         6        30     9      180.000000        0.125634         2
         2         1         6        30     9        0.000000        0.910232         3
         2         1         6        30     9      180.000000        0.047377         4
         2         1         6        31     9        0.000000        0.061239         1
         2         1         6        31     9      180.000000        0.125634         2
         2         1         6        31     9        0.000000        0.910232         3
         2         1         6        31     9      180.000000        0.047377         4
         2         1        16        15     9        0.000000        2.625406         1
         2         1        16        15     9      180.000000        6.826735         2
         2         1        16        15     9        0.000000       -0.264054         3
         2         1        16        15     9      180.000000        0.127869         4
         2         1        16        17     9        0.000000        0.600057         1
         2         1        16        17     9      180.000000        7.629537         2
         2         1        16        17     9        0.000000       -0.413988         3
         2         1        16        17     9      180.000000        0.031970         4
         2         3         4         5     9        0.000000        3.305309         1
         2         3         4         5     9      180.000000       -1.662805         2
         2         3         4         5     9        0.000000        0.073143         3
         2         3         4         5     9      180.000000        0.016898         4
         2         3         4        22     9        0.000000        3.630557         1
         2         3         4        22     9      180.000000       -1.235852         2
         2         3         4        22     9        0.000000        0.455688         3
         2         3         4        22     9      180.000000        0.423887         4
         2         3         4        23     9        0.000000       -2.449354         1
         2         3         4        23     9      180.000000        1.049945         2
         2         3         4        23     9        0.000000        0.264187         3
         2         3         4        23     9      180.000000        0.059308         4
         3         2         1         6     9        0.000000        0.097834         1
         3         2         1         6     9      180.000000        0.071711         2
         3         2         1         6     9        0.000000        0.801694         3
         3         2         1         6     9      180.000000        0.019443         4
         3         2         1        16     9        0.000000       -1.074942         1
         3         2         1        16     9      180.000000        0.926658         2
         3         2         1        16     9        0.000000        0.495629         3
         3         2         1        16     9      180.000000        0.049013         4
         3         4         5         6     9        0.000000        3.305309         1
         3         4         5         6     9      180.000000       -1.662805         2
         3         4         5         6     9        0.000000        0.073143         3
         3         4         5         6     9      180.000000        0.016898         4
         3         4         5        28     9        0.000000        0.007174         1
         3         4         5        28     9      180.000000        0.103972         2
         3         4         5        28     9        0.000000        0.342335         3
         3         4         5        28     9      180.000000       -0.008057         4
         3         4         5        29     9        0.000000        0.007174         1
         3         4         5        29     9      180.000000        0.103972         2
         3         4         5        29     9        0.000000        0.342335         3
         3         4         5        29     9      180.000000       -0.008057         4
         3         4        22        38     9        0.000000        0.062222         1
         3         4        22        38     9      180.000000        0.164656         2
         3         4        22        38     9        0.000000        0.559493         3
         3         4        22        38     9      180.000000        0.034876         4
         3         4        22        39     9        0.000000        0.062222         1
         3         4        22        39     9      180.000000        0.164656         2
         3         4        22        39     9        0.000000        0.559493         3
         3         4        22        39     9      180.000000        0.034876         4
         3         4        22        43     9        0.000000        0.062222         1
         3         4        22        43     9      180.000000        0.164656         2
         3         4        22        43     9        0.000000        0.559493         3
         3         4        22        43     9      180.000000        0.034876         4
         3         4        23        40     9        0.000000        0.001963         1
         3         4        23        40     9      180.000000        0.017089         2
         3         4        23        40     9        0.000000        0.502026         3
         3         4        23        40     9      180.000000        0.013943         4
         3         4        23        41     9        0.000000        0.001963         1
         3         4        23        41     9      180.000000        0.017089         2
         3         4        23        41     9        0.000000        0.502026         3
         3         4        23        41     9      180.000000        0.013943         4
         3         4        23        42     9        0.000000        0.001963         1
         3         4        23        42     9      180.000000        0.017089         2
         3         4        23        42     9        0.000000        0.502026         3
         3         4        23        42     9      180.000000        0.013943         4
         4         3         2        24     9        0.000000       -0.110172         1
         4         3         2        24     9      180.000000       -0.011484         2
         4         3         2        24     9        0.000000        0.408420         3
         4         3         2        24     9      180.000000        0.004906         4
         4         3         2        25     9        0.000000       -0.110172         1
         4         3         2        25     9      180.000000       -0.011484         2
         4         3         2        25     9        0.000000        0.408420         3
         4         3         2        25     9      180.000000        0.004906         4
         4         5         6        30     9        0.000000       -0.110172         1
         4         5         6        30     9      180.000000       -0.011484         2
         4         5         6        30     9        0.000000        0.408420         3
         4         5         6        30     9      180.000000        0.004906         4
         4         5         6        31     9        0.000000       -0.110172         1
         4         5         6        31     9      180.000000       -0.011484         2
         4         5         6        31     9        0.000000        0.408420         3
         4         5         6        31     9      180.000000        0.004906         4
         5         4         3        26     9        0.000000        0.007174         1
         5         4         3        26     9      180.000000        0.103972         2
         5         4         3        26     9        0.000000        0.342335         3
         5         4         3        26     9      180.000000       -0.008057         4
         5         4         3        27     9        0.000000        0.007174         1
         5         4         3        27     9      180.000000        0.103972         2
         5         4         3        27     9        0.000000        0.342335         3
         5         4         3        27     9      180.000000       -0.008057         4
         5         4        22        38     9        0.000000        0.062222         1
         5         4        22        38     9      180.000000        0.164656         2
         5         4        22        38     9        0.000000        0.559493         3
         5         4        22        38     9      180.000000        0.034876         4
         5         4        22        39     9        0.000000        0.062222         1
         5         4        22        39     9      180.000000        0.164656         2
         5         4        22        39     9        0.000000        0.559493         3
         5         4        22        39     9      180.000000        0.034876         4
         5         4        22        43     9        0.000000        0.062222         1
         5         4        22        43     9      180.000000        0.164656         2
         5         4        22        43     9        0.000000        0.559493         3
         5         4        22        43     9      180.000000        0.034876         4
         5         4        23        40     9        0.000000        0.001963         1
         5         4        23        40     9      180.000000        0.017089         2
         5         4        23        40     9        0.000000        0.502026         3
         5         4        23        40     9      180.000000        0.013943         4
         5         4        23        41     9        0.000000        0.001963         1
         5         4        23        41     9      180.000000        0.017089         2
         5         4        23        41     9        0.000000        0.502026         3
         5         4        23        41     9      180.000000        0.013943         4
         5         4        23        42     9        0.000000        0.001963         1
         5         4        23        42     9      180.000000        0.017089         2
         5         4        23        42     9        0.000000        0.502026         3
         5         4        23        42     9      180.000000        0.013943         4
         5         6         1        16     9        0.000000       -1.074942         1
         5         6         1        16     9      180.000000        0.926658         2
         5         6         1        16     9        0.000000        0.495629         3
         5         6         1        16     9      180.000000        0.049013         4
         6         1         2        24     9        0.000000        0.061239         1
         6         1         2        24     9      180.000000        0.125634         2
         6         1         2        24     9        0.000000        0.910232         3
         6         1         2        24     9      180.000000        0.047377         4
         6         1         2        25     9        0.000000        0.061239         1
         6         1         2        25     9      180.000000        0.125634         2
         6         1         2        25     9        0.000000        0.910232         3
         6         1         2        25     9      180.000000        0.047377         4
         6         1        16        15     9        0.000000        2.625406         1
         6         1        16        15     9      180.000000        6.826735         2
         6         1        16        15     9        0.000000       -0.264054         3
         6         1        16        15     9      180.000000        0.127869         4
         6         1        16        17     9        0.000000        0.600057         1
         6         1        16        17     9      180.000000        7.629537         2
         6         1        16        17     9        0.000000       -0.413988         3
         6         1        16        17     9      180.000000        0.031970         4
         6         5         4        22     9        0.000000        3.630557         1
         6         5         4        22     9      180.000000       -1.235852         2
         6         5         4        22     9        0.000000        0.455688         3
         6         5         4        22     9      180.000000        0.423887         4
         6         5         4        23     9        0.000000       -2.449354         1
         6         5         4        23     9      180.000000        1.049945         2
         6         5         4        23     9        0.000000        0.264187         3
         6         5         4        23     9      180.000000        0.059308         4
         7         8         9        10     9        0.000000       -0.023187         1
         7         8         9        10     9      180.000000       16.492389         2
         7         8         9        10     9        0.000000       -1.005486         3
         7         8         9        10     9      180.000000       -0.404463         4
         7         8         9        19     9        0.000000        0.201463         1
         7         8         9        19     9      180.000000       16.426029         2
         7         8         9        19     9        0.000000        0.045239         3
         7         8         9        19     9      180.000000       -0.532014         4
         7        12        11        10     9        0.000000       -0.007401         1
         7        12        11        10     9      180.000000       18.930911         2
         7        12        11        10     9        0.000000       -1.593623         3
         7        12        11        10     9      180.000000       -0.486475         4
         7        12        11        33     9        0.000000       -0.003559         1
         7        12        11        33     9      180.000000       14.583289         2
         7        12        11        33     9        0.000000       -0.747987         3
         7        12        11        33     9      180.000000        0.023472         4
         7        13        14        15     9        0.000000       -0.105891         1
         7        13        14        15     9      180.000000       24.500690         2
         7        13        14        15     9        0.000000        0.650011         3
         7        13        14        15     9      180.000000       -0.786461         4
         7        13        18        17     9        0.000000       -0.109074         1
         7        13        18        17     9      180.000000        9.209018         2
         7        13        18        17     9        0.000000        0.051911         3
         7        13        18        17     9      180.000000       -0.553114         4
         7        13        18        21     9        0.000000        0.487701         1
         7        13        18        21     9      180.000000       13.589064         2
         7        13        18        21     9        0.000000        0.264241         3
         7        13        18        21     9      180.000000       -0.685050         4
         8         7        12        11     9        0.000000       -0.045707         1
         8         7        12        11     9      180.000000       18.574712         2
         8         7        12        11     9        0.000000       -1.518571         3
         8         7        12        11     9      180.000000       -0.377134         4
         8         7        12        34     9        0.000000        0.027458         1
         8         7        12        34     9      180.000000       14.296796         2
         8         7        12        34     9        0.000000       -0.645811         3
         8         7        12        34     9      180.000000        0.107702         4
         8         7        13        14     9        0.000000       -2.733759         1
         8         7        13        14     9      180.000000        2.501241         2
         8         7        13        14     9        0.000000        0.550860         3
         8         7        13        14     9      180.000000       -0.250049         4
         8         7        13        18     9        0.000000        3.294068         1
         8         7        13        18     9      180.000000       -1.147928         2
         8         7        13        18     9        0.000000        0.706746         3
         8         7        13        18     9      180.000000        0.009369         4
         8         9        10        11     9        0.000000        0.014733         1
         8         9        10        11     9      180.000000       17.989214         2
         8         9        10        11     9        0.000000       -1.144844         3
         8         9        10        11     9      180.000000       -0.419331         4
         8         9        10        32     9        0.000000        0.118544         1
         8         9        10        32     9      180.000000       13.407008         2
         8         9        10        32     9        0.000000       -0.432892         3
         8         9        10        32     9      180.000000        0.071731         4
         9         8         7        12     9        0.000000       -0.148804         1
         9         8         7        12     9      180.000000       17.267579         2
         9         8         7        12     9        0.000000       -1.255566         3
         9         8         7        12     9      180.000000       -0.507607         4
         9         8         7        13     9        0.000000        0.159831         1
         9         8         7        13     9      180.000000       13.474611         2
         9         8         7        13     9        0.000000       -0.359087         3
         9         8         7        13     9      180.000000       -0.276790         4
         9        10        11        12     9        0.000000       -0.015052         1
         9        10        11        12     9      180.000000       18.787087         2
         9        10        11        12     9        0.000000       -1.441663         3
         9        10        11        12     9      180.000000       -0.417482         4
         9        10        11        33     9        0.000000        0.039096         1
         9        10        11        33     9      180.000000       14.176347         2
         9        10        11        33     9        0.000000       -0.528023         3
         9        10        11        33     9      180.000000        0.072992         4
        10         9         8        20     9        0.000000        0.138716         1
        10         9         8        20     9      180.000000       17.502714         2
        10         9         8        20     9        0.000000        0.086590         3
        10         9         8        20     9      180.000000       -0.504530         4
        10        11        12        34     9        0.000000        0.056213         1
        10        11        12        34     9      180.000000       14.986210         2
        10        11        12        34     9        0.000000       -0.720986         3
        10        11        12        34     9      180.000000        0.071359         4
        11        10         9        19     9        0.000000        0.378297         1
        11        10         9        19     9      180.000000       19.840271         2
        11        10         9        19     9        0.000000        0.460777         3
        11        10         9        19     9      180.000000       -0.662431         4
        11        12         7        13     9        0.000000        0.225024         1
        11        12         7        13     9      180.000000       16.654738         2
        11        12         7        13     9        0.000000       -0.119652         3
        11        12         7        13     9      180.000000       -0.289433         4
        12         7         8        20     9        0.000000        0.449829         1
        12         7         8        20     9      180.000000       18.749042         2
        12         7         8        20     9        0.000000        0.262073         3
        12         7         8        20     9      180.000000       -0.866280         4
        12         7        13        14     9        0.000000        1.181449         1
        12         7        13        14     9      180.000000        3.292958         2
        12         7        13        14     9        0.000000       -0.130775         3
        12         7        13        14     9      180.000000       -0.020786         4
        12         7        13        18     9        0.000000        0.029681         1
        12         7        13        18     9      180.000000        1.193958         2
        12         7        13        18     9        0.000000       -0.119374         3
        12         7        13        18     9      180.000000        0.041536         4
        12        11        10        32     9        0.000000        0.071283         1
        12        11        10        32     9      180.000000       14.058772         2
        12        11        10        32     9        0.000000       -0.744499         3
        12        11        10        32     9      180.000000        0.124991         4
        13         7         8        20     9        0.000000        0.090532         1
        13         7         8        20     9      180.000000       15.932390         2
        13         7         8        20     9        0.000000        0.261722         3
        13         7         8        20     9      180.000000       -0.723019         4
        13         7        12        34     9        0.000000       -0.046255         1
        13         7        12        34     9      180.000000       13.248081         2
        13         7        12        34     9        0.000000       -0.336034         3
        13         7        12        34     9      180.000000        0.183023         4
        13        14        15        16     9        0.000000       -0.070154         1
        13        14        15        16     9      180.000000       21.775268         2
        13        14        15        16     9        0.000000       -0.972092         3
        13        14        15        16     9      180.000000       -0.261823         4
        13        14        15        35     9        0.000000        0.648168         1
        13        14        15        35     9      180.000000       19.948556         2
        13        14        15        35     9        0.000000       -0.070428         3
        13        14        15        35     9      180.000000       -0.087020         4
        13        18        17        16     9        0.000000        0.072757         1
        13        18        17        16     9      180.000000       21.511188         2
        13        18        17        16     9        0.000000       -0.491870         3
        13        18        17        16     9      180.000000       -0.411238         4
        13        18        21        36     9        0.000000       -1.857828         1
        13        18        21        36     9      180.000000        6.959336         2
        13        18        21        36     9        0.000000        0.070225         3
        13        18        21        36     9      180.000000        0.508093         4
        13        18        21        37     9        0.000000       -1.857828         1
        13        18        21        37     9      180.000000        6.959336         2
        13        18        21        37     9        0.000000        0.070225         3
        13        18        21        37     9      180.000000        0.508093         4
        14        13        18        17     9        0.000000       -0.518454         1
        14        13        18        17     9      180.000000        8.384990         2
        14        13        18        17     9        0.000000        0.339742         3
        14        13        18        17     9      180.000000       -0.992058         4
        14        13        18        21     9        0.000000        1.010766         1
        14        13        18        21     9      180.000000       13.212336         2
        14        13        18        21     9        0.000000        0.119265         3
        14        13        18        21     9      180.000000       -0.961934         4
        14        15        16        17     9        0.000000       -1.196351         1
        14        15        16        17     9      180.000000        8.683583         2
        14        15        16        17     9        0.000000        0.163987         3
        14        15        16        17     9      180.000000       -0.828244         4
        15        14        13        18     9        0.000000        0.047214         1
        15        14        13        18     9      180.000000       22.166909         2
        15        14        13        18     9        0.000000       -0.657733         3
        15        14        13        18     9      180.000000       -0.226006         4
        15        16        17        18     9        0.000000        1.219652         1
        15        16        17        18     9      180.000000       13.330988         2
        15        16        17        18     9        0.000000        0.474395         3
        15        16        17        18     9      180.000000       -0.619438         4
        16         1         2        24     9        0.000000        0.048989         1
        16         1         2        24     9      180.000000        0.020477         2
        16         1         2        24     9        0.000000        0.603697         3
        16         1         2        24     9      180.000000       -0.015968         4
        16         1         2        25     9        0.000000        0.048989         1
        16         1         2        25     9      180.000000        0.020477         2
        16         1         2        25     9        0.000000        0.603697         3
        16         1         2        25     9      180.000000       -0.015968         4
        16         1         6        30     9        0.000000        0.048989         1
        16         1         6        30     9      180.000000        0.020477         2
        16         1         6        30     9        0.000000        0.603697         3
        16         1         6        30     9      180.000000       -0.015968         4
        16         1         6        31     9        0.000000        0.048989         1
        16         1         6        31     9      180.000000        0.020477         2
        16         1         6        31     9        0.000000        0.603697         3
        16         1         6        31     9      180.000000       -0.015968         4
        16        17        18        21     9        0.000000        0.259139         1
        16        17        18        21     9      180.000000       28.676939         2
        16        17        18        21     9        0.000000        0.829978         3
        16        17        18        21     9      180.000000       -1.187776         4
        17        16        15        35     9        0.000000       -0.321600         1
        17        16        15        35     9      180.000000        7.339193         2
        17        16        15        35     9        0.000000       -0.318378         3
        17        16        15        35     9      180.000000       -0.301809         4
        17        18        21        36     9        0.000000       12.429835         1
        17        18        21        36     9      180.000000        7.688574         2
        17        18        21        36     9        0.000000        0.221701         3
        17        18        21        36     9      180.000000        0.552451         4
        17        18        21        37     9        0.000000       12.429835         1
        17        18        21        37     9      180.000000        7.688574         2
        17        18        21        37     9        0.000000        0.221701         3
        17        18        21        37     9      180.000000        0.552451         4
        19         9         8        20     9        0.000000       -0.205349         1
        19         9         8        20     9      180.000000       19.002199         2
        19         9         8        20     9        0.000000        0.253249         3
        19         9         8        20     9      180.000000       -1.011539         4
        19         9        10        32     9        0.000000        0.106997         1
        19         9        10        32     9      180.000000       13.913808         2
        19         9        10        32     9        0.000000       -0.103000         3
        19         9        10        32     9      180.000000        0.172748         4
        22         4         3        26     9        0.000000       -0.169322         1
        22         4         3        26     9      180.000000        0.053936         2
        22         4         3        26     9        0.000000        0.536176         3
        22         4         3        26     9      180.000000       -0.087261         4
        22         4         3        27     9        0.000000       -0.169322         1
        22         4         3        27     9      180.000000        0.053936         2
        22         4         3        27     9        0.000000        0.536176         3
        22         4         3        27     9      180.000000       -0.087261         4
        22         4         5        28     9        0.000000       -0.169322         1
        22         4         5        28     9      180.000000        0.053936         2
        22         4         5        28     9        0.000000        0.536176         3
        22         4         5        28     9      180.000000       -0.087261         4
        22         4         5        29     9        0.000000       -0.169322         1
        22         4         5        29     9      180.000000        0.053936         2
        22         4         5        29     9        0.000000        0.536176         3
        22         4         5        29     9      180.000000       -0.087261         4
        22         4        23        40     9        0.000000       -0.256018         1
        22         4        23        40     9      180.000000       -0.145324         2
        22         4        23        40     9        0.000000        0.609263         3
        22         4        23        40     9      180.000000        0.002710         4
        22         4        23        41     9        0.000000       -0.256018         1
        22         4        23        41     9      180.000000       -0.145324         2
        22         4        23        41     9        0.000000        0.609263         3
        22         4        23        41     9      180.000000        0.002710         4
        22         4        23        42     9        0.000000       -0.256018         1
        22         4        23        42     9      180.000000       -0.145324         2
        22         4        23        42     9        0.000000        0.609263         3
        22         4        23        42     9      180.000000        0.002710         4
        23         4         3        26     9        0.000000        0.063473         1
        23         4         3        26     9      180.000000        0.001370         2
        23         4         3        26     9        0.000000        0.453990         3
        23         4         3        26     9      180.000000        0.000725         4
        23         4         3        27     9        0.000000        0.063473         1
        23         4         3        27     9      180.000000        0.001370         2
        23         4         3        27     9        0.000000        0.453990         3
        23         4         3        27     9      180.000000        0.000725         4
        23         4         5        28     9        0.000000        0.063473         1
        23         4         5        28     9      180.000000        0.001370         2
        23         4         5        28     9        0.000000        0.453990         3
        23         4         5        28     9      180.000000        0.000725         4
        23         4         5        29     9        0.000000        0.063473         1
        23         4         5        29     9      180.000000        0.001370         2
        23         4         5        29     9        0.000000        0.453990         3
        23         4         5        29     9      180.000000        0.000725         4
        23         4        22        38     9        0.000000       -0.241238         1
        23         4        22        38     9      180.000000        0.219200         2
        23         4        22        38     9        0.000000        0.596224         3
        23         4        22        38     9      180.000000        0.018226         4
        23         4        22        39     9        0.000000       -0.241238         1
        23         4        22        39     9      180.000000        0.219200         2
        23         4        22        39     9        0.000000        0.596224         3
        23         4        22        39     9      180.000000        0.018226         4
        23         4        22        43     9        0.000000       -0.241238         1
        23         4        22        43     9      180.000000        0.219200         2
        23         4        22        43     9        0.000000        0.596224         3
        23         4        22        43     9      180.000000        0.018226         4
        24         2         3        26     9        0.000000       -0.008238         1
        24         2         3        26     9      180.000000        0.010357         2
        24         2         3        26     9        0.000000        0.419133         3
        24         2         3        26     9      180.000000       -0.004232         4
        24         2         3        27     9        0.000000       -0.008238         1
        24         2         3        27     9      180.000000        0.010357         2
        24         2         3        27     9        0.000000        0.419133         3
        24         2         3        27     9      180.000000       -0.004232         4
        25         2         3        26     9        0.000000       -0.008238         1
        25         2         3        26     9      180.000000        0.010357         2
        25         2         3        26     9        0.000000        0.419133         3
        25         2         3        26     9      180.000000       -0.004232         4
        25         2         3        27     9        0.000000       -0.008238         1
        25         2         3        27     9      180.000000        0.010357         2
        25         2         3        27     9        0.000000        0.419133         3
        25         2         3        27     9      180.000000       -0.004232         4
        28         5         6        30     9        0.000000       -0.008238         1
        28         5         6        30     9      180.000000        0.010357         2
        28         5         6        30     9        0.000000        0.419133         3
        28         5         6        30     9      180.000000       -0.004232         4
        28         5         6        31     9        0.000000       -0.008238         1
        28         5         6        31     9      180.000000        0.010357         2
        28         5         6        31     9        0.000000        0.419133         3
        28         5         6        31     9      180.000000       -0.004232         4
        29         5         6        30     9        0.000000       -0.008238         1
        29         5         6        30     9      180.000000        0.010357         2
        29         5         6        30     9        0.000000        0.419133         3
        29         5         6        30     9      180.000000       -0.004232         4
        29         5         6        31     9        0.000000       -0.008238         1
        29         5         6        31     9      180.000000        0.010357         2
        29         5         6        31     9        0.000000        0.419133         3
        29         5         6        31     9      180.000000       -0.004232         4
        32        10        11        33     9        0.000000       -0.213817         1
        32        10        11        33     9      180.000000       11.349868         2
        32        10        11        33     9        0.000000       -0.597407         3
        32        10        11        33     9      180.000000        0.253272         4
        33        11        12        34     9        0.000000       -0.238171         1
        33        11        12        34     9      180.000000       12.190812         2
        33        11        12        34     9        0.000000       -0.736835         3
        33        11        12        34     9      180.000000        0.271760         4

[ dihedrals ] ; impropers
;       ai        aj        ak        al funct           phase               k        pn
        11        10        12        33     4      180.000000        1.660399         2
        11        12        33        10     4      180.000000        1.660399         2
        11        33        10        12     4      180.000000        1.660399         2

[ pairs ]
;       ai        aj funct
         1         4     1
         1        14     1
         1        18     1
         1        26     1
         1        27     1
         1        28     1
         1        29     1
         1        35     1
         2         5     1
         2        15     1
         2        17     1
         2        22     1
         2        23     1
         2        30     1
         2        31     1
         3         6     1
         3        16     1
         3        28     1
         3        29     1
         3        38     1
         3        39     1
         3        40     1
         3        41     1
         3        42     1
         3        43     1
         4        24     1
         4        25     1
         4        30     1
         4        31     1
         5        16     1
         5        26     1
         5        27     1
         5        38     1
         5        39     1
         5        40     1
         5        41     1
         5        42     1
         5        43     1
         6        15     1
         6        17     1
         6        22     1
         6        23     1
         6        24     1
         6        25     1
         7        10     1
         7        15     1
         7        17     1
         7        19     1
         7        21     1
         7        33     1
         8        11     1
         8        14     1
         8        18     1
         8        32     1
         8        34     1
         9        12     1
         9        13     1
         9        33     1
        10        20     1
        10        34     1
        11        13     1
        11        19     1
        12        14     1
        12        18     1
        12        20     1
        12        32     1
        13        16     1
        13        20     1
        13        34     1
        13        35     1
        13        36     1
        13        37     1
        14        17     1
        14        21     1
        15        18     1
        16        21     1
        16        24     1
        16        25     1
        16        30     1
        16        31     1
        17        35     1
        17        36     1
        17        37     1
        19        20     1
        19        32     1
        22        26     1
        22        27     1
        22        28     1
        22        29     1
        22        40     1
        22        41     1
        22        42     1
        23        26     1
        23        27     1
        23        28     1
        23        29     1
        23        38     1
        23        39     1
        23        43     1
        24        26     1
        24        27     1
        25        26     1
        25        27     1
        28        30     1
        28        31     1
        29        30     1
        29        31     1
        32        33     1
        33        34     1
