; ITP file created by ByteFF-ML, 2026-02-21 07:47:32.644594

[ atomtypes ]
;name           bonded.type        at.num        mass        charge   ptype           sigma         epsilon
 n0bf                                   7      0.0000       0.00000       A     3.19541e-01     9.03422e-01
 c1bf                                   6      0.0000       0.00000       A     3.39981e-01     4.51019e-01
 c2bf                                   6      0.0000       0.00000       A     3.39728e-01     4.52409e-01
 c3bf                                   6      0.0000       0.00000       A     3.39953e-01     4.42911e-01
 c4bf                                   6      0.0000       0.00000       A     3.39728e-01     4.52409e-01
 c5bf                                   6      0.0000       0.00000       A     3.39981e-01     4.51019e-01
 c6bf                                   6      0.0000       0.00000       A     3.31563e-01     4.13034e-01
 c7bf                                   6      0.0000       0.00000       A     3.31533e-01     4.14582e-01
 c8bf                                   6      0.0000       0.00000       A     3.31436e-01     4.12038e-01
 c9bf                                   6      0.0000       0.00000       A     3.31556e-01     4.12038e-01
 c10bf                                  6      0.0000       0.00000       A     3.31365e-01     4.13106e-01
 c11bf                                  6      0.0000       0.00000       A     3.31614e-01     4.13005e-01
 c12bf                                  6      0.0000       0.00000       A     3.31566e-01     4.14935e-01
 c13bf                                  6      0.0000       0.00000       A     3.31581e-01     4.14068e-01
 n14bf                                  7      0.0000       0.00000       A     3.38456e-01     3.95404e-01
 c15bf                                  6      0.0000       0.00000       A     3.31292e-01     4.15982e-01
 n16bf                                  7      0.0000       0.00000       A     3.38322e-01     3.92331e-01
 c17bf                                  6      0.0000       0.00000       A     3.31038e-01     4.12137e-01
 cl18bf                                17      0.0000       0.00000       A     3.46741e-01     1.10456e+00
 cl19bf                                17      0.0000       0.00000       A     3.46947e-01     1.10869e+00
 n20bf                                  7      0.0000       0.00000       A     3.36694e-01     4.67773e-01
 c21bf                                  6      0.0000       0.00000       A     3.39520e-01     4.49397e-01
 n22bf                                  7      0.0000       0.00000       A     2.76368e-01     4.74797e+00
 h23bf                                  1      0.0000       0.00000       A     2.42224e-01     8.69267e-02
 h24bf                                  1      0.0000       0.00000       A     2.42224e-01     8.69267e-02
 h25bf                                  1      0.0000       0.00000       A     2.59993e-01     8.73289e-02
 h26bf                                  1      0.0000       0.00000       A     2.59993e-01     8.73289e-02
 h27bf                                  1      0.0000       0.00000       A     2.59993e-01     8.73289e-02
 h28bf                                  1      0.0000       0.00000       A     2.59993e-01     8.73289e-02
 h29bf                                  1      0.0000       0.00000       A     2.42224e-01     8.69267e-02
 h30bf                                  1      0.0000       0.00000       A     2.42224e-01     8.69267e-02
 h31bf                                  1      0.0000       0.00000       A     2.62567e-01     6.72871e-02
 o32bf                                  8      0.0000       0.00000       A     3.15921e-01     3.03496e-01
 h33bf                                  1      0.0000       0.00000       A     2.62479e-01     6.73110e-02
 h34bf                                  1      0.0000       0.00000       A     1.10420e-01     4.16782e-02
 h35bf                                  1      0.0000       0.00000       A     1.10420e-01     4.16782e-02
 c36bf                                  6      0.0000       0.00000       A     3.39778e-01     4.49916e-01
 h37bf                                  1      0.0000       0.00000       A     2.42080e-01     8.75859e-02
 h38bf                                  1      0.0000       0.00000       A     2.42080e-01     8.75859e-02
 h39bf                                  1      0.0000       0.00000       A     2.42080e-01     8.75859e-02
 h40bf                                  1      0.0000       0.00000       A     2.59831e-01     8.81397e-02
 h41bf                                  1      0.0000       0.00000       A     2.59831e-01     8.81397e-02
 h42bf                                  1      0.0000       0.00000       A     2.59831e-01     8.81397e-02
 h43bf                                  1      0.0000       0.00000       A     1.10628e-01     4.12153e-02
 h44bf                                  1      0.0000       0.00000       A     1.10628e-01     4.12153e-02
 h45bf                                  1      0.0000       0.00000       A     1.10628e-01     4.12153e-02
 h46bf                                  1      0.0000       0.00000       A     2.53390e-01     6.73749e-02

[ moleculetype ]
;name             nrexcl
 Example_5             3

[ atoms ]
;       nr            type      resi   res      atom      cgnr      charge          mass ; qtot
         1            n0bf         1   UNL        n0         1    -0.75137       14.0070 ; qtot   -0.751
         2            c1bf         1   UNL        c1         2     0.21685       12.0110 ; qtot   -0.535
         3            c2bf         1   UNL        c2         3    -0.11988       12.0110 ; qtot   -0.654
         4            c3bf         1   UNL        c3         4     0.17348       12.0110 ; qtot   -0.481
         5            c4bf         1   UNL        c4         5    -0.11988       12.0110 ; qtot   -0.601
         6            c5bf         1   UNL        c5         6     0.21685       12.0110 ; qtot   -0.384
         7            c6bf         1   UNL        c6         7     0.03666       12.0110 ; qtot   -0.347
         8            c7bf         1   UNL        c7         8     0.10684       12.0110 ; qtot   -0.240
         9            c8bf         1   UNL        c8         9     0.16714       12.0110 ; qtot   -0.073
        10            c9bf         1   UNL        c9        10    -0.15580       12.0110 ; qtot   -0.229
        11           c10bf         1   UNL       c10        11     0.14952       12.0110 ; qtot   -0.080
        12           c11bf         1   UNL       c11        12    -0.15344       12.0110 ; qtot   -0.233
        13           c12bf         1   UNL       c12        13    -0.25026       12.0110 ; qtot   -0.483
        14           c13bf         1   UNL       c13        14     0.18429       12.0110 ; qtot   -0.299
        15           n14bf         1   UNL       n14        15    -0.26852       14.0070 ; qtot   -0.568
        16           c15bf         1   UNL       c15        16     0.40661       12.0110 ; qtot   -0.161
        17           n16bf         1   UNL       n16        17    -0.32837       14.0070 ; qtot   -0.489
        18           c17bf         1   UNL       c17        18     0.39416       12.0110 ; qtot   -0.095
        19          cl18bf         1   UNL      cl18        19    -0.18336       35.4530 ; qtot   -0.278
        20          cl19bf         1   UNL      cl19        20    -0.17367       35.4530 ; qtot   -0.452
        21           n20bf         1   UNL       n20        21    -1.01070       14.0070 ; qtot   -1.463
        22           c21bf         1   UNL       c21        22    -0.12370       12.0110 ; qtot   -1.587
        23           n22bf         1   UNL       n22        23    -0.99988       14.0070 ; qtot   -2.586
        24           h23bf         1   UNL       h23        24     0.07656        1.0080 ; qtot   -2.510
        25           h24bf         1   UNL       h24        25     0.07656        1.0080 ; qtot   -2.433
        26           h25bf         1   UNL       h25        26     0.08264        1.0080 ; qtot   -2.351
        27           h26bf         1   UNL       h26        27     0.08264        1.0080 ; qtot   -2.268
        28           h27bf         1   UNL       h27        28     0.08264        1.0080 ; qtot   -2.185
        29           h28bf         1   UNL       h28        29     0.08264        1.0080 ; qtot   -2.103
        30           h29bf         1   UNL       h29        30     0.07656        1.0080 ; qtot   -2.026
        31           h30bf         1   UNL       h30        31     0.07656        1.0080 ; qtot   -1.950
        32           h31bf         1   UNL       h31        32     0.14343        1.0080 ; qtot   -1.806
        33           o32bf         1   UNL       o32        33    -0.34008       15.9990 ; qtot   -2.146
        34           h33bf         1   UNL       h33        34     0.13325        1.0080 ; qtot   -2.013
        35           h34bf         1   UNL       h34        35     0.46340        1.0080 ; qtot   -1.550
        36           h35bf         1   UNL       h35        36     0.46340        1.0080 ; qtot   -1.086
        37           c36bf         1   UNL       c36        37     0.14414       12.0110 ; qtot   -0.942
        38           h37bf         1   UNL       h37        38     0.04277        1.0080 ; qtot   -0.899
        39           h38bf         1   UNL       h38        39     0.04277        1.0080 ; qtot   -0.857
        40           h39bf         1   UNL       h39        40     0.04277        1.0080 ; qtot   -0.814
        41           h40bf         1   UNL       h40        41     0.07436        1.0080 ; qtot   -0.739
        42           h41bf         1   UNL       h41        42     0.07436        1.0080 ; qtot   -0.665
        43           h42bf         1   UNL       h42        43     0.07436        1.0080 ; qtot   -0.591
        44           h43bf         1   UNL       h43        44     0.52124        1.0080 ; qtot   -0.069
        45           h44bf         1   UNL       h44        45     0.52124        1.0080 ; qtot    0.452
        46           h45bf         1   UNL       h45        46     0.52124        1.0080 ; qtot    0.973
        47           h46bf         1   UNL       h46        47     0.02698        1.0080 ; qtot    1.000

[ bonds ]
;       ai        aj funct               r               k
         1         2     1        0.146246   192923.438135
         1         6     1        0.146246   192923.438135
         1        16     1        0.136908   307878.276318
         2         3     1        0.153923   173079.010107
         2        24     1        0.109265   301353.161816
         2        25     1        0.109265   301353.161816
         3         4     1        0.153932   169886.973584
         3        26     1        0.109403   300377.210107
         3        27     1        0.109403   300377.210107
         4         5     1        0.153932   169886.973584
         4        22     1        0.152862   185224.395483
         4        23     1        0.155311    81285.066040
         5         6     1        0.153923   173079.010107
         5        28     1        0.109403   300377.210107
         5        29     1        0.109403   300377.210107
         6        30     1        0.109265   301353.161816
         6        31     1        0.109265   301353.161816
         7         8     1        0.140970   256586.506934
         7        12     1        0.140264   290653.138525
         7        13     1        0.148323   217099.930322
         8         9     1        0.140223   280650.074023
         8        20     1        0.174931   154203.830298
         9        10     1        0.139626   303463.548535
         9        19     1        0.175089   152916.632300
        10        11     1        0.140154   288134.260205
        10        32     1        0.108280   328362.766455
        11        12     1        0.140055   290400.525439
        11        33     1        0.136349   277587.485107
        12        34     1        0.108362   324477.933691
        13        14     1        0.139289   306727.574170
        13        18     1        0.142038   241934.667041
        14        15     1        0.133610   349191.777734
        14        47     1        0.108882   311726.642090
        15        16     1        0.135484   249332.205811
        16        17     1        0.135066   265212.457275
        17        18     1        0.133687   322432.360156
        18        21     1        0.137825   310604.567041
        21        35     1        0.101260   420823.931348
        21        36     1        0.101260   420823.931348
        22        41     1        0.109334   304479.006152
        22        42     1        0.109334   304479.006152
        22        43     1        0.109334   304479.006152
        23        44     1        0.102770   380670.861719
        23        45     1        0.102770   380670.861719
        23        46     1        0.102770   380670.861719
        33        37     1        0.142645   206462.243115
        37        38     1        0.109438   297412.683691
        37        39     1        0.109438   297412.683691
        37        40     1        0.109438   297412.683691

[ angles ]
;       ai        aj        ak funct           theta             cth
         1         2         3     1      110.240318      646.989497
         1         2        24     1      109.403671      442.030828
         1         2        25     1      109.403671      442.030828
         1         6         5     1      110.240318      646.989497
         1         6        30     1      109.403671      442.030828
         1         6        31     1      109.403671      442.030828
         1        16        15     1      117.333397      574.995087
         1        16        17     1      116.716797      545.164296
         2         1         6     1      115.112442      471.956777
         2         1        16     1      120.421898      509.404490
         2         3         4     1      111.663742      622.862739
         2         3        26     1      109.250656      502.091811
         2         3        27     1      109.250656      502.091811
         3         2        24     1      110.129150      483.732960
         3         2        25     1      110.129150      483.732960
         3         4         5     1      110.569092      534.807019
         3         4        22     1      112.592728      599.387623
         3         4        23     1      106.634377      675.767776
         4         3        26     1      109.625450      487.418539
         4         3        27     1      109.625450      487.418539
         4         5         6     1      111.663742      622.862739
         4         5        28     1      109.625450      487.418539
         4         5        29     1      109.625450      487.418539
         4        22        41     1      111.123024      496.118936
         4        22        42     1      111.123024      496.118936
         4        22        43     1      111.123024      496.118936
         4        23        44     1      111.194313      445.707438
         4        23        45     1      111.194313      445.707438
         4        23        46     1      111.194313      445.707438
         5         4        22     1      112.592728      599.387623
         5         4        23     1      106.634377      675.767776
         5         6        30     1      110.129150      483.732960
         5         6        31     1      110.129150      483.732960
         6         1        16     1      120.421898      509.404490
         6         5        28     1      109.250656      502.091811
         6         5        29     1      109.250656      502.091811
         7         8         9     1      119.560326      572.230823
         7         8        20     1      120.197365      330.027460
         7        12        11     1      121.230789      739.755792
         7        12        34     1      118.749634      412.106443
         7        13        14     1      122.096397      519.303088
         7        13        18     1      122.783859      462.581689
         8         7        12     1      118.781593      570.088770
         8         7        13     1      122.242882      415.873039
         8         9        10     1      121.110901      566.965198
         8         9        19     1      121.232079      355.075311
         9         8        20     1      120.290527      373.679989
         9        10        11     1      119.496719      719.454748
         9        10        32     1      119.587708      409.062452
        10         9        19     1      117.736801      347.476393
        10        11        12     1      119.762375      617.680301
        10        11        33     1      120.145813      559.057568
        11        10        32     1      121.064514      429.852436
        11        12        34     1      119.797379      433.764146
        11        33        37     1      118.061989      556.324332
        12         7        13     1      118.959427      416.000725
        12        11        33     1      119.276512      515.122472
        13        14        15     1      124.606461      717.070220
        13        14        47     1      119.358841      392.968040
        13        18        17     1      121.942154      684.600424
        13        18        21     1      121.775536      534.519375
        14        13        18     1      114.968323      841.260695
        14        15        16     1      115.867310      955.318746
        15        14        47     1      115.856796      381.859525
        15        16        17     1      125.249390      592.850442
        16        17        18     1      117.565331     1008.572302
        17        18        21     1      116.274452      628.266391
        18        21        35     1      115.648087      463.358496
        18        21        36     1      115.648087      463.358496
        22         4        23     1      106.513611      724.561723
        24         2        25     1      107.396446      347.046795
        26         3        27     1      106.859085      356.478288
        28         5        29     1      106.859085      356.478288
        30         6        31     1      107.396446      347.046795
        33        37        38     1      109.453285      448.701408
        33        37        39     1      109.453285      448.701408
        33        37        40     1      109.453285      448.701408
        35        21        36     1      115.463928      336.780238
        38        37        39     1      109.477646      342.882139
        38        37        40     1      109.477646      342.882139
        39        37        40     1      109.477646      342.882139
        41        22        42     1      107.934082      360.937929
        41        22        43     1      107.934082      360.937929
        42        22        43     1      107.934082      360.937929
        44        23        45     1      107.909775      400.797366
        44        23        46     1      107.909775      400.797366
        45        23        46     1      107.909775      400.797366

[ dihedrals ] ; propers for gromacs 4.5 or higher, use funct 9
;       ai        aj        ak        al funct           phase               k        pn
         1         2         3         4     9        0.000000        3.296777         1
         1         2         3         4     9      180.000000       -2.013946         2
         1         2         3         4     9        0.000000        0.298540         3
         1         2         3         4     9      180.000000       -0.014361         4
         1         2         3        26     9        0.000000        0.019258         1
         1         2         3        26     9      180.000000       -0.030477         2
         1         2         3        26     9        0.000000        0.340665         3
         1         2         3        26     9      180.000000       -0.004655         4
         1         2         3        27     9        0.000000        0.019258         1
         1         2         3        27     9      180.000000       -0.030477         2
         1         2         3        27     9        0.000000        0.340665         3
         1         2         3        27     9      180.000000       -0.004655         4
         1         6         5         4     9        0.000000        3.296777         1
         1         6         5         4     9      180.000000       -2.013946         2
         1         6         5         4     9        0.000000        0.298540         3
         1         6         5         4     9      180.000000       -0.014361         4
         1         6         5        28     9        0.000000        0.019258         1
         1         6         5        28     9      180.000000       -0.030477         2
         1         6         5        28     9        0.000000        0.340665         3
         1         6         5        28     9      180.000000       -0.004655         4
         1         6         5        29     9        0.000000        0.019258         1
         1         6         5        29     9      180.000000       -0.030477         2
         1         6         5        29     9        0.000000        0.340665         3
         1         6         5        29     9      180.000000       -0.004655         4
         1        16        15        14     9        0.000000        1.400946         1
         1        16        15        14     9      180.000000       15.450414         2
         1        16        15        14     9        0.000000        0.725944         3
         1        16        15        14     9      180.000000       -0.993260         4
         1        16        17        18     9        0.000000        2.061220         1
         1        16        17        18     9      180.000000       15.656559         2
         1        16        17        18     9        0.000000        0.558076         3
         1        16        17        18     9      180.000000       -1.096796         4
         2         1         6         5     9        0.000000        0.300444         1
         2         1         6         5     9      180.000000        0.270933         2
         2         1         6         5     9        0.000000        0.598156         3
         2         1         6         5     9      180.000000        0.070810         4
         2         1         6        30     9        0.000000        0.150085         1
         2         1         6        30     9      180.000000        0.094374         2
         2         1         6        30     9        0.000000        0.804044         3
         2         1         6        30     9      180.000000        0.048195         4
         2         1         6        31     9        0.000000        0.150085         1
         2         1         6        31     9      180.000000        0.094374         2
         2         1         6        31     9        0.000000        0.804044         3
         2         1         6        31     9      180.000000        0.048195         4
         2         1        16        15     9        0.000000        0.688932         1
         2         1        16        15     9      180.000000       10.388331         2
         2         1        16        15     9        0.000000       -0.280025         3
         2         1        16        15     9      180.000000       -0.969867         4
         2         1        16        17     9        0.000000        0.730827         1
         2         1        16        17     9      180.000000       10.074815         2
         2         1        16        17     9        0.000000       -0.387082         3
         2         1        16        17     9      180.000000       -0.872987         4
         2         3         4         5     9        0.000000        3.255796         1
         2         3         4         5     9      180.000000       -1.795673         2
         2         3         4         5     9        0.000000        0.110659         3
         2         3         4         5     9      180.000000        0.043987         4
         2         3         4        22     9        0.000000       -2.296703         1
         2         3         4        22     9      180.000000        1.047034         2
         2         3         4        22     9        0.000000        0.258553         3
         2         3         4        22     9      180.000000        0.066530         4
         2         3         4        23     9        0.000000        3.430268         1
         2         3         4        23     9      180.000000       -1.258127         2
         2         3         4        23     9        0.000000        0.439759         3
         2         3         4        23     9      180.000000        0.400164         4
         3         2         1         6     9        0.000000        0.300444         1
         3         2         1         6     9      180.000000        0.270933         2
         3         2         1         6     9        0.000000        0.598156         3
         3         2         1         6     9      180.000000        0.070810         4
         3         2         1        16     9        0.000000       -2.365682         1
         3         2         1        16     9      180.000000        0.518434         2
         3         2         1        16     9        0.000000        0.556827         3
         3         2         1        16     9      180.000000       -0.043300         4
         3         4         5         6     9        0.000000        3.255796         1
         3         4         5         6     9      180.000000       -1.795673         2
         3         4         5         6     9        0.000000        0.110659         3
         3         4         5         6     9      180.000000        0.043987         4
         3         4         5        28     9        0.000000        0.011339         1
         3         4         5        28     9      180.000000        0.105244         2
         3         4         5        28     9        0.000000        0.350568         3
         3         4         5        28     9      180.000000       -0.010935         4
         3         4         5        29     9        0.000000        0.011339         1
         3         4         5        29     9      180.000000        0.105244         2
         3         4         5        29     9        0.000000        0.350568         3
         3         4         5        29     9      180.000000       -0.010935         4
         3         4        22        41     9        0.000000       -0.001812         1
         3         4        22        41     9      180.000000        0.018931         2
         3         4        22        41     9        0.000000        0.497753         3
         3         4        22        41     9      180.000000        0.012723         4
         3         4        22        42     9        0.000000       -0.001812         1
         3         4        22        42     9      180.000000        0.018931         2
         3         4        22        42     9        0.000000        0.497753         3
         3         4        22        42     9      180.000000        0.012723         4
         3         4        22        43     9        0.000000       -0.001812         1
         3         4        22        43     9      180.000000        0.018931         2
         3         4        22        43     9        0.000000        0.497753         3
         3         4        22        43     9      180.000000        0.012723         4
         3         4        23        44     9        0.000000        0.050460         1
         3         4        23        44     9      180.000000        0.143577         2
         3         4        23        44     9        0.000000        0.557225         3
         3         4        23        44     9      180.000000        0.022166         4
         3         4        23        45     9        0.000000        0.050460         1
         3         4        23        45     9      180.000000        0.143577         2
         3         4        23        45     9        0.000000        0.557225         3
         3         4        23        45     9      180.000000        0.022166         4
         3         4        23        46     9        0.000000        0.050460         1
         3         4        23        46     9      180.000000        0.143577         2
         3         4        23        46     9        0.000000        0.557225         3
         3         4        23        46     9      180.000000        0.022166         4
         4         3         2        24     9        0.000000       -0.131603         1
         4         3         2        24     9      180.000000        0.011745         2
         4         3         2        24     9        0.000000        0.327792         3
         4         3         2        24     9      180.000000        0.003114         4
         4         3         2        25     9        0.000000       -0.131602         1
         4         3         2        25     9      180.000000        0.011745         2
         4         3         2        25     9        0.000000        0.327792         3
         4         3         2        25     9      180.000000        0.003114         4
         4         5         6        30     9        0.000000       -0.131602         1
         4         5         6        30     9      180.000000        0.011745         2
         4         5         6        30     9        0.000000        0.327792         3
         4         5         6        30     9      180.000000        0.003114         4
         4         5         6        31     9        0.000000       -0.131602         1
         4         5         6        31     9      180.000000        0.011745         2
         4         5         6        31     9        0.000000        0.327792         3
         4         5         6        31     9      180.000000        0.003114         4
         5         4         3        26     9        0.000000        0.011339         1
         5         4         3        26     9      180.000000        0.105244         2
         5         4         3        26     9        0.000000        0.350568         3
         5         4         3        26     9      180.000000       -0.010935         4
         5         4         3        27     9        0.000000        0.011339         1
         5         4         3        27     9      180.000000        0.105244         2
         5         4         3        27     9        0.000000        0.350568         3
         5         4         3        27     9      180.000000       -0.010935         4
         5         4        22        41     9        0.000000       -0.001812         1
         5         4        22        41     9      180.000000        0.018931         2
         5         4        22        41     9        0.000000        0.497753         3
         5         4        22        41     9      180.000000        0.012723         4
         5         4        22        42     9        0.000000       -0.001812         1
         5         4        22        42     9      180.000000        0.018931         2
         5         4        22        42     9        0.000000        0.497753         3
         5         4        22        42     9      180.000000        0.012723         4
         5         4        22        43     9        0.000000       -0.001812         1
         5         4        22        43     9      180.000000        0.018931         2
         5         4        22        43     9        0.000000        0.497753         3
         5         4        22        43     9      180.000000        0.012723         4
         5         4        23        44     9        0.000000        0.050460         1
         5         4        23        44     9      180.000000        0.143577         2
         5         4        23        44     9        0.000000        0.557225         3
         5         4        23        44     9      180.000000        0.022166         4
         5         4        23        45     9        0.000000        0.050460         1
         5         4        23        45     9      180.000000        0.143577         2
         5         4        23        45     9        0.000000        0.557225         3
         5         4        23        45     9      180.000000        0.022166         4
         5         4        23        46     9        0.000000        0.050460         1
         5         4        23        46     9      180.000000        0.143577         2
         5         4        23        46     9        0.000000        0.557225         3
         5         4        23        46     9      180.000000        0.022166         4
         5         6         1        16     9        0.000000       -2.365682         1
         5         6         1        16     9      180.000000        0.518434         2
         5         6         1        16     9        0.000000        0.556827         3
         5         6         1        16     9      180.000000       -0.043300         4
         6         1         2        24     9        0.000000        0.150084         1
         6         1         2        24     9      180.000000        0.094373         2
         6         1         2        24     9        0.000000        0.804045         3
         6         1         2        24     9      180.000000        0.048195         4
         6         1         2        25     9        0.000000        0.150085         1
         6         1         2        25     9      180.000000        0.094374         2
         6         1         2        25     9        0.000000        0.804044         3
         6         1         2        25     9      180.000000        0.048195         4
         6         1        16        15     9        0.000000        0.688932         1
         6         1        16        15     9      180.000000       10.388331         2
         6         1        16        15     9        0.000000       -0.280025         3
         6         1        16        15     9      180.000000       -0.969867         4
         6         1        16        17     9        0.000000        0.730827         1
         6         1        16        17     9      180.000000       10.074815         2
         6         1        16        17     9        0.000000       -0.387082         3
         6         1        16        17     9      180.000000       -0.872987         4
         6         5         4        22     9        0.000000       -2.296703         1
         6         5         4        22     9      180.000000        1.047034         2
         6         5         4        22     9        0.000000        0.258553         3
         6         5         4        22     9      180.000000        0.066530         4
         6         5         4        23     9        0.000000        3.430268         1
         6         5         4        23     9      180.000000       -1.258127         2
         6         5         4        23     9        0.000000        0.439759         3
         6         5         4        23     9      180.000000        0.400164         4
         7         8         9        10     9        0.000000       -0.065834         1
         7         8         9        10     9      180.000000       16.688783         2
         7         8         9        10     9        0.000000       -0.999570         3
         7         8         9        10     9      180.000000       -0.431597         4
         7         8         9        19     9        0.000000        0.281315         1
         7         8         9        19     9      180.000000       16.341486         2
         7         8         9        19     9        0.000000        0.046778         3
         7         8         9        19     9      180.000000       -0.512459         4
         7        12        11        10     9        0.000000       -0.024116         1
         7        12        11        10     9      180.000000       15.566429         2
         7        12        11        10     9        0.000000       -0.898768         3
         7        12        11        10     9      180.000000       -0.222065         4
         7        12        11        33     9        0.000000        0.424199         1
         7        12        11        33     9      180.000000       16.256363         2
         7        12        11        33     9        0.000000        0.329769         3
         7        12        11        33     9      180.000000       -0.269749         4
         7        13        14        15     9        0.000000        0.108932         1
         7        13        14        15     9      180.000000       16.351880         2
         7        13        14        15     9        0.000000        0.215301         3
         7        13        14        15     9      180.000000       -0.568903         4
         7        13        14        47     9        0.000000        0.131154         1
         7        13        14        47     9      180.000000       13.472602         2
         7        13        14        47     9        0.000000        0.020119         3
         7        13        14        47     9      180.000000        0.030004         4
         7        13        18        17     9        0.000000       -0.206004         1
         7        13        18        17     9      180.000000       11.215856         2
         7        13        18        17     9        0.000000       -0.150010         3
         7        13        18        17     9      180.000000       -0.349651         4
         7        13        18        21     9        0.000000       -0.240826         1
         7        13        18        21     9      180.000000       14.428879         2
         7        13        18        21     9        0.000000       -0.155087         3
         7        13        18        21     9      180.000000       -0.609015         4
         8         7        12        11     9        0.000000       -0.286365         1
         8         7        12        11     9      180.000000       18.441474         2
         8         7        12        11     9        0.000000       -1.786722         3
         8         7        12        11     9      180.000000       -0.426408         4
         8         7        12        34     9        0.000000        0.131860         1
         8         7        12        34     9      180.000000       14.154869         2
         8         7        12        34     9        0.000000       -0.477008         3
         8         7        12        34     9      180.000000        0.146329         4
         8         7        13        14     9        0.000000        0.728066         1
         8         7        13        14     9      180.000000        1.300518         2
         8         7        13        14     9        0.000000       -0.177587         3
         8         7        13        14     9      180.000000        0.010562         4
         8         7        13        18     9        0.000000        2.728032         1
         8         7        13        18     9      180.000000       -0.745426         2
         8         7        13        18     9        0.000000        0.946899         3
         8         7        13        18     9      180.000000       -0.072980         4
         8         9        10        11     9        0.000000       -0.132308         1
         8         9        10        11     9      180.000000       17.776248         2
         8         9        10        11     9        0.000000       -1.448905         3
         8         9        10        11     9      180.000000       -0.510263         4
         8         9        10        32     9        0.000000        0.221913         1
         8         9        10        32     9      180.000000       13.069336         2
         8         9        10        32     9        0.000000       -0.445888         3
         8         9        10        32     9      180.000000        0.079064         4
         9         8         7        12     9        0.000000       -0.205907         1
         9         8         7        12     9      180.000000       16.657234         2
         9         8         7        12     9        0.000000       -1.285101         3
         9         8         7        12     9      180.000000       -0.359686         4
         9         8         7        13     9        0.000000        0.315249         1
         9         8         7        13     9      180.000000       13.911231         2
         9         8         7        13     9        0.000000       -0.279817         3
         9         8         7        13     9      180.000000       -0.329961         4
         9        10        11        12     9        0.000000       -0.134720         1
         9        10        11        12     9      180.000000       15.542888         2
         9        10        11        12     9        0.000000       -0.909837         3
         9        10        11        12     9      180.000000       -0.220251         4
         9        10        11        33     9        0.000000        0.457777         1
         9        10        11        33     9      180.000000       16.788174         2
         9        10        11        33     9        0.000000        0.416419         3
         9        10        11        33     9      180.000000       -0.345082         4
        10         9         8        20     9        0.000000        0.052785         1
        10         9         8        20     9      180.000000       16.983315         2
        10         9         8        20     9        0.000000       -0.067312         3
        10         9         8        20     9      180.000000       -0.453354         4
        10        11        12        34     9        0.000000        0.162768         1
        10        11        12        34     9      180.000000       12.127440         2
        10        11        12        34     9        0.000000       -0.463818         3
        10        11        12        34     9      180.000000        0.208460         4
        10        11        33        37     9        0.000000       -0.091626         1
        10        11        33        37     9      180.000000        5.621919         2
        10        11        33        37     9        0.000000       -0.149366         3
        10        11        33        37     9      180.000000        0.654153         4
        11        10         9        19     9        0.000000        0.438260         1
        11        10         9        19     9      180.000000       19.446016         2
        11        10         9        19     9        0.000000        0.349742         3
        11        10         9        19     9      180.000000       -0.692336         4
        11        12         7        13     9        0.000000        0.242698         1
        11        12         7        13     9      180.000000       16.636033         2
        11        12         7        13     9        0.000000       -0.228699         3
        11        12         7        13     9      180.000000       -0.321562         4
        11        33        37        38     9        0.000000       -0.095661         1
        11        33        37        38     9      180.000000        0.029901         2
        11        33        37        38     9        0.000000        0.657230         3
        11        33        37        38     9      180.000000       -0.019323         4
        11        33        37        39     9        0.000000       -0.095661         1
        11        33        37        39     9      180.000000        0.029901         2
        11        33        37        39     9        0.000000        0.657230         3
        11        33        37        39     9      180.000000       -0.019323         4
        11        33        37        40     9        0.000000       -0.095661         1
        11        33        37        40     9      180.000000        0.029901         2
        11        33        37        40     9        0.000000        0.657230         3
        11        33        37        40     9      180.000000       -0.019323         4
        12         7         8        20     9        0.000000        0.221221         1
        12         7         8        20     9      180.000000       16.876470         2
        12         7         8        20     9        0.000000        0.194694         3
        12         7         8        20     9      180.000000       -0.523125         4
        12         7        13        14     9        0.000000       -0.459374         1
        12         7        13        14     9      180.000000        2.912263         2
        12         7        13        14     9        0.000000        0.220277         3
        12         7        13        14     9      180.000000       -0.005125         4
        12         7        13        18     9        0.000000       -0.503361         1
        12         7        13        18     9      180.000000        1.757034         2
        12         7        13        18     9        0.000000       -0.433270         3
        12         7        13        18     9      180.000000        0.294611         4
        12        11        10        32     9        0.000000        0.077830         1
        12        11        10        32     9      180.000000       12.235133         2
        12        11        10        32     9        0.000000       -0.512864         3
        12        11        10        32     9      180.000000        0.170364         4
        12        11        33        37     9        0.000000       -0.471594         1
        12        11        33        37     9      180.000000        5.804866         2
        12        11        33        37     9        0.000000       -0.187727         3
        12        11        33        37     9      180.000000        0.657625         4
        13         7         8        20     9        0.000000        0.022523         1
        13         7         8        20     9      180.000000       15.161318         2
        13         7         8        20     9        0.000000        0.193559         3
        13         7         8        20     9      180.000000       -0.514864         4
        13         7        12        34     9        0.000000       -0.053277         1
        13         7        12        34     9      180.000000       13.749916         2
        13         7        12        34     9        0.000000       -0.368439         3
        13         7        12        34     9      180.000000        0.204388         4
        13        14        15        16     9        0.000000       -0.318256         1
        13        14        15        16     9      180.000000       19.382067         2
        13        14        15        16     9        0.000000       -1.262039         3
        13        14        15        16     9      180.000000       -0.316931         4
        13        18        17        16     9        0.000000       -0.151470         1
        13        18        17        16     9      180.000000       18.848073         2
        13        18        17        16     9        0.000000       -0.619454         3
        13        18        17        16     9      180.000000       -0.440033         4
        13        18        21        35     9        0.000000        2.878458         1
        13        18        21        35     9      180.000000        7.015340         2
        13        18        21        35     9        0.000000        0.668893         3
        13        18        21        35     9      180.000000        0.218964         4
        13        18        21        36     9        0.000000        2.878458         1
        13        18        21        36     9      180.000000        7.015340         2
        13        18        21        36     9        0.000000        0.668893         3
        13        18        21        36     9      180.000000        0.218964         4
        14        13        18        17     9        0.000000       -0.133634         1
        14        13        18        17     9      180.000000       11.082673         2
        14        13        18        17     9        0.000000        0.236241         3
        14        13        18        17     9      180.000000       -0.495622         4
        14        13        18        21     9        0.000000        0.146997         1
        14        13        18        21     9      180.000000       14.599751         2
        14        13        18        21     9        0.000000        0.208435         3
        14        13        18        21     9      180.000000       -0.713619         4
        14        15        16        17     9        0.000000        0.776539         1
        14        15        16        17     9      180.000000        9.958043         2
        14        15        16        17     9        0.000000        0.771410         3
        14        15        16        17     9      180.000000       -0.677275         4
        15        14        13        18     9        0.000000       -0.136775         1
        15        14        13        18     9      180.000000       17.347315         2
        15        14        13        18     9        0.000000       -0.734627         3
        15        14        13        18     9      180.000000       -0.584845         4
        15        16        17        18     9        0.000000        0.977620         1
        15        16        17        18     9      180.000000        9.279800         2
        15        16        17        18     9        0.000000        0.477097         3
        15        16        17        18     9      180.000000       -0.298118         4
        16         1         2        24     9        0.000000        0.032032         1
        16         1         2        24     9      180.000000       -0.145874         2
        16         1         2        24     9        0.000000        0.433013         3
        16         1         2        24     9      180.000000        0.030306         4
        16         1         2        25     9        0.000000        0.032030         1
        16         1         2        25     9      180.000000       -0.145875         2
        16         1         2        25     9        0.000000        0.433013         3
        16         1         2        25     9      180.000000        0.030306         4
        16         1         6        30     9        0.000000        0.032030         1
        16         1         6        30     9      180.000000       -0.145875         2
        16         1         6        30     9        0.000000        0.433013         3
        16         1         6        30     9      180.000000        0.030306         4
        16         1         6        31     9        0.000000        0.032030         1
        16         1         6        31     9      180.000000       -0.145875         2
        16         1         6        31     9        0.000000        0.433013         3
        16         1         6        31     9      180.000000        0.030306         4
        16        15        14        47     9        0.000000        0.262858         1
        16        15        14        47     9      180.000000       17.937158         2
        16        15        14        47     9        0.000000       -0.097301         3
        16        15        14        47     9      180.000000       -0.196738         4
        16        17        18        21     9        0.000000       -0.393823         1
        16        17        18        21     9      180.000000       23.357948         2
        16        17        18        21     9        0.000000        0.081141         3
        16        17        18        21     9      180.000000       -0.889915         4
        17        18        21        35     9        0.000000        2.747967         1
        17        18        21        35     9      180.000000        9.878378         2
        17        18        21        35     9        0.000000       -0.355740         3
        17        18        21        35     9      180.000000        0.183635         4
        17        18        21        36     9        0.000000        2.747967         1
        17        18        21        36     9      180.000000        9.878378         2
        17        18        21        36     9        0.000000       -0.355740         3
        17        18        21        36     9      180.000000        0.183635         4
        18        13        14        47     9        0.000000        0.299319         1
        18        13        14        47     9      180.000000       14.630668         2
        18        13        14        47     9        0.000000       -0.655936         3
        18        13        14        47     9      180.000000        0.020204         4
        19         9         8        20     9        0.000000       -0.160687         1
        19         9         8        20     9      180.000000       18.458348         2
        19         9         8        20     9        0.000000        0.290630         3
        19         9         8        20     9      180.000000       -0.909087         4
        19         9        10        32     9        0.000000        0.201357         1
        19         9        10        32     9      180.000000       13.781274         2
        19         9        10        32     9        0.000000       -0.120488         3
        19         9        10        32     9      180.000000        0.175326         4
        22         4         3        26     9        0.000000        0.057706         1
        22         4         3        26     9      180.000000        0.007077         2
        22         4         3        26     9        0.000000        0.458867         3
        22         4         3        26     9      180.000000        0.000801         4
        22         4         3        27     9        0.000000        0.057706         1
        22         4         3        27     9      180.000000        0.007077         2
        22         4         3        27     9        0.000000        0.458867         3
        22         4         3        27     9      180.000000        0.000801         4
        22         4         5        28     9        0.000000        0.057706         1
        22         4         5        28     9      180.000000        0.007077         2
        22         4         5        28     9        0.000000        0.458867         3
        22         4         5        28     9      180.000000        0.000801         4
        22         4         5        29     9        0.000000        0.057706         1
        22         4         5        29     9      180.000000        0.007077         2
        22         4         5        29     9        0.000000        0.458867         3
        22         4         5        29     9      180.000000        0.000801         4
        22         4        23        44     9        0.000000       -0.241237         1
        22         4        23        44     9      180.000000        0.219199         2
        22         4        23        44     9        0.000000        0.596224         3
        22         4        23        44     9      180.000000        0.018226         4
        22         4        23        45     9        0.000000       -0.241237         1
        22         4        23        45     9      180.000000        0.219199         2
        22         4        23        45     9        0.000000        0.596224         3
        22         4        23        45     9      180.000000        0.018226         4
        22         4        23        46     9        0.000000       -0.241237         1
        22         4        23        46     9      180.000000        0.219199         2
        22         4        23        46     9        0.000000        0.596224         3
        22         4        23        46     9      180.000000        0.018226         4
        23         4         3        26     9        0.000000       -0.210418         1
        23         4         3        26     9      180.000000        0.059164         2
        23         4         3        26     9        0.000000        0.534105         3
        23         4         3        26     9      180.000000       -0.079643         4
        23         4         3        27     9        0.000000       -0.210418         1
        23         4         3        27     9      180.000000        0.059164         2
        23         4         3        27     9        0.000000        0.534105         3
        23         4         3        27     9      180.000000       -0.079643         4
        23         4         5        28     9        0.000000       -0.210418         1
        23         4         5        28     9      180.000000        0.059164         2
        23         4         5        28     9        0.000000        0.534105         3
        23         4         5        28     9      180.000000       -0.079643         4
        23         4         5        29     9        0.000000       -0.210418         1
        23         4         5        29     9      180.000000        0.059164         2
        23         4         5        29     9        0.000000        0.534105         3
        23         4         5        29     9      180.000000       -0.079643         4
        23         4        22        41     9        0.000000       -0.256018         1
        23         4        22        41     9      180.000000       -0.145326         2
        23         4        22        41     9        0.000000        0.609264         3
        23         4        22        41     9      180.000000        0.002710         4
        23         4        22        42     9        0.000000       -0.256018         1
        23         4        22        42     9      180.000000       -0.145326         2
        23         4        22        42     9        0.000000        0.609264         3
        23         4        22        42     9      180.000000        0.002710         4
        23         4        22        43     9        0.000000       -0.256018         1
        23         4        22        43     9      180.000000       -0.145326         2
        23         4        22        43     9        0.000000        0.609264         3
        23         4        22        43     9      180.000000        0.002710         4
        24         2         3        26     9        0.000000        0.004305         1
        24         2         3        26     9      180.000000        0.029399         2
        24         2         3        26     9        0.000000        0.385600         3
        24         2         3        26     9      180.000000        0.001530         4
        24         2         3        27     9        0.000000        0.004305         1
        24         2         3        27     9      180.000000        0.029399         2
        24         2         3        27     9        0.000000        0.385600         3
        24         2         3        27     9      180.000000        0.001530         4
        25         2         3        26     9        0.000000        0.004303         1
        25         2         3        26     9      180.000000        0.029398         2
        25         2         3        26     9        0.000000        0.385600         3
        25         2         3        26     9      180.000000        0.001531         4
        25         2         3        27     9        0.000000        0.004303         1
        25         2         3        27     9      180.000000        0.029398         2
        25         2         3        27     9        0.000000        0.385600         3
        25         2         3        27     9      180.000000        0.001531         4
        28         5         6        30     9        0.000000        0.004303         1
        28         5         6        30     9      180.000000        0.029398         2
        28         5         6        30     9        0.000000        0.385600         3
        28         5         6        30     9      180.000000        0.001531         4
        28         5         6        31     9        0.000000        0.004303         1
        28         5         6        31     9      180.000000        0.029398         2
        28         5         6        31     9        0.000000        0.385600         3
        28         5         6        31     9      180.000000        0.001531         4
        29         5         6        30     9        0.000000        0.004303         1
        29         5         6        30     9      180.000000        0.029398         2
        29         5         6        30     9        0.000000        0.385600         3
        29         5         6        30     9      180.000000        0.001531         4
        29         5         6        31     9        0.000000        0.004303         1
        29         5         6        31     9      180.000000        0.029398         2
        29         5         6        31     9        0.000000        0.385600         3
        29         5         6        31     9      180.000000        0.001531         4
        32        10        11        33     9        0.000000        0.154453         1
        32        10        11        33     9      180.000000       12.620180         2
        32        10        11        33     9        0.000000       -0.128291         3
        32        10        11        33     9      180.000000        0.322312         4
        33        11        12        34     9        0.000000        0.084557         1
        33        11        12        34     9      180.000000       12.744945         2
        33        11        12        34     9        0.000000       -0.100930         3
        33        11        12        34     9      180.000000        0.274124         4

[ dihedrals ] ; impropers
;       ai        aj        ak        al funct           phase               k        pn
        11        10        12        33     4      180.000000        0.480513         2
        11        12        33        10     4      180.000000        0.480513         2
        11        33        10        12     4      180.000000        0.480513         2
        14        13        15        47     4      180.000000        8.849976         2
        14        15        47        13     4      180.000000        8.849976         2
        14        47        13        15     4      180.000000        8.849976         2
        16         1        15        17     4      180.000000       27.893333         2
        16        15        17         1     4      180.000000       27.893333         2
        16        17         1        15     4      180.000000       27.893333         2

[ pairs ]
;       ai        aj funct
         1         4     1
         1        14     1
         1        18     1
         1        26     1
         1        27     1
         1        28     1
         1        29     1
         2         5     1
         2        15     1
         2        17     1
         2        22     1
         2        23     1
         2        30     1
         2        31     1
         3         6     1
         3        16     1
         3        28     1
         3        29     1
         3        41     1
         3        42     1
         3        43     1
         3        44     1
         3        45     1
         3        46     1
         4        24     1
         4        25     1
         4        30     1
         4        31     1
         5        16     1
         5        26     1
         5        27     1
         5        41     1
         5        42     1
         5        43     1
         5        44     1
         5        45     1
         5        46     1
         6        15     1
         6        17     1
         6        22     1
         6        23     1
         6        24     1
         6        25     1
         7        10     1
         7        15     1
         7        17     1
         7        19     1
         7        21     1
         7        33     1
         7        47     1
         8        11     1
         8        14     1
         8        18     1
         8        32     1
         8        34     1
         9        12     1
         9        13     1
         9        33     1
        10        20     1
        10        34     1
        10        37     1
        11        13     1
        11        19     1
        11        38     1
        11        39     1
        11        40     1
        12        14     1
        12        18     1
        12        20     1
        12        32     1
        12        37     1
        13        16     1
        13        20     1
        13        34     1
        13        35     1
        13        36     1
        14        17     1
        14        21     1
        15        18     1
        16        21     1
        16        24     1
        16        25     1
        16        30     1
        16        31     1
        16        47     1
        17        35     1
        17        36     1
        18        47     1
        19        20     1
        19        32     1
        22        26     1
        22        27     1
        22        28     1
        22        29     1
        22        44     1
        22        45     1
        22        46     1
        23        26     1
        23        27     1
        23        28     1
        23        29     1
        23        41     1
        23        42     1
        23        43     1
        24        26     1
        24        27     1
        25        26     1
        25        27     1
        28        30     1
        28        31     1
        29        30     1
        29        31     1
        32        33     1
        33        34     1
