; ITP file created by ByteFF-ML, 2026-02-21 07:47:19.545122

[ atomtypes ]
;name           bonded.type        at.num        mass        charge   ptype           sigma         epsilon
 n0bf                                   7      0.0000       0.00000       A     3.19541e-01     9.03422e-01
 c1bf                                   6      0.0000       0.00000       A     3.39981e-01     4.51019e-01
 c2bf                                   6      0.0000       0.00000       A     3.39728e-01     4.52409e-01
 c3bf                                   6      0.0000       0.00000       A     3.39953e-01     4.42911e-01
 c4bf                                   6      0.0000       0.00000       A     3.39728e-01     4.52409e-01
 c5bf                                   6      0.0000       0.00000       A     3.39981e-01     4.51019e-01
 c6bf                                   6      0.0000       0.00000       A     3.31654e-01     4.13666e-01
 c7bf                                   6      0.0000       0.00000       A     3.31549e-01     4.12847e-01
 c8bf                                   6      0.0000       0.00000       A     3.31540e-01     4.12247e-01
 c9bf                                   6      0.0000       0.00000       A     3.31503e-01     4.12780e-01
 c10bf                                  6      0.0000       0.00000       A     3.31477e-01     4.13152e-01
 c11bf                                  6      0.0000       0.00000       A     3.31487e-01     4.12617e-01
 c12bf                                  6      0.0000       0.00000       A     3.31633e-01     4.14432e-01
 c13bf                                  6      0.0000       0.00000       A     3.31581e-01     4.14068e-01
 n14bf                                  7      0.0000       0.00000       A     3.38456e-01     3.95404e-01
 c15bf                                  6      0.0000       0.00000       A     3.31292e-01     4.15982e-01
 n16bf                                  7      0.0000       0.00000       A     3.38322e-01     3.92331e-01
 c17bf                                  6      0.0000       0.00000       A     3.31038e-01     4.12137e-01
 c18bf                                  6      0.0000       0.00000       A     3.39804e-01     4.50414e-01
 cl19bf                                17      0.0000       0.00000       A     3.46887e-01     1.11085e+00
 n20bf                                  7      0.0000       0.00000       A     3.36694e-01     4.67773e-01
 n21bf                                  7      0.0000       0.00000       A     2.76368e-01     4.74797e+00
 c22bf                                  6      0.0000       0.00000       A     3.39520e-01     4.49397e-01
 h23bf                                  1      0.0000       0.00000       A     2.42224e-01     8.69267e-02
 h24bf                                  1      0.0000       0.00000       A     2.42224e-01     8.69267e-02
 h25bf                                  1      0.0000       0.00000       A     2.59993e-01     8.73289e-02
 h26bf                                  1      0.0000       0.00000       A     2.59993e-01     8.73289e-02
 h27bf                                  1      0.0000       0.00000       A     2.59993e-01     8.73289e-02
 h28bf                                  1      0.0000       0.00000       A     2.59993e-01     8.73289e-02
 h29bf                                  1      0.0000       0.00000       A     2.42224e-01     8.69267e-02
 h30bf                                  1      0.0000       0.00000       A     2.42224e-01     8.69267e-02
 h31bf                                  1      0.0000       0.00000       A     2.62441e-01     6.72424e-02
 h32bf                                  1      0.0000       0.00000       A     2.62500e-01     6.73765e-02
 h33bf                                  1      0.0000       0.00000       A     2.62467e-01     6.72951e-02
 h34bf                                  1      0.0000       0.00000       A     1.10628e-01     4.12153e-02
 h35bf                                  1      0.0000       0.00000       A     2.59831e-01     8.81397e-02
 h36bf                                  1      0.0000       0.00000       A     2.59831e-01     8.81397e-02
 h37bf                                  1      0.0000       0.00000       A     2.59831e-01     8.81397e-02
 h38bf                                  1      0.0000       0.00000       A     1.10628e-01     4.12153e-02
 h39bf                                  1      0.0000       0.00000       A     1.10420e-01     4.16782e-02
 h40bf                                  1      0.0000       0.00000       A     2.53390e-01     6.73749e-02
 h41bf                                  1      0.0000       0.00000       A     1.10420e-01     4.16782e-02
 h42bf                                  1      0.0000       0.00000       A     2.60015e-01     8.71198e-02
 h43bf                                  1      0.0000       0.00000       A     2.60015e-01     8.71198e-02
 h44bf                                  1      0.0000       0.00000       A     2.60015e-01     8.71198e-02
 h45bf                                  1      0.0000       0.00000       A     1.10628e-01     4.12153e-02

[ moleculetype ]
;name             nrexcl
 Example_2             3

[ atoms ]
;       nr            type      resi   res      atom      cgnr      charge          mass ; qtot
         1            n0bf         1   UNL        n0         1    -0.75137       14.0070 ; qtot   -0.751
         2            c1bf         1   UNL        c1         2     0.21685       12.0110 ; qtot   -0.535
         3            c2bf         1   UNL        c2         3    -0.11988       12.0110 ; qtot   -0.654
         4            c3bf         1   UNL        c3         4     0.17348       12.0110 ; qtot   -0.481
         5            c4bf         1   UNL        c4         5    -0.11988       12.0110 ; qtot   -0.601
         6            c5bf         1   UNL        c5         6     0.21685       12.0110 ; qtot   -0.384
         7            c6bf         1   UNL        c6         7    -0.00789       12.0110 ; qtot   -0.392
         8            c7bf         1   UNL        c7         8     0.12941       12.0110 ; qtot   -0.262
         9            c8bf         1   UNL        c8         9    -0.06900       12.0110 ; qtot   -0.331
        10            c9bf         1   UNL        c9        10    -0.10260       12.0110 ; qtot   -0.434
        11           c10bf         1   UNL       c10        11    -0.10624       12.0110 ; qtot   -0.540
        12           c11bf         1   UNL       c11        12    -0.10019       12.0110 ; qtot   -0.640
        13           c12bf         1   UNL       c12        13    -0.24264       12.0110 ; qtot   -0.883
        14           c13bf         1   UNL       c13        14     0.17923       12.0110 ; qtot   -0.704
        15           n14bf         1   UNL       n14        15    -0.26852       14.0070 ; qtot   -0.972
        16           c15bf         1   UNL       c15        16     0.40661       12.0110 ; qtot   -0.566
        17           n16bf         1   UNL       n16        17    -0.32837       14.0070 ; qtot   -0.894
        18           c17bf         1   UNL       c17        18     0.39020       12.0110 ; qtot   -0.504
        19           c18bf         1   UNL       c18        19    -0.04751       12.0110 ; qtot   -0.551
        20          cl19bf         1   UNL      cl19        20    -0.21271       35.4530 ; qtot   -0.764
        21           n20bf         1   UNL       n20        21    -1.01070       14.0070 ; qtot   -1.775
        22           n21bf         1   UNL       n21        22    -0.99988       14.0070 ; qtot   -2.775
        23           c22bf         1   UNL       c22        23    -0.12370       12.0110 ; qtot   -2.898
        24           h23bf         1   UNL       h23        24     0.07656        1.0080 ; qtot   -2.822
        25           h24bf         1   UNL       h24        25     0.07656        1.0080 ; qtot   -2.745
        26           h25bf         1   UNL       h25        26     0.08264        1.0080 ; qtot   -2.663
        27           h26bf         1   UNL       h26        27     0.08264        1.0080 ; qtot   -2.580
        28           h27bf         1   UNL       h27        28     0.08264        1.0080 ; qtot   -2.497
        29           h28bf         1   UNL       h28        29     0.08264        1.0080 ; qtot   -2.415
        30           h29bf         1   UNL       h29        30     0.07656        1.0080 ; qtot   -2.338
        31           h30bf         1   UNL       h30        31     0.07656        1.0080 ; qtot   -2.262
        32           h31bf         1   UNL       h31        32     0.11958        1.0080 ; qtot   -2.142
        33           h32bf         1   UNL       h32        33     0.12026        1.0080 ; qtot   -2.022
        34           h33bf         1   UNL       h33        34     0.12359        1.0080 ; qtot   -1.898
        35           h34bf         1   UNL       h34        35     0.52124        1.0080 ; qtot   -1.377
        36           h35bf         1   UNL       h35        36     0.07436        1.0080 ; qtot   -1.303
        37           h36bf         1   UNL       h36        37     0.07436        1.0080 ; qtot   -1.228
        38           h37bf         1   UNL       h37        38     0.07436        1.0080 ; qtot   -1.154
        39           h38bf         1   UNL       h38        39     0.52124        1.0080 ; qtot   -0.633
        40           h39bf         1   UNL       h39        40     0.46340        1.0080 ; qtot   -0.169
        41           h40bf         1   UNL       h40        41     0.02700        1.0080 ; qtot   -0.142
        42           h41bf         1   UNL       h41        42     0.46340        1.0080 ; qtot    0.321
        43           h42bf         1   UNL       h42        43     0.05255        1.0080 ; qtot    0.374
        44           h43bf         1   UNL       h43        44     0.05255        1.0080 ; qtot    0.426
        45           h44bf         1   UNL       h44        45     0.05255        1.0080 ; qtot    0.479
        46           h45bf         1   UNL       h45        46     0.52121        1.0080 ; qtot    1.000

[ bonds ]
;       ai        aj funct               r               k
         1         2     1        0.146246   192923.438135
         1         6     1        0.146246   192923.438135
         1        16     1        0.136908   307878.225244
         2         3     1        0.153923   173079.010107
         2        24     1        0.109265   301353.161816
         2        25     1        0.109265   301353.161816
         3         4     1        0.153932   169886.960815
         3        26     1        0.109403   300377.210107
         3        27     1        0.109403   300377.210107
         4         5     1        0.153932   169886.960815
         4        22     1        0.155311    81285.091577
         4        23     1        0.152862   185224.433789
         5         6     1        0.153923   173079.010107
         5        28     1        0.109403   300377.210107
         5        29     1        0.109403   300377.210107
         6        30     1        0.109265   301353.161816
         6        31     1        0.109265   301353.161816
         7         8     1        0.140608   261958.033594
         7        12     1        0.140605   283482.190527
         7        13     1        0.148403   217586.718701
         8         9     1        0.140541   273941.220020
         8        20     1        0.176383   137247.266284
         9        10     1        0.140189   289993.361768
         9        19     1        0.150868   204129.479248
        10        11     1        0.139695   309964.913525
        10        32     1        0.108653   317933.053467
        11        12     1        0.139373   320486.457959
        11        33     1        0.108615   320163.898730
        12        34     1        0.108535   320787.923535
        13        14     1        0.139226   307211.272559
        13        18     1        0.142067   240576.271582
        14        15     1        0.133610   349191.777734
        14        41     1        0.108882   311726.642090
        15        16     1        0.135484   249332.205811
        16        17     1        0.135066   265212.457275
        17        18     1        0.133687   322432.360156
        18        21     1        0.137825   310604.592578
        19        43     1        0.109348   303077.708350
        19        44     1        0.109348   303077.708350
        19        45     1        0.109348   303077.708350
        21        40     1        0.101260   420823.931348
        21        42     1        0.101260   420823.931348
        22        35     1        0.102770   380670.861719
        22        39     1        0.102770   380670.861719
        22        46     1        0.102770   380670.861719
        23        36     1        0.109334   304479.006152
        23        37     1        0.109334   304479.006152
        23        38     1        0.109334   304479.006152

[ angles ]
;       ai        aj        ak funct           theta             cth
         1         2         3     1      110.240318      646.989625
         1         2        24     1      109.403671      442.030828
         1         2        25     1      109.403671      442.030828
         1         6         5     1      110.240318      646.989625
         1         6        30     1      109.403671      442.030828
         1         6        31     1      109.403671      442.030828
         1        16        15     1      117.333397      574.995087
         1        16        17     1      116.716797      545.164296
         2         1         6     1      115.112442      471.956745
         2         1        16     1      120.421898      509.404490
         2         3         4     1      111.663742      622.862739
         2         3        26     1      109.250656      502.091843
         2         3        27     1      109.250656      502.091811
         3         2        24     1      110.129150      483.732960
         3         2        25     1      110.129150      483.732960
         3         4         5     1      110.569092      534.807019
         3         4        22     1      106.634377      675.767713
         3         4        23     1      112.592728      599.387623
         4         3        26     1      109.625450      487.418539
         4         3        27     1      109.625450      487.418539
         4         5         6     1      111.663742      622.862739
         4         5        28     1      109.625450      487.418539
         4         5        29     1      109.625450      487.418539
         4        22        35     1      111.194313      445.707438
         4        22        39     1      111.194313      445.707501
         4        22        46     1      111.194313      445.707501
         4        23        36     1      111.123024      496.118936
         4        23        37     1      111.123024      496.118936
         4        23        38     1      111.123024      496.118936
         5         4        22     1      106.634377      675.767713
         5         4        23     1      112.592728      599.387623
         5         6        30     1      110.129150      483.732960
         5         6        31     1      110.129150      483.732960
         6         1        16     1      120.421898      509.404490
         6         5        28     1      109.250656      502.091843
         6         5        29     1      109.250656      502.091843
         7         8         9     1      122.660973      648.070547
         7         8        20     1      119.204056      334.705635
         7        12        11     1      120.965317      688.817814
         7        12        34     1      118.523293      419.794582
         7        13        14     1      122.089539      515.379918
         7        13        18     1      122.769348      455.003775
         8         7        12     1      117.676102      584.160994
         8         7        13     1      122.952942      395.589009
         8         9        10     1      117.521545      652.661608
         8         9        19     1      121.653976      355.868366
         9         8        20     1      118.155434      414.722241
         9        10        11     1      121.223122      664.192188
         9        10        32     1      118.813919      408.531823
         9        19        43     1      111.002914      473.378492
         9        19        44     1      111.002914      473.378492
         9        19        45     1      111.002914      473.378492
        10         9        19     1      120.714111      447.668177
        10        11        12     1      119.870766      718.611193
        10        11        33     1      120.128761      441.731373
        11        10        32     1      119.947983      428.996560
        11        12        34     1      120.368301      423.127142
        12         7        13     1      119.517799      470.734571
        12        11        33     1      120.017845      436.253823
        13        14        15     1      124.653793      720.334246
        13        14        41     1      119.306808      393.420366
        13        18        17     1      122.016762      686.560717
        13        18        21     1      121.627953      530.121023
        14        13        18     1      114.926529      841.077338
        14        15        16     1      115.867310      955.318746
        15        14        41     1      115.856796      381.859525
        15        16        17     1      125.249390      592.850442
        16        17        18     1      117.565331     1008.572302
        17        18        21     1      116.274452      628.266391
        18        21        40     1      115.648094      463.358496
        18        21        42     1      115.648094      463.358496
        22         4        23     1      106.513611      724.561723
        24         2        25     1      107.396446      347.046763
        26         3        27     1      106.859085      356.478288
        28         5        29     1      106.859085      356.478288
        30         6        31     1      107.396446      347.046763
        35        22        39     1      107.909775      400.797366
        35        22        46     1      107.909775      400.797366
        36        23        37     1      107.934097      360.937961
        36        23        38     1      107.934097      360.937961
        37        23        38     1      107.934097      360.937961
        39        22        46     1      107.909775      400.797366
        40        21        42     1      115.463928      336.780206
        43        19        44     1      107.885681      356.508421
        43        19        45     1      107.885681      356.508421
        44        19        45     1      107.885681      356.508421

[ dihedrals ] ; propers for gromacs 4.5 or higher, use funct 9
;       ai        aj        ak        al funct           phase               k        pn
         1         2         3         4     9        0.000000        3.296778         1
         1         2         3         4     9      180.000000       -2.013947         2
         1         2         3         4     9        0.000000        0.298540         3
         1         2         3         4     9      180.000000       -0.014361         4
         1         2         3        26     9        0.000000        0.019258         1
         1         2         3        26     9      180.000000       -0.030477         2
         1         2         3        26     9        0.000000        0.340665         3
         1         2         3        26     9      180.000000       -0.004655         4
         1         2         3        27     9        0.000000        0.019258         1
         1         2         3        27     9      180.000000       -0.030477         2
         1         2         3        27     9        0.000000        0.340665         3
         1         2         3        27     9      180.000000       -0.004655         4
         1         6         5         4     9        0.000000        3.296778         1
         1         6         5         4     9      180.000000       -2.013947         2
         1         6         5         4     9        0.000000        0.298540         3
         1         6         5         4     9      180.000000       -0.014361         4
         1         6         5        28     9        0.000000        0.019258         1
         1         6         5        28     9      180.000000       -0.030477         2
         1         6         5        28     9        0.000000        0.340665         3
         1         6         5        28     9      180.000000       -0.004655         4
         1         6         5        29     9        0.000000        0.019258         1
         1         6         5        29     9      180.000000       -0.030477         2
         1         6         5        29     9        0.000000        0.340665         3
         1         6         5        29     9      180.000000       -0.004655         4
         1        16        15        14     9        0.000000        1.400946         1
         1        16        15        14     9      180.000000       15.450416         2
         1        16        15        14     9        0.000000        0.725944         3
         1        16        15        14     9      180.000000       -0.993260         4
         1        16        17        18     9        0.000000        2.061219         1
         1        16        17        18     9      180.000000       15.656560         2
         1        16        17        18     9        0.000000        0.558075         3
         1        16        17        18     9      180.000000       -1.096796         4
         2         1         6         5     9        0.000000        0.300442         1
         2         1         6         5     9      180.000000        0.270933         2
         2         1         6         5     9        0.000000        0.598156         3
         2         1         6         5     9      180.000000        0.070810         4
         2         1         6        30     9        0.000000        0.150083         1
         2         1         6        30     9      180.000000        0.094374         2
         2         1         6        30     9        0.000000        0.804044         3
         2         1         6        30     9      180.000000        0.048195         4
         2         1         6        31     9        0.000000        0.150083         1
         2         1         6        31     9      180.000000        0.094374         2
         2         1         6        31     9        0.000000        0.804044         3
         2         1         6        31     9      180.000000        0.048195         4
         2         1        16        15     9        0.000000        0.688935         1
         2         1        16        15     9      180.000000       10.388331         2
         2         1        16        15     9        0.000000       -0.280025         3
         2         1        16        15     9      180.000000       -0.969867         4
         2         1        16        17     9        0.000000        0.730829         1
         2         1        16        17     9      180.000000       10.074813         2
         2         1        16        17     9        0.000000       -0.387081         3
         2         1        16        17     9      180.000000       -0.872987         4
         2         3         4         5     9        0.000000        3.255797         1
         2         3         4         5     9      180.000000       -1.795673         2
         2         3         4         5     9        0.000000        0.110659         3
         2         3         4         5     9      180.000000        0.043987         4
         2         3         4        22     9        0.000000        3.430266         1
         2         3         4        22     9      180.000000       -1.258128         2
         2         3         4        22     9        0.000000        0.439758         3
         2         3         4        22     9      180.000000        0.400165         4
         2         3         4        23     9        0.000000       -2.296705         1
         2         3         4        23     9      180.000000        1.047035         2
         2         3         4        23     9        0.000000        0.258553         3
         2         3         4        23     9      180.000000        0.066529         4
         3         2         1         6     9        0.000000        0.300442         1
         3         2         1         6     9      180.000000        0.270933         2
         3         2         1         6     9        0.000000        0.598156         3
         3         2         1         6     9      180.000000        0.070810         4
         3         2         1        16     9        0.000000       -2.365683         1
         3         2         1        16     9      180.000000        0.518435         2
         3         2         1        16     9        0.000000        0.556826         3
         3         2         1        16     9      180.000000       -0.043300         4
         3         4         5         6     9        0.000000        3.255797         1
         3         4         5         6     9      180.000000       -1.795673         2
         3         4         5         6     9        0.000000        0.110659         3
         3         4         5         6     9      180.000000        0.043987         4
         3         4         5        28     9        0.000000        0.011339         1
         3         4         5        28     9      180.000000        0.105243         2
         3         4         5        28     9        0.000000        0.350568         3
         3         4         5        28     9      180.000000       -0.010935         4
         3         4         5        29     9        0.000000        0.011339         1
         3         4         5        29     9      180.000000        0.105243         2
         3         4         5        29     9        0.000000        0.350568         3
         3         4         5        29     9      180.000000       -0.010935         4
         3         4        22        35     9        0.000000        0.050459         1
         3         4        22        35     9      180.000000        0.143578         2
         3         4        22        35     9        0.000000        0.557225         3
         3         4        22        35     9      180.000000        0.022165         4
         3         4        22        39     9        0.000000        0.050460         1
         3         4        22        39     9      180.000000        0.143579         2
         3         4        22        39     9        0.000000        0.557225         3
         3         4        22        39     9      180.000000        0.022165         4
         3         4        22        46     9        0.000000        0.050460         1
         3         4        22        46     9      180.000000        0.143579         2
         3         4        22        46     9        0.000000        0.557225         3
         3         4        22        46     9      180.000000        0.022165         4
         3         4        23        36     9        0.000000       -0.001813         1
         3         4        23        36     9      180.000000        0.018931         2
         3         4        23        36     9        0.000000        0.497752         3
         3         4        23        36     9      180.000000        0.012723         4
         3         4        23        37     9        0.000000       -0.001813         1
         3         4        23        37     9      180.000000        0.018931         2
         3         4        23        37     9        0.000000        0.497752         3
         3         4        23        37     9      180.000000        0.012723         4
         3         4        23        38     9        0.000000       -0.001813         1
         3         4        23        38     9      180.000000        0.018931         2
         3         4        23        38     9        0.000000        0.497752         3
         3         4        23        38     9      180.000000        0.012723         4
         4         3         2        24     9        0.000000       -0.131602         1
         4         3         2        24     9      180.000000        0.011745         2
         4         3         2        24     9        0.000000        0.327792         3
         4         3         2        24     9      180.000000        0.003114         4
         4         3         2        25     9        0.000000       -0.131602         1
         4         3         2        25     9      180.000000        0.011745         2
         4         3         2        25     9        0.000000        0.327792         3
         4         3         2        25     9      180.000000        0.003114         4
         4         5         6        30     9        0.000000       -0.131602         1
         4         5         6        30     9      180.000000        0.011745         2
         4         5         6        30     9        0.000000        0.327792         3
         4         5         6        30     9      180.000000        0.003114         4
         4         5         6        31     9        0.000000       -0.131602         1
         4         5         6        31     9      180.000000        0.011745         2
         4         5         6        31     9        0.000000        0.327792         3
         4         5         6        31     9      180.000000        0.003114         4
         5         4         3        26     9        0.000000        0.011339         1
         5         4         3        26     9      180.000000        0.105243         2
         5         4         3        26     9        0.000000        0.350568         3
         5         4         3        26     9      180.000000       -0.010935         4
         5         4         3        27     9        0.000000        0.011339         1
         5         4         3        27     9      180.000000        0.105243         2
         5         4         3        27     9        0.000000        0.350568         3
         5         4         3        27     9      180.000000       -0.010935         4
         5         4        22        35     9        0.000000        0.050459         1
         5         4        22        35     9      180.000000        0.143578         2
         5         4        22        35     9        0.000000        0.557225         3
         5         4        22        35     9      180.000000        0.022165         4
         5         4        22        39     9        0.000000        0.050460         1
         5         4        22        39     9      180.000000        0.143579         2
         5         4        22        39     9        0.000000        0.557225         3
         5         4        22        39     9      180.000000        0.022165         4
         5         4        22        46     9        0.000000        0.050460         1
         5         4        22        46     9      180.000000        0.143579         2
         5         4        22        46     9        0.000000        0.557225         3
         5         4        22        46     9      180.000000        0.022165         4
         5         4        23        36     9        0.000000       -0.001813         1
         5         4        23        36     9      180.000000        0.018931         2
         5         4        23        36     9        0.000000        0.497752         3
         5         4        23        36     9      180.000000        0.012723         4
         5         4        23        37     9        0.000000       -0.001813         1
         5         4        23        37     9      180.000000        0.018931         2
         5         4        23        37     9        0.000000        0.497752         3
         5         4        23        37     9      180.000000        0.012723         4
         5         4        23        38     9        0.000000       -0.001813         1
         5         4        23        38     9      180.000000        0.018931         2
         5         4        23        38     9        0.000000        0.497752         3
         5         4        23        38     9      180.000000        0.012723         4
         5         6         1        16     9        0.000000       -2.365683         1
         5         6         1        16     9      180.000000        0.518435         2
         5         6         1        16     9        0.000000        0.556826         3
         5         6         1        16     9      180.000000       -0.043300         4
         6         1         2        24     9        0.000000        0.150084         1
         6         1         2        24     9      180.000000        0.094373         2
         6         1         2        24     9        0.000000        0.804044         3
         6         1         2        24     9      180.000000        0.048195         4
         6         1         2        25     9        0.000000        0.150083         1
         6         1         2        25     9      180.000000        0.094374         2
         6         1         2        25     9        0.000000        0.804044         3
         6         1         2        25     9      180.000000        0.048195         4
         6         1        16        15     9        0.000000        0.688935         1
         6         1        16        15     9      180.000000       10.388331         2
         6         1        16        15     9        0.000000       -0.280025         3
         6         1        16        15     9      180.000000       -0.969867         4
         6         1        16        17     9        0.000000        0.730829         1
         6         1        16        17     9      180.000000       10.074813         2
         6         1        16        17     9        0.000000       -0.387081         3
         6         1        16        17     9      180.000000       -0.872987         4
         6         5         4        22     9        0.000000        3.430266         1
         6         5         4        22     9      180.000000       -1.258128         2
         6         5         4        22     9        0.000000        0.439758         3
         6         5         4        22     9      180.000000        0.400165         4
         6         5         4        23     9        0.000000       -2.296705         1
         6         5         4        23     9      180.000000        1.047035         2
         6         5         4        23     9        0.000000        0.258553         3
         6         5         4        23     9      180.000000        0.066529         4
         7         8         9        10     9        0.000000       -0.005702         1
         7         8         9        10     9      180.000000       17.516392         2
         7         8         9        10     9        0.000000       -1.025419         3
         7         8         9        10     9      180.000000       -0.468625         4
         7         8         9        19     9        0.000000        0.019737         1
         7         8         9        19     9      180.000000       14.057753         2
         7         8         9        19     9        0.000000       -0.230432         3
         7         8         9        19     9      180.000000       -0.194241         4
         7        12        11        10     9        0.000000        0.018744         1
         7        12        11        10     9      180.000000       19.046859         2
         7        12        11        10     9        0.000000       -1.627149         3
         7        12        11        10     9      180.000000       -0.452376         4
         7        12        11        33     9        0.000000        0.037175         1
         7        12        11        33     9      180.000000       14.337871         2
         7        12        11        33     9        0.000000       -0.575954         3
         7        12        11        33     9      180.000000        0.102856         4
         7        13        14        15     9        0.000000        0.122148         1
         7        13        14        15     9      180.000000       16.123410         2
         7        13        14        15     9        0.000000        0.218499         3
         7        13        14        15     9      180.000000       -0.540569         4
         7        13        14        41     9        0.000000        0.223729         1
         7        13        14        41     9      180.000000       13.148170         2
         7        13        14        41     9        0.000000        0.041279         3
         7        13        14        41     9      180.000000        0.065894         4
         7        13        18        17     9        0.000000       -0.250808         1
         7        13        18        17     9      180.000000       11.149873         2
         7        13        18        17     9        0.000000       -0.153072         3
         7        13        18        17     9      180.000000       -0.353699         4
         7        13        18        21     9        0.000000       -0.131978         1
         7        13        18        21     9      180.000000       14.352273         2
         7        13        18        21     9        0.000000       -0.120985         3
         7        13        18        21     9      180.000000       -0.582091         4
         8         7        12        11     9        0.000000       -0.121077         1
         8         7        12        11     9      180.000000       18.585449         2
         8         7        12        11     9        0.000000       -1.470408         3
         8         7        12        11     9      180.000000       -0.353904         4
         8         7        12        34     9        0.000000        0.029537         1
         8         7        12        34     9      180.000000       14.217471         2
         8         7        12        34     9        0.000000       -0.546220         3
         8         7        12        34     9      180.000000        0.138578         4
         8         7        13        14     9        0.000000        0.892336         1
         8         7        13        14     9      180.000000        1.359022         2
         8         7        13        14     9        0.000000       -0.177690         3
         8         7        13        14     9      180.000000        0.020013         4
         8         7        13        18     9        0.000000        2.941609         1
         8         7        13        18     9      180.000000       -0.619909         2
         8         7        13        18     9        0.000000        0.935423         3
         8         7        13        18     9      180.000000       -0.028118         4
         8         9        10        11     9        0.000000        0.055145         1
         8         9        10        11     9      180.000000       19.253564         2
         8         9        10        11     9        0.000000       -1.249830         3
         8         9        10        11     9      180.000000       -0.451281         4
         8         9        10        32     9        0.000000        0.125043         1
         8         9        10        32     9      180.000000       14.313191         2
         8         9        10        32     9        0.000000       -0.460940         3
         8         9        10        32     9      180.000000        0.053842         4
         8         9        19        43     9        0.000000       -0.009256         1
         8         9        19        43     9      180.000000       -0.010621         2
         8         9        19        43     9        0.000000        0.220233         3
         8         9        19        43     9      180.000000        0.018963         4
         8         9        19        44     9        0.000000       -0.009256         1
         8         9        19        44     9      180.000000       -0.010621         2
         8         9        19        44     9        0.000000        0.220233         3
         8         9        19        44     9      180.000000        0.018963         4
         8         9        19        45     9        0.000000       -0.009256         1
         8         9        19        45     9      180.000000       -0.010621         2
         8         9        19        45     9        0.000000        0.220233         3
         8         9        19        45     9      180.000000        0.018963         4
         9         8         7        12     9        0.000000       -0.079394         1
         9         8         7        12     9      180.000000       16.934954         2
         9         8         7        12     9        0.000000       -1.189787         3
         9         8         7        12     9      180.000000       -0.444039         4
         9         8         7        13     9        0.000000        0.292356         1
         9         8         7        13     9      180.000000       13.759819         2
         9         8         7        13     9        0.000000       -0.184186         3
         9         8         7        13     9      180.000000       -0.317479         4
         9        10        11        12     9        0.000000        0.063188         1
         9        10        11        12     9      180.000000       18.400535         2
         9        10        11        12     9        0.000000       -1.676939         3
         9        10        11        12     9      180.000000       -0.429604         4
         9        10        11        33     9        0.000000        0.045506         1
         9        10        11        33     9      180.000000       13.901634         2
         9        10        11        33     9        0.000000       -0.693579         3
         9        10        11        33     9      180.000000        0.080954         4
        10         9         8        20     9        0.000000        0.358143         1
        10         9         8        20     9      180.000000       19.259382         2
        10         9         8        20     9        0.000000        0.409916         3
        10         9         8        20     9      180.000000       -0.735471         4
        10         9        19        43     9        0.000000       -0.007962         1
        10         9        19        43     9      180.000000        0.003449         2
        10         9        19        43     9        0.000000       -0.118116         3
        10         9        19        43     9      180.000000       -0.002229         4
        10         9        19        44     9        0.000000       -0.007962         1
        10         9        19        44     9      180.000000        0.003449         2
        10         9        19        44     9        0.000000       -0.118116         3
        10         9        19        44     9      180.000000       -0.002229         4
        10         9        19        45     9        0.000000       -0.007962         1
        10         9        19        45     9      180.000000        0.003449         2
        10         9        19        45     9        0.000000       -0.118116         3
        10         9        19        45     9      180.000000       -0.002229         4
        10        11        12        34     9        0.000000        0.062911         1
        10        11        12        34     9      180.000000       14.597820         2
        10        11        12        34     9        0.000000       -0.728465         3
        10        11        12        34     9      180.000000        0.148375         4
        11        10         9        19     9        0.000000        0.148049         1
        11        10         9        19     9      180.000000       16.358432         2
        11        10         9        19     9        0.000000       -0.097074         3
        11        10         9        19     9      180.000000       -0.203900         4
        11        12         7        13     9        0.000000        0.335832         1
        11        12         7        13     9      180.000000       16.805136         2
        11        12         7        13     9        0.000000       -0.142314         3
        11        12         7        13     9      180.000000       -0.223204         4
        12         7         8        20     9        0.000000        0.342038         1
        12         7         8        20     9      180.000000       17.668358         2
        12         7         8        20     9        0.000000        0.404895         3
        12         7         8        20     9      180.000000       -0.660793         4
        12         7        13        14     9        0.000000       -0.713739         1
        12         7        13        14     9      180.000000        2.830909         2
        12         7        13        14     9        0.000000        0.358271         3
        12         7        13        14     9      180.000000       -0.001624         4
        12         7        13        18     9        0.000000       -0.637118         1
        12         7        13        18     9      180.000000        1.722211         2
        12         7        13        18     9        0.000000       -0.374338         3
        12         7        13        18     9      180.000000        0.232706         4
        12        11        10        32     9        0.000000        0.031795         1
        12        11        10        32     9      180.000000       13.895677         2
        12        11        10        32     9        0.000000       -0.766798         3
        12        11        10        32     9      180.000000        0.128289         4
        13         7         8        20     9        0.000000       -0.025699         1
        13         7         8        20     9      180.000000       15.723624         2
        13         7         8        20     9        0.000000        0.168174         3
        13         7         8        20     9      180.000000       -0.556099         4
        13         7        12        34     9        0.000000        0.032182         1
        13         7        12        34     9      180.000000       13.531407         2
        13         7        12        34     9        0.000000       -0.278283         3
        13         7        12        34     9      180.000000        0.229563         4
        13        14        15        16     9        0.000000       -0.322976         1
        13        14        15        16     9      180.000000       19.357901         2
        13        14        15        16     9        0.000000       -1.252587         3
        13        14        15        16     9      180.000000       -0.324097         4
        13        18        17        16     9        0.000000       -0.131601         1
        13        18        17        16     9      180.000000       18.769149         2
        13        18        17        16     9        0.000000       -0.604383         3
        13        18        17        16     9      180.000000       -0.441939         4
        13        18        21        40     9        0.000000        3.526493         1
        13        18        21        40     9      180.000000        6.829466         2
        13        18        21        40     9        0.000000        0.733923         3
        13        18        21        40     9      180.000000        0.242602         4
        13        18        21        42     9        0.000000        3.526493         1
        13        18        21        42     9      180.000000        6.829466         2
        13        18        21        42     9        0.000000        0.733923         3
        13        18        21        42     9      180.000000        0.242602         4
        14        13        18        17     9        0.000000       -0.108312         1
        14        13        18        17     9      180.000000       11.061353         2
        14        13        18        17     9        0.000000        0.251547         3
        14        13        18        17     9      180.000000       -0.496958         4
        14        13        18        21     9        0.000000        0.179237         1
        14        13        18        21     9      180.000000       14.526527         2
        14        13        18        21     9        0.000000        0.225641         3
        14        13        18        21     9      180.000000       -0.710292         4
        14        15        16        17     9        0.000000        0.776539         1
        14        15        16        17     9      180.000000        9.958043         2
        14        15        16        17     9        0.000000        0.771410         3
        14        15        16        17     9      180.000000       -0.677275         4
        15        14        13        18     9        0.000000       -0.158060         1
        15        14        13        18     9      180.000000       17.289353         2
        15        14        13        18     9        0.000000       -0.719362         3
        15        14        13        18     9      180.000000       -0.579152         4
        15        16        17        18     9        0.000000        0.977620         1
        15        16        17        18     9      180.000000        9.279800         2
        15        16        17        18     9        0.000000        0.477097         3
        15        16        17        18     9      180.000000       -0.298118         4
        16         1         2        24     9        0.000000        0.032031         1
        16         1         2        24     9      180.000000       -0.145875         2
        16         1         2        24     9        0.000000        0.433013         3
        16         1         2        24     9      180.000000        0.030306         4
        16         1         2        25     9        0.000000        0.032030         1
        16         1         2        25     9      180.000000       -0.145876         2
        16         1         2        25     9        0.000000        0.433013         3
        16         1         2        25     9      180.000000        0.030306         4
        16         1         6        30     9        0.000000        0.032030         1
        16         1         6        30     9      180.000000       -0.145876         2
        16         1         6        30     9        0.000000        0.433013         3
        16         1         6        30     9      180.000000        0.030306         4
        16         1         6        31     9        0.000000        0.032030         1
        16         1         6        31     9      180.000000       -0.145876         2
        16         1         6        31     9        0.000000        0.433013         3
        16         1         6        31     9      180.000000        0.030306         4
        16        15        14        41     9        0.000000        0.262858         1
        16        15        14        41     9      180.000000       17.937158         2
        16        15        14        41     9        0.000000       -0.097301         3
        16        15        14        41     9      180.000000       -0.196738         4
        16        17        18        21     9        0.000000       -0.393823         1
        16        17        18        21     9      180.000000       23.357948         2
        16        17        18        21     9        0.000000        0.081141         3
        16        17        18        21     9      180.000000       -0.889915         4
        17        18        21        40     9        0.000000        2.747967         1
        17        18        21        40     9      180.000000        9.878381         2
        17        18        21        40     9        0.000000       -0.355740         3
        17        18        21        40     9      180.000000        0.183634         4
        17        18        21        42     9        0.000000        2.747967         1
        17        18        21        42     9      180.000000        9.878381         2
        17        18        21        42     9        0.000000       -0.355740         3
        17        18        21        42     9      180.000000        0.183634         4
        18        13        14        41     9        0.000000        0.303192         1
        18        13        14        41     9      180.000000       14.578338         2
        18        13        14        41     9        0.000000       -0.673676         3
        18        13        14        41     9      180.000000        0.030032         4
        19         9         8        20     9        0.000000       -0.275299         1
        19         9         8        20     9      180.000000       17.458856         2
        19         9         8        20     9        0.000000       -0.088889         3
        19         9         8        20     9      180.000000       -0.592458         4
        19         9        10        32     9        0.000000       -0.138229         1
        19         9        10        32     9      180.000000       13.269045         2
        19         9        10        32     9        0.000000       -0.459980         3
        19         9        10        32     9      180.000000        0.231500         4
        22         4         3        26     9        0.000000       -0.210419         1
        22         4         3        26     9      180.000000        0.059164         2
        22         4         3        26     9        0.000000        0.534105         3
        22         4         3        26     9      180.000000       -0.079644         4
        22         4         3        27     9        0.000000       -0.210419         1
        22         4         3        27     9      180.000000        0.059164         2
        22         4         3        27     9        0.000000        0.534105         3
        22         4         3        27     9      180.000000       -0.079644         4
        22         4         5        28     9        0.000000       -0.210419         1
        22         4         5        28     9      180.000000        0.059164         2
        22         4         5        28     9        0.000000        0.534105         3
        22         4         5        28     9      180.000000       -0.079644         4
        22         4         5        29     9        0.000000       -0.210419         1
        22         4         5        29     9      180.000000        0.059164         2
        22         4         5        29     9        0.000000        0.534105         3
        22         4         5        29     9      180.000000       -0.079644         4
        22         4        23        36     9        0.000000       -0.256019         1
        22         4        23        36     9      180.000000       -0.145327         2
        22         4        23        36     9        0.000000        0.609264         3
        22         4        23        36     9      180.000000        0.002710         4
        22         4        23        37     9        0.000000       -0.256019         1
        22         4        23        37     9      180.000000       -0.145327         2
        22         4        23        37     9        0.000000        0.609264         3
        22         4        23        37     9      180.000000        0.002710         4
        22         4        23        38     9        0.000000       -0.256019         1
        22         4        23        38     9      180.000000       -0.145327         2
        22         4        23        38     9        0.000000        0.609264         3
        22         4        23        38     9      180.000000        0.002710         4
        23         4         3        26     9        0.000000        0.057707         1
        23         4         3        26     9      180.000000        0.007076         2
        23         4         3        26     9        0.000000        0.458867         3
        23         4         3        26     9      180.000000        0.000801         4
        23         4         3        27     9        0.000000        0.057707         1
        23         4         3        27     9      180.000000        0.007076         2
        23         4         3        27     9        0.000000        0.458867         3
        23         4         3        27     9      180.000000        0.000801         4
        23         4         5        28     9        0.000000        0.057707         1
        23         4         5        28     9      180.000000        0.007076         2
        23         4         5        28     9        0.000000        0.458867         3
        23         4         5        28     9      180.000000        0.000801         4
        23         4         5        29     9        0.000000        0.057707         1
        23         4         5        29     9      180.000000        0.007076         2
        23         4         5        29     9        0.000000        0.458867         3
        23         4         5        29     9      180.000000        0.000801         4
        23         4        22        35     9        0.000000       -0.241237         1
        23         4        22        35     9      180.000000        0.219199         2
        23         4        22        35     9        0.000000        0.596224         3
        23         4        22        35     9      180.000000        0.018226         4
        23         4        22        39     9        0.000000       -0.241237         1
        23         4        22        39     9      180.000000        0.219200         2
        23         4        22        39     9        0.000000        0.596224         3
        23         4        22        39     9      180.000000        0.018226         4
        23         4        22        46     9        0.000000       -0.241237         1
        23         4        22        46     9      180.000000        0.219200         2
        23         4        22        46     9        0.000000        0.596224         3
        23         4        22        46     9      180.000000        0.018226         4
        24         2         3        26     9        0.000000        0.004304         1
        24         2         3        26     9      180.000000        0.029399         2
        24         2         3        26     9        0.000000        0.385600         3
        24         2         3        26     9      180.000000        0.001531         4
        24         2         3        27     9        0.000000        0.004304         1
        24         2         3        27     9      180.000000        0.029399         2
        24         2         3        27     9        0.000000        0.385600         3
        24         2         3        27     9      180.000000        0.001531         4
        25         2         3        26     9        0.000000        0.004304         1
        25         2         3        26     9      180.000000        0.029400         2
        25         2         3        26     9        0.000000        0.385600         3
        25         2         3        26     9      180.000000        0.001531         4
        25         2         3        27     9        0.000000        0.004304         1
        25         2         3        27     9      180.000000        0.029400         2
        25         2         3        27     9        0.000000        0.385600         3
        25         2         3        27     9      180.000000        0.001531         4
        28         5         6        30     9        0.000000        0.004304         1
        28         5         6        30     9      180.000000        0.029400         2
        28         5         6        30     9        0.000000        0.385600         3
        28         5         6        30     9      180.000000        0.001531         4
        28         5         6        31     9        0.000000        0.004304         1
        28         5         6        31     9      180.000000        0.029400         2
        28         5         6        31     9        0.000000        0.385600         3
        28         5         6        31     9      180.000000        0.001531         4
        29         5         6        30     9        0.000000        0.004304         1
        29         5         6        30     9      180.000000        0.029400         2
        29         5         6        30     9        0.000000        0.385600         3
        29         5         6        30     9      180.000000        0.001531         4
        29         5         6        31     9        0.000000        0.004304         1
        29         5         6        31     9      180.000000        0.029400         2
        29         5         6        31     9        0.000000        0.385600         3
        29         5         6        31     9      180.000000        0.001531         4
        32        10        11        33     9        0.000000       -0.282448         1
        32        10        11        33     9      180.000000       10.455780         2
        32        10        11        33     9        0.000000       -0.455694         3
        32        10        11        33     9      180.000000        0.232501         4
        33        11        12        34     9        0.000000       -0.243829         1
        33        11        12        34     9      180.000000       11.816430         2
        33        11        12        34     9        0.000000       -0.686730         3
        33        11        12        34     9      180.000000        0.318531         4

[ dihedrals ] ; impropers
;       ai        aj        ak        al funct           phase               k        pn
        10         9        11        32     4      180.000000        0.785535         2
        10        11        32         9     4      180.000000        0.785535         2
        10        32         9        11     4      180.000000        0.785535         2
        11        10        12        33     4      180.000000        1.057057         2
        11        12        33        10     4      180.000000        1.057057         2
        11        33        10        12     4      180.000000        1.057057         2
        14        13        15        41     4      180.000000        8.801492         2
        14        15        41        13     4      180.000000        8.801492         2
        14        41        13        15     4      180.000000        8.801492         2
        16         1        15        17     4      180.000000       27.893333         2
        16        15        17         1     4      180.000000       27.893333         2
        16        17         1        15     4      180.000000       27.893333         2

[ pairs ]
;       ai        aj funct
         1         4     1
         1        14     1
         1        18     1
         1        26     1
         1        27     1
         1        28     1
         1        29     1
         2         5     1
         2        15     1
         2        17     1
         2        22     1
         2        23     1
         2        30     1
         2        31     1
         3         6     1
         3        16     1
         3        28     1
         3        29     1
         3        35     1
         3        36     1
         3        37     1
         3        38     1
         3        39     1
         3        46     1
         4        24     1
         4        25     1
         4        30     1
         4        31     1
         5        16     1
         5        26     1
         5        27     1
         5        35     1
         5        36     1
         5        37     1
         5        38     1
         5        39     1
         5        46     1
         6        15     1
         6        17     1
         6        22     1
         6        23     1
         6        24     1
         6        25     1
         7        10     1
         7        15     1
         7        17     1
         7        19     1
         7        21     1
         7        33     1
         7        41     1
         8        11     1
         8        14     1
         8        18     1
         8        32     1
         8        34     1
         8        43     1
         8        44     1
         8        45     1
         9        12     1
         9        13     1
         9        33     1
        10        20     1
        10        34     1
        10        43     1
        10        44     1
        10        45     1
        11        13     1
        11        19     1
        12        14     1
        12        18     1
        12        20     1
        12        32     1
        13        16     1
        13        20     1
        13        34     1
        13        40     1
        13        42     1
        14        17     1
        14        21     1
        15        18     1
        16        21     1
        16        24     1
        16        25     1
        16        30     1
        16        31     1
        16        41     1
        17        40     1
        17        42     1
        18        41     1
        19        20     1
        19        32     1
        22        26     1
        22        27     1
        22        28     1
        22        29     1
        22        36     1
        22        37     1
        22        38     1
        23        26     1
        23        27     1
        23        28     1
        23        29     1
        23        35     1
        23        39     1
        23        46     1
        24        26     1
        24        27     1
        25        26     1
        25        27     1
        28        30     1
        28        31     1
        29        30     1
        29        31     1
        32        33     1
        33        34     1
