; ITP file created by ByteFF-ML, 2026-02-21 07:46:55.150753

[ atomtypes ]
;name           bonded.type        at.num        mass        charge   ptype           sigma         epsilon
 n0bf                                   7      0.0000       0.00000       A     3.19541e-01     9.03422e-01
 c1bf                                   6      0.0000       0.00000       A     3.39981e-01     4.51019e-01
 c2bf                                   6      0.0000       0.00000       A     3.39728e-01     4.52409e-01
 c3bf                                   6      0.0000       0.00000       A     3.39953e-01     4.42911e-01
 c4bf                                   6      0.0000       0.00000       A     3.39728e-01     4.52409e-01
 c5bf                                   6      0.0000       0.00000       A     3.39981e-01     4.51019e-01
 c6bf                                   6      0.0000       0.00000       A     3.31585e-01     4.13256e-01
 c7bf                                   6      0.0000       0.00000       A     3.31533e-01     4.14582e-01
 c8bf                                   6      0.0000       0.00000       A     3.31417e-01     4.11515e-01
 c9bf                                   6      0.0000       0.00000       A     3.31579e-01     4.14111e-01
 c10bf                                  6      0.0000       0.00000       A     3.31485e-01     4.12199e-01
 c11bf                                  6      0.0000       0.00000       A     3.31686e-01     4.14913e-01
 c12bf                                  6      0.0000       0.00000       A     3.31566e-01     4.14935e-01
 c13bf                                  6      0.0000       0.00000       A     3.31581e-01     4.14068e-01
 n14bf                                  7      0.0000       0.00000       A     3.38456e-01     3.95404e-01
 c15bf                                  6      0.0000       0.00000       A     3.31292e-01     4.15982e-01
 n16bf                                  7      0.0000       0.00000       A     3.38322e-01     3.92331e-01
 c17bf                                  6      0.0000       0.00000       A     3.31038e-01     4.12137e-01
 cl18bf                                17      0.0000       0.00000       A     3.46741e-01     1.10456e+00
 cl19bf                                17      0.0000       0.00000       A     3.46947e-01     1.10869e+00
 n20bf                                  7      0.0000       0.00000       A     3.36694e-01     4.67773e-01
 n21bf                                  7      0.0000       0.00000       A     2.76368e-01     4.74797e+00
 c22bf                                  6      0.0000       0.00000       A     3.39520e-01     4.49397e-01
 h23bf                                  1      0.0000       0.00000       A     2.42224e-01     8.69267e-02
 h24bf                                  1      0.0000       0.00000       A     2.42224e-01     8.69267e-02
 h25bf                                  1      0.0000       0.00000       A     2.59993e-01     8.73289e-02
 h26bf                                  1      0.0000       0.00000       A     2.59993e-01     8.73289e-02
 h27bf                                  1      0.0000       0.00000       A     2.59993e-01     8.73289e-02
 h28bf                                  1      0.0000       0.00000       A     2.59993e-01     8.73289e-02
 h29bf                                  1      0.0000       0.00000       A     2.42224e-01     8.69267e-02
 h30bf                                  1      0.0000       0.00000       A     2.42224e-01     8.69267e-02
 h31bf                                  1      0.0000       0.00000       A     2.62449e-01     6.70078e-02
 o32bf                                  8      0.0000       0.00000       A     3.24340e-01     3.91921e-01
 h33bf                                  1      0.0000       0.00000       A     2.62360e-01     6.76302e-02
 h34bf                                  1      0.0000       0.00000       A     1.10420e-01     4.16782e-02
 h35bf                                  1      0.0000       0.00000       A     1.10420e-01     4.16782e-02
 h36bf                                  1      0.0000       0.00000       A     1.10628e-01     4.12153e-02
 h37bf                                  1      0.0000       0.00000       A     2.59831e-01     8.81397e-02
 h38bf                                  1      0.0000       0.00000       A     2.59831e-01     8.81397e-02
 h39bf                                  1      0.0000       0.00000       A     2.59831e-01     8.81397e-02
 h40bf                                  1      0.0000       0.00000       A     1.10628e-01     4.12153e-02
 h41bf                                  1      0.0000       0.00000       A     5.35921e-02     2.01009e-02
 h42bf                                  1      0.0000       0.00000       A     1.10628e-01     4.12153e-02
 h43bf                                  1      0.0000       0.00000       A     2.53390e-01     6.73749e-02

[ moleculetype ]
;name             nrexcl
 Example_6             3

[ atoms ]
;       nr            type      resi   res      atom      cgnr      charge          mass ; qtot
         1            n0bf         1   UNL        n0         1    -0.75137       14.0070 ; qtot   -0.751
         2            c1bf         1   UNL        c1         2     0.21685       12.0110 ; qtot   -0.535
         3            c2bf         1   UNL        c2         3    -0.11988       12.0110 ; qtot   -0.654
         4            c3bf         1   UNL        c3         4     0.17348       12.0110 ; qtot   -0.481
         5            c4bf         1   UNL        c4         5    -0.11988       12.0110 ; qtot   -0.601
         6            c5bf         1   UNL        c5         6     0.21685       12.0110 ; qtot   -0.384
         7            c6bf         1   UNL        c6         7     0.04094       12.0110 ; qtot   -0.343
         8            c7bf         1   UNL        c7         8     0.10392       12.0110 ; qtot   -0.239
         9            c8bf         1   UNL        c8         9     0.16622       12.0110 ; qtot   -0.073
        10            c9bf         1   UNL        c9        10    -0.15686       12.0110 ; qtot   -0.230
        11           c10bf         1   UNL       c10        11     0.14216       12.0110 ; qtot   -0.088
        12           c11bf         1   UNL       c11        12    -0.15749       12.0110 ; qtot   -0.245
        13           c12bf         1   UNL       c12        13    -0.25230       12.0110 ; qtot   -0.497
        14           c13bf         1   UNL       c13        14     0.18429       12.0110 ; qtot   -0.313
        15           n14bf         1   UNL       n14        15    -0.26852       14.0070 ; qtot   -0.582
        16           c15bf         1   UNL       c15        16     0.40661       12.0110 ; qtot   -0.175
        17           n16bf         1   UNL       n16        17    -0.32837       14.0070 ; qtot   -0.503
        18           c17bf         1   UNL       c17        18     0.39416       12.0110 ; qtot   -0.109
        19          cl18bf         1   UNL      cl18        19    -0.17485       35.4530 ; qtot   -0.284
        20          cl19bf         1   UNL      cl19        20    -0.17367       35.4530 ; qtot   -0.458
        21           n20bf         1   UNL       n20        21    -1.01070       14.0070 ; qtot   -1.468
        22           n21bf         1   UNL       n21        22    -0.99988       14.0070 ; qtot   -2.468
        23           c22bf         1   UNL       c22        23    -0.12370       12.0110 ; qtot   -2.592
        24           h23bf         1   UNL       h23        24     0.07656        1.0080 ; qtot   -2.515
        25           h24bf         1   UNL       h24        25     0.07656        1.0080 ; qtot   -2.439
        26           h25bf         1   UNL       h25        26     0.08264        1.0080 ; qtot   -2.356
        27           h26bf         1   UNL       h26        27     0.08264        1.0080 ; qtot   -2.274
        28           h27bf         1   UNL       h27        28     0.08264        1.0080 ; qtot   -2.191
        29           h28bf         1   UNL       h28        29     0.08264        1.0080 ; qtot   -2.108
        30           h29bf         1   UNL       h29        30     0.07656        1.0080 ; qtot   -2.032
        31           h30bf         1   UNL       h30        31     0.07656        1.0080 ; qtot   -1.955
        32           h31bf         1   UNL       h31        32     0.14350        1.0080 ; qtot   -1.812
        33           o32bf         1   UNL       o32        33    -0.52966       15.9990 ; qtot   -2.341
        34           h33bf         1   UNL       h33        34     0.13436        1.0080 ; qtot   -2.207
        35           h34bf         1   UNL       h34        35     0.46340        1.0080 ; qtot   -1.744
        36           h35bf         1   UNL       h35        36     0.46340        1.0080 ; qtot   -1.280
        37           h36bf         1   UNL       h36        37     0.52124        1.0080 ; qtot   -0.759
        38           h37bf         1   UNL       h37        38     0.07436        1.0080 ; qtot   -0.685
        39           h38bf         1   UNL       h38        39     0.07436        1.0080 ; qtot   -0.610
        40           h39bf         1   UNL       h39        40     0.07436        1.0080 ; qtot   -0.536
        41           h40bf         1   UNL       h40        41     0.52124        1.0080 ; qtot   -0.015
        42           h41bf         1   UNL       h41        42     0.46641        1.0080 ; qtot    0.452
        43           h42bf         1   UNL       h42        43     0.52124        1.0080 ; qtot    0.973
        44           h43bf         1   UNL       h43        44     0.02698        1.0080 ; qtot    1.000

[ bonds ]
;       ai        aj funct               r               k
         1         2     1        0.146246   192923.438135
         1         6     1        0.146246   192923.438135
         1        16     1        0.136908   307878.225244
         2         3     1        0.153923   173079.010107
         2        24     1        0.109265   301353.161816
         2        25     1        0.109265   301353.161816
         3         4     1        0.153932   169886.960815
         3        26     1        0.109403   300377.210107
         3        27     1        0.109403   300377.210107
         4         5     1        0.153932   169886.960815
         4        22     1        0.155311    81285.091577
         4        23     1        0.152862   185224.433789
         5         6     1        0.153923   173079.010107
         5        28     1        0.109403   300377.210107
         5        29     1        0.109403   300377.210107
         6        30     1        0.109265   301353.161816
         6        31     1        0.109265   301353.161816
         7         8     1        0.141010   255369.919043
         7        12     1        0.140364   288830.708252
         7        13     1        0.148285   217118.214893
         8         9     1        0.140288   279070.833643
         8        20     1        0.174931   154203.830298
         9        10     1        0.139582   303916.474707
         9        19     1        0.174778   155790.667969
        10        11     1        0.139786   295024.121240
        10        32     1        0.108430   325684.025830
        11        12     1        0.139704   298461.977979
        11        33     1        0.136961   290385.611768
        12        34     1        0.108501   321764.641357
        13        14     1        0.139289   306727.574170
        13        18     1        0.142038   241934.667041
        14        15     1        0.133610   349191.777734
        14        44     1        0.108882   311726.642090
        15        16     1        0.135484   249332.205811
        16        17     1        0.135066   265212.457275
        17        18     1        0.133687   322432.385693
        18        21     1        0.137825   310604.592578
        21        35     1        0.101260   420823.931348
        21        36     1        0.101260   420823.931348
        22        37     1        0.102770   380670.861719
        22        41     1        0.102770   380670.861719
        22        43     1        0.102770   380670.861719
        23        38     1        0.109334   304479.006152
        23        39     1        0.109334   304479.006152
        23        40     1        0.109334   304479.006152
        33        42     1        0.097020   469277.838379

[ angles ]
;       ai        aj        ak funct           theta             cth
         1         2         3     1      110.240318      646.989625
         1         2        24     1      109.403671      442.030828
         1         2        25     1      109.403671      442.030828
         1         6         5     1      110.240318      646.989625
         1         6        30     1      109.403671      442.030828
         1         6        31     1      109.403671      442.030828
         1        16        15     1      117.333397      574.995087
         1        16        17     1      116.716797      545.164296
         2         1         6     1      115.112442      471.956745
         2         1        16     1      120.421898      509.404490
         2         3         4     1      111.663742      622.862739
         2         3        26     1      109.250656      502.091843
         2         3        27     1      109.250656      502.091811
         3         2        24     1      110.129150      483.732960
         3         2        25     1      110.129150      483.732960
         3         4         5     1      110.569092      534.807019
         3         4        22     1      106.634377      675.767713
         3         4        23     1      112.592728      599.387623
         4         3        26     1      109.625450      487.418539
         4         3        27     1      109.625450      487.418539
         4         5         6     1      111.663742      622.862739
         4         5        28     1      109.625450      487.418539
         4         5        29     1      109.625450      487.418539
         4        22        37     1      111.194313      445.707501
         4        22        41     1      111.194313      445.707501
         4        22        43     1      111.194313      445.707501
         4        23        38     1      111.123024      496.118936
         4        23        39     1      111.123024      496.118936
         4        23        40     1      111.123024      496.118936
         5         4        22     1      106.634377      675.767713
         5         4        23     1      112.592728      599.387623
         5         6        30     1      110.129150      483.732960
         5         6        31     1      110.129150      483.732960
         6         1        16     1      120.421898      509.404490
         6         5        28     1      109.250656      502.091843
         6         5        29     1      109.250656      502.091843
         7         8         9     1      119.660049      576.728354
         7         8        20     1      120.179077      329.411920
         7        12        11     1      121.045700      734.833706
         7        12        34     1      119.179550      415.994755
         7        13        14     1      122.054283      521.745298
         7        13        18     1      122.792847      463.180854
         8         7        12     1      118.783241      560.404715
         8         7        13     1      122.250931      416.460329
         8         9        10     1      120.996750      565.779893
         8         9        19     1      121.276466      357.470404
         9         8        20     1      120.240860      374.076931
         9        10        11     1      119.288376      698.221216
         9        10        32     1      120.050827      419.141278
        10         9        19     1      117.724266      337.175840
        10        11        12     1      120.279984      624.551763
        10        11        33     1      119.463989      604.218606
        11        10        32     1      120.620644      435.600360
        11        12        34     1      119.479027      437.918715
        11        33        42     1      109.577553      601.830375
        12         7        13     1      118.873169      421.448333
        12        11        33     1      120.246605      543.142778
        13        14        15     1      124.606461      717.070220
        13        14        44     1      119.358841      392.968040
        13        18        17     1      121.942154      684.600424
        13        18        21     1      121.775536      534.519375
        14        13        18     1      114.968323      841.260695
        14        15        16     1      115.867310      955.318746
        15        14        44     1      115.856796      381.859525
        15        16        17     1      125.249390      592.850442
        16        17        18     1      117.565331     1008.572302
        17        18        21     1      116.274452      628.266391
        18        21        35     1      115.648087      463.358496
        18        21        36     1      115.648094      463.358496
        22         4        23     1      106.513611      724.561723
        24         2        25     1      107.396446      347.046763
        26         3        27     1      106.859085      356.478288
        28         5        29     1      106.859085      356.478288
        30         6        31     1      107.396446      347.046763
        35        21        36     1      115.463928      336.780206
        37        22        41     1      107.909775      400.797366
        37        22        43     1      107.909775      400.797366
        38        23        39     1      107.934082      360.937993
        38        23        40     1      107.934082      360.937993
        39        23        40     1      107.934082      360.937993
        41        22        43     1      107.909775      400.797398

[ dihedrals ] ; propers for gromacs 4.5 or higher, use funct 9
;       ai        aj        ak        al funct           phase               k        pn
         1         2         3         4     9        0.000000        3.296778         1
         1         2         3         4     9      180.000000       -2.013947         2
         1         2         3         4     9        0.000000        0.298540         3
         1         2         3         4     9      180.000000       -0.014361         4
         1         2         3        26     9        0.000000        0.019258         1
         1         2         3        26     9      180.000000       -0.030477         2
         1         2         3        26     9        0.000000        0.340665         3
         1         2         3        26     9      180.000000       -0.004655         4
         1         2         3        27     9        0.000000        0.019258         1
         1         2         3        27     9      180.000000       -0.030477         2
         1         2         3        27     9        0.000000        0.340665         3
         1         2         3        27     9      180.000000       -0.004655         4
         1         6         5         4     9        0.000000        3.296778         1
         1         6         5         4     9      180.000000       -2.013947         2
         1         6         5         4     9        0.000000        0.298540         3
         1         6         5         4     9      180.000000       -0.014361         4
         1         6         5        28     9        0.000000        0.019258         1
         1         6         5        28     9      180.000000       -0.030477         2
         1         6         5        28     9        0.000000        0.340665         3
         1         6         5        28     9      180.000000       -0.004655         4
         1         6         5        29     9        0.000000        0.019258         1
         1         6         5        29     9      180.000000       -0.030477         2
         1         6         5        29     9        0.000000        0.340665         3
         1         6         5        29     9      180.000000       -0.004655         4
         1        16        15        14     9        0.000000        1.400946         1
         1        16        15        14     9      180.000000       15.450416         2
         1        16        15        14     9        0.000000        0.725944         3
         1        16        15        14     9      180.000000       -0.993260         4
         1        16        17        18     9        0.000000        2.061219         1
         1        16        17        18     9      180.000000       15.656560         2
         1        16        17        18     9        0.000000        0.558075         3
         1        16        17        18     9      180.000000       -1.096796         4
         2         1         6         5     9        0.000000        0.300442         1
         2         1         6         5     9      180.000000        0.270933         2
         2         1         6         5     9        0.000000        0.598156         3
         2         1         6         5     9      180.000000        0.070810         4
         2         1         6        30     9        0.000000        0.150083         1
         2         1         6        30     9      180.000000        0.094374         2
         2         1         6        30     9        0.000000        0.804044         3
         2         1         6        30     9      180.000000        0.048195         4
         2         1         6        31     9        0.000000        0.150083         1
         2         1         6        31     9      180.000000        0.094374         2
         2         1         6        31     9        0.000000        0.804044         3
         2         1         6        31     9      180.000000        0.048195         4
         2         1        16        15     9        0.000000        0.688935         1
         2         1        16        15     9      180.000000       10.388331         2
         2         1        16        15     9        0.000000       -0.280025         3
         2         1        16        15     9      180.000000       -0.969867         4
         2         1        16        17     9        0.000000        0.730829         1
         2         1        16        17     9      180.000000       10.074813         2
         2         1        16        17     9        0.000000       -0.387081         3
         2         1        16        17     9      180.000000       -0.872987         4
         2         3         4         5     9        0.000000        3.255797         1
         2         3         4         5     9      180.000000       -1.795673         2
         2         3         4         5     9        0.000000        0.110659         3
         2         3         4         5     9      180.000000        0.043987         4
         2         3         4        22     9        0.000000        3.430266         1
         2         3         4        22     9      180.000000       -1.258128         2
         2         3         4        22     9        0.000000        0.439758         3
         2         3         4        22     9      180.000000        0.400165         4
         2         3         4        23     9        0.000000       -2.296704         1
         2         3         4        23     9      180.000000        1.047034         2
         2         3         4        23     9        0.000000        0.258553         3
         2         3         4        23     9      180.000000        0.066530         4
         3         2         1         6     9        0.000000        0.300442         1
         3         2         1         6     9      180.000000        0.270933         2
         3         2         1         6     9        0.000000        0.598156         3
         3         2         1         6     9      180.000000        0.070810         4
         3         2         1        16     9        0.000000       -2.365683         1
         3         2         1        16     9      180.000000        0.518435         2
         3         2         1        16     9        0.000000        0.556826         3
         3         2         1        16     9      180.000000       -0.043300         4
         3         4         5         6     9        0.000000        3.255797         1
         3         4         5         6     9      180.000000       -1.795673         2
         3         4         5         6     9        0.000000        0.110659         3
         3         4         5         6     9      180.000000        0.043987         4
         3         4         5        28     9        0.000000        0.011339         1
         3         4         5        28     9      180.000000        0.105243         2
         3         4         5        28     9        0.000000        0.350568         3
         3         4         5        28     9      180.000000       -0.010935         4
         3         4         5        29     9        0.000000        0.011339         1
         3         4         5        29     9      180.000000        0.105243         2
         3         4         5        29     9        0.000000        0.350568         3
         3         4         5        29     9      180.000000       -0.010935         4
         3         4        22        37     9        0.000000        0.050460         1
         3         4        22        37     9      180.000000        0.143579         2
         3         4        22        37     9        0.000000        0.557225         3
         3         4        22        37     9      180.000000        0.022165         4
         3         4        22        41     9        0.000000        0.050460         1
         3         4        22        41     9      180.000000        0.143579         2
         3         4        22        41     9        0.000000        0.557225         3
         3         4        22        41     9      180.000000        0.022165         4
         3         4        22        43     9        0.000000        0.050460         1
         3         4        22        43     9      180.000000        0.143579         2
         3         4        22        43     9        0.000000        0.557225         3
         3         4        22        43     9      180.000000        0.022165         4
         3         4        23        38     9        0.000000       -0.001812         1
         3         4        23        38     9      180.000000        0.018931         2
         3         4        23        38     9        0.000000        0.497752         3
         3         4        23        38     9      180.000000        0.012723         4
         3         4        23        39     9        0.000000       -0.001812         1
         3         4        23        39     9      180.000000        0.018931         2
         3         4        23        39     9        0.000000        0.497752         3
         3         4        23        39     9      180.000000        0.012723         4
         3         4        23        40     9        0.000000       -0.001812         1
         3         4        23        40     9      180.000000        0.018931         2
         3         4        23        40     9        0.000000        0.497752         3
         3         4        23        40     9      180.000000        0.012723         4
         4         3         2        24     9        0.000000       -0.131602         1
         4         3         2        24     9      180.000000        0.011745         2
         4         3         2        24     9        0.000000        0.327792         3
         4         3         2        24     9      180.000000        0.003114         4
         4         3         2        25     9        0.000000       -0.131602         1
         4         3         2        25     9      180.000000        0.011745         2
         4         3         2        25     9        0.000000        0.327792         3
         4         3         2        25     9      180.000000        0.003114         4
         4         5         6        30     9        0.000000       -0.131602         1
         4         5         6        30     9      180.000000        0.011745         2
         4         5         6        30     9        0.000000        0.327792         3
         4         5         6        30     9      180.000000        0.003114         4
         4         5         6        31     9        0.000000       -0.131602         1
         4         5         6        31     9      180.000000        0.011745         2
         4         5         6        31     9        0.000000        0.327792         3
         4         5         6        31     9      180.000000        0.003114         4
         5         4         3        26     9        0.000000        0.011339         1
         5         4         3        26     9      180.000000        0.105243         2
         5         4         3        26     9        0.000000        0.350568         3
         5         4         3        26     9      180.000000       -0.010935         4
         5         4         3        27     9        0.000000        0.011339         1
         5         4         3        27     9      180.000000        0.105243         2
         5         4         3        27     9        0.000000        0.350568         3
         5         4         3        27     9      180.000000       -0.010935         4
         5         4        22        37     9        0.000000        0.050460         1
         5         4        22        37     9      180.000000        0.143579         2
         5         4        22        37     9        0.000000        0.557225         3
         5         4        22        37     9      180.000000        0.022165         4
         5         4        22        41     9        0.000000        0.050460         1
         5         4        22        41     9      180.000000        0.143579         2
         5         4        22        41     9        0.000000        0.557225         3
         5         4        22        41     9      180.000000        0.022165         4
         5         4        22        43     9        0.000000        0.050460         1
         5         4        22        43     9      180.000000        0.143579         2
         5         4        22        43     9        0.000000        0.557225         3
         5         4        22        43     9      180.000000        0.022165         4
         5         4        23        38     9        0.000000       -0.001812         1
         5         4        23        38     9      180.000000        0.018931         2
         5         4        23        38     9        0.000000        0.497752         3
         5         4        23        38     9      180.000000        0.012723         4
         5         4        23        39     9        0.000000       -0.001812         1
         5         4        23        39     9      180.000000        0.018931         2
         5         4        23        39     9        0.000000        0.497752         3
         5         4        23        39     9      180.000000        0.012723         4
         5         4        23        40     9        0.000000       -0.001812         1
         5         4        23        40     9      180.000000        0.018931         2
         5         4        23        40     9        0.000000        0.497752         3
         5         4        23        40     9      180.000000        0.012723         4
         5         6         1        16     9        0.000000       -2.365683         1
         5         6         1        16     9      180.000000        0.518435         2
         5         6         1        16     9        0.000000        0.556826         3
         5         6         1        16     9      180.000000       -0.043300         4
         6         1         2        24     9        0.000000        0.150083         1
         6         1         2        24     9      180.000000        0.094374         2
         6         1         2        24     9        0.000000        0.804044         3
         6         1         2        24     9      180.000000        0.048195         4
         6         1         2        25     9        0.000000        0.150083         1
         6         1         2        25     9      180.000000        0.094374         2
         6         1         2        25     9        0.000000        0.804044         3
         6         1         2        25     9      180.000000        0.048195         4
         6         1        16        15     9        0.000000        0.688935         1
         6         1        16        15     9      180.000000       10.388331         2
         6         1        16        15     9        0.000000       -0.280025         3
         6         1        16        15     9      180.000000       -0.969867         4
         6         1        16        17     9        0.000000        0.730829         1
         6         1        16        17     9      180.000000       10.074813         2
         6         1        16        17     9        0.000000       -0.387081         3
         6         1        16        17     9      180.000000       -0.872987         4
         6         5         4        22     9        0.000000        3.430266         1
         6         5         4        22     9      180.000000       -1.258128         2
         6         5         4        22     9        0.000000        0.439758         3
         6         5         4        22     9      180.000000        0.400165         4
         6         5         4        23     9        0.000000       -2.296704         1
         6         5         4        23     9      180.000000        1.047034         2
         6         5         4        23     9        0.000000        0.258553         3
         6         5         4        23     9      180.000000        0.066530         4
         7         8         9        10     9        0.000000       -0.016832         1
         7         8         9        10     9      180.000000       16.665251         2
         7         8         9        10     9        0.000000       -1.003699         3
         7         8         9        10     9      180.000000       -0.429291         4
         7         8         9        19     9        0.000000        0.279651         1
         7         8         9        19     9      180.000000       16.231208         2
         7         8         9        19     9        0.000000        0.044716         3
         7         8         9        19     9      180.000000       -0.494938         4
         7        12        11        10     9        0.000000        0.057877         1
         7        12        11        10     9      180.000000       16.149025         2
         7        12        11        10     9        0.000000       -0.976754         3
         7        12        11        10     9      180.000000       -0.228033         4
         7        12        11        33     9        0.000000        0.327624         1
         7        12        11        33     9      180.000000       18.704253         2
         7        12        11        33     9        0.000000        0.561864         3
         7        12        11        33     9      180.000000       -0.549231         4
         7        13        14        15     9        0.000000        0.103613         1
         7        13        14        15     9      180.000000       16.272887         2
         7        13        14        15     9        0.000000        0.238129         3
         7        13        14        15     9      180.000000       -0.566585         4
         7        13        14        44     9        0.000000        0.088599         1
         7        13        14        44     9      180.000000       13.456054         2
         7        13        14        44     9        0.000000        0.009477         3
         7        13        14        44     9      180.000000        0.031012         4
         7        13        18        17     9        0.000000       -0.161786         1
         7        13        18        17     9      180.000000       11.107574         2
         7        13        18        17     9        0.000000       -0.129385         3
         7        13        18        17     9      180.000000       -0.339630         4
         7        13        18        21     9        0.000000       -0.251086         1
         7        13        18        21     9      180.000000       14.299452         2
         7        13        18        21     9        0.000000       -0.175126         3
         7        13        18        21     9      180.000000       -0.593554         4
         8         7        12        11     9        0.000000       -0.151025         1
         8         7        12        11     9      180.000000       18.036330         2
         8         7        12        11     9        0.000000       -1.753882         3
         8         7        12        11     9      180.000000       -0.365376         4
         8         7        12        34     9        0.000000        0.071417         1
         8         7        12        34     9      180.000000       14.010398         2
         8         7        12        34     9        0.000000       -0.504070         3
         8         7        12        34     9      180.000000        0.156425         4
         8         7        13        14     9        0.000000        0.723573         1
         8         7        13        14     9      180.000000        1.294760         2
         8         7        13        14     9        0.000000       -0.174677         3
         8         7        13        14     9      180.000000        0.003945         4
         8         7        13        18     9        0.000000        2.721895         1
         8         7        13        18     9      180.000000       -0.725851         2
         8         7        13        18     9        0.000000        0.956585         3
         8         7        13        18     9      180.000000       -0.064692         4
         8         9        10        11     9        0.000000       -0.016632         1
         8         9        10        11     9      180.000000       17.152379         2
         8         9        10        11     9        0.000000       -1.444236         3
         8         9        10        11     9      180.000000       -0.433321         4
         8         9        10        32     9        0.000000        0.196974         1
         8         9        10        32     9      180.000000       13.052852         2
         8         9        10        32     9        0.000000       -0.441429         3
         8         9        10        32     9      180.000000        0.088970         4
         9         8         7        12     9        0.000000       -0.137098         1
         9         8         7        12     9      180.000000       16.651887         2
         9         8         7        12     9        0.000000       -1.241985         3
         9         8         7        12     9      180.000000       -0.344923         4
         9         8         7        13     9        0.000000        0.341452         1
         9         8         7        13     9      180.000000       13.886542         2
         9         8         7        13     9        0.000000       -0.264004         3
         9         8         7        13     9      180.000000       -0.360297         4
         9        10        11        12     9        0.000000       -0.079938         1
         9        10        11        12     9      180.000000       16.160176         2
         9        10        11        12     9        0.000000       -0.916269         3
         9        10        11        12     9      180.000000       -0.266107         4
         9        10        11        33     9        0.000000        0.272638         1
         9        10        11        33     9      180.000000       19.597936         2
         9        10        11        33     9        0.000000        0.394138         3
         9        10        11        33     9      180.000000       -0.682169         4
        10         9         8        20     9        0.000000        0.052241         1
        10         9         8        20     9      180.000000       17.117111         2
        10         9         8        20     9        0.000000        0.000981         3
        10         9         8        20     9      180.000000       -0.496700         4
        10        11        12        34     9        0.000000        0.054950         1
        10        11        12        34     9      180.000000       12.256281         2
        10        11        12        34     9        0.000000       -0.329205         3
        10        11        12        34     9      180.000000        0.204530         4
        10        11        33        42     9        0.000000       -0.098929         1
        10        11        33        42     9      180.000000        4.525239         2
        10        11        33        42     9        0.000000        0.185570         3
        10        11        33        42     9      180.000000        0.037918         4
        11        10         9        19     9        0.000000        0.356692         1
        11        10         9        19     9      180.000000       19.303832         2
        11        10         9        19     9        0.000000        0.387778         3
        11        10         9        19     9      180.000000       -0.721515         4
        11        12         7        13     9        0.000000        0.211450         1
        11        12         7        13     9      180.000000       17.018448         2
        11        12         7        13     9        0.000000       -0.348204         3
        11        12         7        13     9      180.000000       -0.424700         4
        12         7         8        20     9        0.000000        0.213087         1
        12         7         8        20     9      180.000000       17.104706         2
        12         7         8        20     9        0.000000        0.272995         3
        12         7         8        20     9      180.000000       -0.557499         4
        12         7        13        14     9        0.000000       -0.589187         1
        12         7        13        14     9      180.000000        2.920526         2
        12         7        13        14     9        0.000000        0.249966         3
        12         7        13        14     9      180.000000       -0.046777         4
        12         7        13        18     9        0.000000       -0.488280         1
        12         7        13        18     9      180.000000        1.845392         2
        12         7        13        18     9        0.000000       -0.411642         3
        12         7        13        18     9      180.000000        0.247341         4
        12        11        10        32     9        0.000000       -0.028651         1
        12        11        10        32     9      180.000000       12.476499         2
        12        11        10        32     9        0.000000       -0.445972         3
        12        11        10        32     9      180.000000        0.201204         4
        12        11        33        42     9        0.000000       -0.084836         1
        12        11        33        42     9      180.000000        4.658189         2
        12        11        33        42     9        0.000000        0.171912         3
        12        11        33        42     9      180.000000        0.021164         4
        13         7         8        20     9        0.000000        0.025367         1
        13         7         8        20     9      180.000000       15.231407         2
        13         7         8        20     9        0.000000        0.199783         3
        13         7         8        20     9      180.000000       -0.530295         4
        13         7        12        34     9        0.000000       -0.100942         1
        13         7        12        34     9      180.000000       13.934994         2
        13         7        12        34     9        0.000000       -0.270244         3
        13         7        12        34     9      180.000000        0.163791         4
        13        14        15        16     9        0.000000       -0.318256         1
        13        14        15        16     9      180.000000       19.382067         2
        13        14        15        16     9        0.000000       -1.262039         3
        13        14        15        16     9      180.000000       -0.316931         4
        13        18        17        16     9        0.000000       -0.151470         1
        13        18        17        16     9      180.000000       18.848073         2
        13        18        17        16     9        0.000000       -0.619454         3
        13        18        17        16     9      180.000000       -0.440033         4
        13        18        21        35     9        0.000000        2.878459         1
        13        18        21        35     9      180.000000        7.015342         2
        13        18        21        35     9        0.000000        0.668893         3
        13        18        21        35     9      180.000000        0.218963         4
        13        18        21        36     9        0.000000        2.878459         1
        13        18        21        36     9      180.000000        7.015342         2
        13        18        21        36     9        0.000000        0.668893         3
        13        18        21        36     9      180.000000        0.218963         4
        14        13        18        17     9        0.000000       -0.133634         1
        14        13        18        17     9      180.000000       11.082673         2
        14        13        18        17     9        0.000000        0.236241         3
        14        13        18        17     9      180.000000       -0.495622         4
        14        13        18        21     9        0.000000        0.146997         1
        14        13        18        21     9      180.000000       14.599751         2
        14        13        18        21     9        0.000000        0.208435         3
        14        13        18        21     9      180.000000       -0.713619         4
        14        15        16        17     9        0.000000        0.776539         1
        14        15        16        17     9      180.000000        9.958043         2
        14        15        16        17     9        0.000000        0.771410         3
        14        15        16        17     9      180.000000       -0.677275         4
        15        14        13        18     9        0.000000       -0.136775         1
        15        14        13        18     9      180.000000       17.347315         2
        15        14        13        18     9        0.000000       -0.734627         3
        15        14        13        18     9      180.000000       -0.584845         4
        15        16        17        18     9        0.000000        0.977620         1
        15        16        17        18     9      180.000000        9.279800         2
        15        16        17        18     9        0.000000        0.477097         3
        15        16        17        18     9      180.000000       -0.298118         4
        16         1         2        24     9        0.000000        0.032030         1
        16         1         2        24     9      180.000000       -0.145876         2
        16         1         2        24     9        0.000000        0.433013         3
        16         1         2        24     9      180.000000        0.030306         4
        16         1         2        25     9        0.000000        0.032030         1
        16         1         2        25     9      180.000000       -0.145876         2
        16         1         2        25     9        0.000000        0.433013         3
        16         1         2        25     9      180.000000        0.030306         4
        16         1         6        30     9        0.000000        0.032030         1
        16         1         6        30     9      180.000000       -0.145876         2
        16         1         6        30     9        0.000000        0.433013         3
        16         1         6        30     9      180.000000        0.030306         4
        16         1         6        31     9        0.000000        0.032030         1
        16         1         6        31     9      180.000000       -0.145876         2
        16         1         6        31     9        0.000000        0.433013         3
        16         1         6        31     9      180.000000        0.030306         4
        16        15        14        44     9        0.000000        0.262858         1
        16        15        14        44     9      180.000000       17.937158         2
        16        15        14        44     9        0.000000       -0.097301         3
        16        15        14        44     9      180.000000       -0.196738         4
        16        17        18        21     9        0.000000       -0.393823         1
        16        17        18        21     9      180.000000       23.357948         2
        16        17        18        21     9        0.000000        0.081141         3
        16        17        18        21     9      180.000000       -0.889915         4
        17        18        21        35     9        0.000000        2.747967         1
        17        18        21        35     9      180.000000        9.878381         2
        17        18        21        35     9        0.000000       -0.355740         3
        17        18        21        35     9      180.000000        0.183634         4
        17        18        21        36     9        0.000000        2.747967         1
        17        18        21        36     9      180.000000        9.878381         2
        17        18        21        36     9        0.000000       -0.355740         3
        17        18        21        36     9      180.000000        0.183634         4
        18        13        14        44     9        0.000000        0.299319         1
        18        13        14        44     9      180.000000       14.630668         2
        18        13        14        44     9        0.000000       -0.655936         3
        18        13        14        44     9      180.000000        0.020204         4
        19         9         8        20     9        0.000000       -0.201859         1
        19         9         8        20     9      180.000000       18.685505         2
        19         9         8        20     9        0.000000        0.290840         3
        19         9         8        20     9      180.000000       -0.946051         4
        19         9        10        32     9        0.000000        0.185749         1
        19         9        10        32     9      180.000000       13.988529         2
        19         9        10        32     9        0.000000       -0.064560         3
        19         9        10        32     9      180.000000        0.157609         4
        22         4         3        26     9        0.000000       -0.210419         1
        22         4         3        26     9      180.000000        0.059164         2
        22         4         3        26     9        0.000000        0.534105         3
        22         4         3        26     9      180.000000       -0.079644         4
        22         4         3        27     9        0.000000       -0.210419         1
        22         4         3        27     9      180.000000        0.059164         2
        22         4         3        27     9        0.000000        0.534105         3
        22         4         3        27     9      180.000000       -0.079644         4
        22         4         5        28     9        0.000000       -0.210419         1
        22         4         5        28     9      180.000000        0.059164         2
        22         4         5        28     9        0.000000        0.534105         3
        22         4         5        28     9      180.000000       -0.079644         4
        22         4         5        29     9        0.000000       -0.210419         1
        22         4         5        29     9      180.000000        0.059164         2
        22         4         5        29     9        0.000000        0.534105         3
        22         4         5        29     9      180.000000       -0.079644         4
        22         4        23        38     9        0.000000       -0.256018         1
        22         4        23        38     9      180.000000       -0.145324         2
        22         4        23        38     9        0.000000        0.609263         3
        22         4        23        38     9      180.000000        0.002710         4
        22         4        23        39     9        0.000000       -0.256018         1
        22         4        23        39     9      180.000000       -0.145324         2
        22         4        23        39     9        0.000000        0.609263         3
        22         4        23        39     9      180.000000        0.002710         4
        22         4        23        40     9        0.000000       -0.256018         1
        22         4        23        40     9      180.000000       -0.145324         2
        22         4        23        40     9        0.000000        0.609263         3
        22         4        23        40     9      180.000000        0.002710         4
        23         4         3        26     9        0.000000        0.057706         1
        23         4         3        26     9      180.000000        0.007075         2
        23         4         3        26     9        0.000000        0.458867         3
        23         4         3        26     9      180.000000        0.000801         4
        23         4         3        27     9        0.000000        0.057706         1
        23         4         3        27     9      180.000000        0.007075         2
        23         4         3        27     9        0.000000        0.458867         3
        23         4         3        27     9      180.000000        0.000801         4
        23         4         5        28     9        0.000000        0.057706         1
        23         4         5        28     9      180.000000        0.007075         2
        23         4         5        28     9        0.000000        0.458867         3
        23         4         5        28     9      180.000000        0.000801         4
        23         4         5        29     9        0.000000        0.057706         1
        23         4         5        29     9      180.000000        0.007075         2
        23         4         5        29     9        0.000000        0.458867         3
        23         4         5        29     9      180.000000        0.000801         4
        23         4        22        37     9        0.000000       -0.241238         1
        23         4        22        37     9      180.000000        0.219200         2
        23         4        22        37     9        0.000000        0.596224         3
        23         4        22        37     9      180.000000        0.018226         4
        23         4        22        41     9        0.000000       -0.241238         1
        23         4        22        41     9      180.000000        0.219200         2
        23         4        22        41     9        0.000000        0.596224         3
        23         4        22        41     9      180.000000        0.018226         4
        23         4        22        43     9        0.000000       -0.241238         1
        23         4        22        43     9      180.000000        0.219200         2
        23         4        22        43     9        0.000000        0.596224         3
        23         4        22        43     9      180.000000        0.018226         4
        24         2         3        26     9        0.000000        0.004304         1
        24         2         3        26     9      180.000000        0.029400         2
        24         2         3        26     9        0.000000        0.385600         3
        24         2         3        26     9      180.000000        0.001531         4
        24         2         3        27     9        0.000000        0.004304         1
        24         2         3        27     9      180.000000        0.029400         2
        24         2         3        27     9        0.000000        0.385600         3
        24         2         3        27     9      180.000000        0.001531         4
        25         2         3        26     9        0.000000        0.004304         1
        25         2         3        26     9      180.000000        0.029400         2
        25         2         3        26     9        0.000000        0.385600         3
        25         2         3        26     9      180.000000        0.001531         4
        25         2         3        27     9        0.000000        0.004304         1
        25         2         3        27     9      180.000000        0.029400         2
        25         2         3        27     9        0.000000        0.385600         3
        25         2         3        27     9      180.000000        0.001531         4
        28         5         6        30     9        0.000000        0.004304         1
        28         5         6        30     9      180.000000        0.029400         2
        28         5         6        30     9        0.000000        0.385600         3
        28         5         6        30     9      180.000000        0.001531         4
        28         5         6        31     9        0.000000        0.004304         1
        28         5         6        31     9      180.000000        0.029400         2
        28         5         6        31     9        0.000000        0.385600         3
        28         5         6        31     9      180.000000        0.001531         4
        29         5         6        30     9        0.000000        0.004304         1
        29         5         6        30     9      180.000000        0.029400         2
        29         5         6        30     9        0.000000        0.385600         3
        29         5         6        30     9      180.000000        0.001531         4
        29         5         6        31     9        0.000000        0.004304         1
        29         5         6        31     9      180.000000        0.029400         2
        29         5         6        31     9        0.000000        0.385600         3
        29         5         6        31     9      180.000000        0.001531         4
        32        10        11        33     9        0.000000       -0.021541         1
        32        10        11        33     9      180.000000       14.500675         2
        32        10        11        33     9        0.000000        0.077944         3
        32        10        11        33     9      180.000000        0.161299         4
        33        11        12        34     9        0.000000       -0.076881         1
        33        11        12        34     9      180.000000       15.178402         2
        33        11        12        34     9        0.000000        0.185197         3
        33        11        12        34     9      180.000000        0.091098         4

[ dihedrals ] ; impropers
;       ai        aj        ak        al funct           phase               k        pn
        11        10        12        33     4      180.000000        0.723243         2
        11        12        33        10     4      180.000000        0.723243         2
        11        33        10        12     4      180.000000        0.723243         2
        14        13        15        44     4      180.000000        8.849976         2
        14        15        44        13     4      180.000000        8.849976         2
        14        44        13        15     4      180.000000        8.849976         2
        16         1        15        17     4      180.000000       27.893333         2
        16        15        17         1     4      180.000000       27.893333         2
        16        17         1        15     4      180.000000       27.893333         2

[ pairs ]
;       ai        aj funct
         1         4     1
         1        14     1
         1        18     1
         1        26     1
         1        27     1
         1        28     1
         1        29     1
         2         5     1
         2        15     1
         2        17     1
         2        22     1
         2        23     1
         2        30     1
         2        31     1
         3         6     1
         3        16     1
         3        28     1
         3        29     1
         3        37     1
         3        38     1
         3        39     1
         3        40     1
         3        41     1
         3        43     1
         4        24     1
         4        25     1
         4        30     1
         4        31     1
         5        16     1
         5        26     1
         5        27     1
         5        37     1
         5        38     1
         5        39     1
         5        40     1
         5        41     1
         5        43     1
         6        15     1
         6        17     1
         6        22     1
         6        23     1
         6        24     1
         6        25     1
         7        10     1
         7        15     1
         7        17     1
         7        19     1
         7        21     1
         7        33     1
         7        44     1
         8        11     1
         8        14     1
         8        18     1
         8        32     1
         8        34     1
         9        12     1
         9        13     1
         9        33     1
        10        20     1
        10        34     1
        10        42     1
        11        13     1
        11        19     1
        12        14     1
        12        18     1
        12        20     1
        12        32     1
        12        42     1
        13        16     1
        13        20     1
        13        34     1
        13        35     1
        13        36     1
        14        17     1
        14        21     1
        15        18     1
        16        21     1
        16        24     1
        16        25     1
        16        30     1
        16        31     1
        16        44     1
        17        35     1
        17        36     1
        18        44     1
        19        20     1
        19        32     1
        22        26     1
        22        27     1
        22        28     1
        22        29     1
        22        38     1
        22        39     1
        22        40     1
        23        26     1
        23        27     1
        23        28     1
        23        29     1
        23        37     1
        23        41     1
        23        43     1
        24        26     1
        24        27     1
        25        26     1
        25        27     1
        28        30     1
        28        31     1
        29        30     1
        29        31     1
        32        33     1
        33        34     1
