; ITP file created by ByteFF-ML, 2026-02-21 07:46:44.252423

[ atomtypes ]
;name           bonded.type        at.num        mass        charge   ptype           sigma         epsilon
 n0bf                                   7      0.0000       0.00000       A     3.19109e-01     9.04617e-01
 c1bf                                   6      0.0000       0.00000       A     3.39718e-01     4.50513e-01
 c2bf                                   6      0.0000       0.00000       A     3.39737e-01     4.52316e-01
 c3bf                                   6      0.0000       0.00000       A     3.39953e-01     4.42911e-01
 c4bf                                   6      0.0000       0.00000       A     3.39737e-01     4.52316e-01
 c5bf                                   6      0.0000       0.00000       A     3.39718e-01     4.50513e-01
 c6bf                                   6      0.0000       0.00000       A     3.31663e-01     4.11093e-01
 c7bf                                   6      0.0000       0.00000       A     3.31515e-01     4.14506e-01
 c8bf                                   6      0.0000       0.00000       A     3.31527e-01     4.12656e-01
 c9bf                                   6      0.0000       0.00000       A     3.31490e-01     4.12710e-01
 c10bf                                  6      0.0000       0.00000       A     3.31465e-01     4.13235e-01
 c11bf                                  6      0.0000       0.00000       A     3.31467e-01     4.12831e-01
 c12bf                                  6      0.0000       0.00000       A     3.31712e-01     4.13352e-01
 n13bf                                  7      0.0000       0.00000       A     3.38456e-01     3.89553e-01
 c14bf                                  6      0.0000       0.00000       A     3.32126e-01     4.03876e-01
 c15bf                                  6      0.0000       0.00000       A     3.31787e-01     4.09733e-01
 n16bf                                  7      0.0000       0.00000       A     3.38240e-01     3.90458e-01
 c17bf                                  6      0.0000       0.00000       A     3.31259e-01     4.12913e-01
 cl18bf                                17      0.0000       0.00000       A     3.46745e-01     1.10550e+00
 cl19bf                                17      0.0000       0.00000       A     3.46725e-01     1.10759e+00
 n20bf                                  7      0.0000       0.00000       A     3.36721e-01     4.64006e-01
 c21bf                                  6      0.0000       0.00000       A     3.39520e-01     4.49397e-01
 n22bf                                  7      0.0000       0.00000       A     2.76368e-01     4.74797e+00
 c23bf                                  6      0.0000       0.00000       A     3.31396e-01     4.11392e-01
 n24bf                                  7      0.0000       0.00000       A     3.35730e-01     3.53266e-01
 o25bf                                  8      0.0000       0.00000       A     3.04646e-01     6.16354e-01
 h26bf                                  1      0.0000       0.00000       A     2.42252e-01     8.65900e-02
 h27bf                                  1      0.0000       0.00000       A     2.42252e-01     8.65900e-02
 h28bf                                  1      0.0000       0.00000       A     2.59993e-01     8.73289e-02
 h29bf                                  1      0.0000       0.00000       A     2.59993e-01     8.73289e-02
 h30bf                                  1      0.0000       0.00000       A     2.59993e-01     8.73289e-02
 h31bf                                  1      0.0000       0.00000       A     2.59993e-01     8.73289e-02
 h32bf                                  1      0.0000       0.00000       A     2.42252e-01     8.65900e-02
 h33bf                                  1      0.0000       0.00000       A     2.42252e-01     8.65900e-02
 h34bf                                  1      0.0000       0.00000       A     2.62433e-01     6.69663e-02
 h35bf                                  1      0.0000       0.00000       A     2.62502e-01     6.73461e-02
 h36bf                                  1      0.0000       0.00000       A     2.62496e-01     6.73046e-02
 h37bf                                  1      0.0000       0.00000       A     1.10348e-01     4.18186e-02
 h38bf                                  1      0.0000       0.00000       A     1.10348e-01     4.18186e-02
 h39bf                                  1      0.0000       0.00000       A     1.10378e-01     4.09950e-02
 h40bf                                  1      0.0000       0.00000       A     1.10378e-01     4.09950e-02
 h41bf                                  1      0.0000       0.00000       A     1.10628e-01     4.12153e-02
 h42bf                                  1      0.0000       0.00000       A     1.10628e-01     4.12153e-02
 h43bf                                  1      0.0000       0.00000       A     1.10628e-01     4.12153e-02
 h44bf                                  1      0.0000       0.00000       A     2.59831e-01     8.81397e-02
 h45bf                                  1      0.0000       0.00000       A     2.59831e-01     8.81397e-02
 h46bf                                  1      0.0000       0.00000       A     2.59831e-01     8.81397e-02

[ moleculetype ]
;name             nrexcl
 Example_26            3

[ atoms ]
;       nr            type      resi   res      atom      cgnr      charge          mass ; qtot
         1            n0bf         1   UNL        n0         1    -0.73890       14.0070 ; qtot   -0.739
         2            c1bf         1   UNL        c1         2     0.21300       12.0110 ; qtot   -0.526
         3            c2bf         1   UNL        c2         3    -0.11697       12.0110 ; qtot   -0.643
         4            c3bf         1   UNL        c3         4     0.17018       12.0110 ; qtot   -0.473
         5            c4bf         1   UNL        c4         5    -0.11697       12.0110 ; qtot   -0.590
         6            c5bf         1   UNL        c5         6     0.21300       12.0110 ; qtot   -0.377
         7            c6bf         1   UNL        c6         7    -0.11905       12.0110 ; qtot   -0.496
         8            c7bf         1   UNL        c7         8     0.13814       12.0110 ; qtot   -0.358
         9            c8bf         1   UNL        c8         9     0.12141       12.0110 ; qtot   -0.236
        10            c9bf         1   UNL        c9        10    -0.08482       12.0110 ; qtot   -0.321
        11           c10bf         1   UNL       c10        11    -0.10472       12.0110 ; qtot   -0.426
        12           c11bf         1   UNL       c11        12    -0.07872       12.0110 ; qtot   -0.504
        13           c12bf         1   UNL       c12        13     0.23577       12.0110 ; qtot   -0.269
        14           n13bf         1   UNL       n13        14    -0.53541       14.0070 ; qtot   -0.804
        15           c14bf         1   UNL       c14        15     0.14423       12.0110 ; qtot   -0.660
        16           c15bf         1   UNL       c15        16     0.62357       12.0110 ; qtot   -0.036
        17           n16bf         1   UNL       n16        17    -0.81371       14.0070 ; qtot   -0.850
        18           c17bf         1   UNL       c17        18     0.58927       12.0110 ; qtot   -0.261
        19          cl18bf         1   UNL      cl18        19    -0.17937       35.4530 ; qtot   -0.440
        20          cl19bf         1   UNL      cl19        20    -0.16743       35.4530 ; qtot   -0.608
        21           n20bf         1   UNL       n20        21    -1.00932       14.0070 ; qtot   -1.617
        22           c21bf         1   UNL       c21        22    -0.12370       12.0110 ; qtot   -1.741
        23           n22bf         1   UNL       n22        23    -0.99988       14.0070 ; qtot   -2.740
        24           c23bf         1   UNL       c23        24     0.53450       12.0110 ; qtot   -2.206
        25           n24bf         1   UNL       n24        25    -0.59462       14.0070 ; qtot   -2.801
        26           o25bf         1   UNL       o25        26    -0.60205       15.9990 ; qtot   -3.403
        27           h26bf         1   UNL       h26        27     0.07563        1.0080 ; qtot   -3.327
        28           h27bf         1   UNL       h27        28     0.07563        1.0080 ; qtot   -3.251
        29           h28bf         1   UNL       h28        29     0.08357        1.0080 ; qtot   -3.168
        30           h29bf         1   UNL       h29        30     0.08357        1.0080 ; qtot   -3.084
        31           h30bf         1   UNL       h30        31     0.08357        1.0080 ; qtot   -3.001
        32           h31bf         1   UNL       h31        32     0.08357        1.0080 ; qtot   -2.917
        33           h32bf         1   UNL       h32        33     0.07563        1.0080 ; qtot   -2.841
        34           h33bf         1   UNL       h33        34     0.07563        1.0080 ; qtot   -2.766
        35           h34bf         1   UNL       h34        35     0.13777        1.0080 ; qtot   -2.628
        36           h35bf         1   UNL       h35        36     0.12850        1.0080 ; qtot   -2.500
        37           h36bf         1   UNL       h36        37     0.13319        1.0080 ; qtot   -2.366
        38           h37bf         1   UNL       h37        38     0.46078        1.0080 ; qtot   -1.906
        39           h38bf         1   UNL       h38        39     0.46078        1.0080 ; qtot   -1.445
        40           h39bf         1   UNL       h39        40     0.32897        1.0080 ; qtot   -1.116
        41           h40bf         1   UNL       h40        41     0.32897        1.0080 ; qtot   -0.787
        42           h41bf         1   UNL       h41        42     0.52124        1.0080 ; qtot   -0.266
        43           h42bf         1   UNL       h42        43     0.52124        1.0080 ; qtot    0.256
        44           h43bf         1   UNL       h43        44     0.52124        1.0080 ; qtot    0.777
        45           h44bf         1   UNL       h44        45     0.07436        1.0080 ; qtot    0.851
        46           h45bf         1   UNL       h45        46     0.07436        1.0080 ; qtot    0.926
        47           h46bf         1   UNL       h46        47     0.07437        1.0080 ; qtot    1.000

[ bonds ]
;       ai        aj funct               r               k
         1         2     1        0.146823   184296.696143
         1         6     1        0.146823   184296.696143
         1        16     1        0.137489   295058.545264
         2         3     1        0.154044   171329.360596
         2        27     1        0.109296   300253.738184
         2        28     1        0.109296   300253.738184
         3         4     1        0.153901   170422.116479
         3        29     1        0.109412   300137.442187
         3        30     1        0.109412   300137.442187
         4         5     1        0.153901   170422.116479
         4        22     1        0.152862   185224.395483
         4        23     1        0.155311    81285.066040
         5         6     1        0.154044   171329.360596
         5        31     1        0.109412   300137.442187
         5        32     1        0.109412   300137.442187
         6        33     1        0.109296   300253.738184
         6        34     1        0.109296   300253.738184
         7         8     1        0.140679   262463.668359
         7        12     1        0.140329   285642.936426
         7        13     1        0.148821   208155.864209
         8         9     1        0.140387   278821.693604
         8        20     1        0.174706   154969.317920
         9        10     1        0.139783   293456.602393
         9        19     1        0.174841   155133.981201
        10        11     1        0.139565   310227.205176
        10        35     1        0.108429   326455.884961
        11        12     1        0.139378   319661.558252
        11        36     1        0.108544   323106.182324
        12        37     1        0.108477   323509.413281
        13        14     1        0.132969   323078.500098
        13        18     1        0.142336   224149.755811
        14        15     1        0.133504   320438.065137
        15        16     1        0.143138   220912.799512
        15        24     1        0.151053   163792.644580
        16        17     1        0.135007   279324.238379
        17        18     1        0.133437   322221.857764
        18        21     1        0.138585   299651.343311
        21        38     1        0.101319   418006.447607
        21        39     1        0.101319   418006.447607
        22        45     1        0.109334   304479.006152
        22        46     1        0.109334   304479.006152
        22        47     1        0.109334   304479.006152
        23        42     1        0.102770   380670.861719
        23        43     1        0.102770   380670.861719
        23        44     1        0.102770   380670.861719
        24        25     1        0.136517   317991.405762
        24        26     1        0.123376   592031.862988
        25        40     1        0.101276   422663.880078
        25        41     1        0.101276   422663.829004

[ angles ]
;       ai        aj        ak funct           theta             cth
         1         2         3     1      110.641190      634.855923
         1         2        27     1      109.411499      443.173231
         1         2        28     1      109.411499      443.173231
         1         6         5     1      110.641190      634.855923
         1         6        33     1      109.411499      443.173231
         1         6        34     1      109.411499      443.173231
         1        16        15     1      124.777489      488.189696
         1        16        17     1      116.174545      532.857995
         2         1         6     1      113.564613      490.005352
         2         1        16     1      119.664894      493.125476
         2         3         4     1      111.711571      619.500523
         2         3        29     1      109.262695      500.106141
         2         3        30     1      109.262695      500.106141
         3         2        27     1      110.009071      484.532239
         3         2        28     1      110.009071      484.532239
         3         4         5     1      110.528786      534.982107
         3         4        22     1      112.587425      600.627322
         3         4        23     1      106.622520      675.512469
         4         3        29     1      109.613670      487.526816
         4         3        30     1      109.613670      487.526816
         4         5         6     1      111.711571      619.500523
         4         5        31     1      109.613670      487.526816
         4         5        32     1      109.613670      487.526816
         4        22        45     1      111.123024      496.118936
         4        22        46     1      111.123024      496.118936
         4        22        47     1      111.123024      496.118936
         4        23        42     1      111.194313      445.707438
         4        23        43     1      111.194313      445.707438
         4        23        44     1      111.194313      445.707438
         5         4        22     1      112.587425      600.627322
         5         4        23     1      106.622520      675.512469
         5         6        33     1      110.009071      484.532239
         5         6        34     1      110.009071      484.532239
         6         1        16     1      119.664894      493.125476
         6         5        31     1      109.262695      500.106141
         6         5        32     1      109.262695      500.106141
         7         8         9     1      119.975967      600.603956
         7         8        20     1      120.157433      336.061017
         7        12        11     1      121.026413      700.730301
         7        12        37     1      118.396927      401.089734
         7        13        14     1      117.416870      474.637216
         7        13        18     1      122.317894      466.846706
         8         7        12     1      118.610703      603.351429
         8         7        13     1      122.549362      437.112157
         8         9        10     1      120.349487      591.281123
         8         9        19     1      121.253151      346.786508
         9         8        20     1      120.147606      381.455208
         9        10        11     1      119.701218      613.951309
         9        10        35     1      119.180435      412.481935
        10         9        19     1      118.130531      339.335386
        10        11        12     1      120.050781      736.602725
        10        11        36     1      119.709694      442.443125
        11        10        35     1      121.192947      417.179167
        11        12        37     1      120.517212      416.328781
        12         7        13     1      118.957069      494.593733
        12        11        36     1      120.245544      430.627679
        13        14        15     1      120.366417      624.217163
        13        18        17     1      120.977219      653.290460
        13        18        21     1      122.428329      527.918958
        14        13        18     1      119.327011      730.490035
        14        15        16     1      119.792442      765.500774
        14        15        24     1      114.512375      507.121536
        15        16        17     1      118.635269      650.242031
        15        24        25     1      114.086327      540.311734
        15        24        26     1      123.328720      540.331908
        16        15        24     1      124.553993      628.093888
        16        17        18     1      119.665344      874.949505
        17        18        21     1      117.035828      597.812558
        18        21        38     1      114.356369      466.936788
        18        21        39     1      114.356369      466.936788
        22         4        23     1      106.513611      724.561723
        24        25        40     1      118.055054      461.391660
        24        25        41     1      118.055054      461.391660
        25        24        26     1      122.909409      698.981711
        27         2        28     1      107.320755      347.326203
        29         3        30     1      106.823082      356.804684
        31         5        32     1      106.823082      356.804684
        33         6        34     1      107.320755      347.326203
        38        21        39     1      114.442482      347.937816
        40        25        41     1      120.514725      275.490090
        42        23        43     1      107.909775      400.797366
        42        23        44     1      107.909775      400.797366
        43        23        44     1      107.909775      400.797366
        45        22        46     1      107.934082      360.937929
        45        22        47     1      107.934082      360.937929
        46        22        47     1      107.934082      360.937929

[ dihedrals ] ; propers for gromacs 4.5 or higher, use funct 9
;       ai        aj        ak        al funct           phase               k        pn
         1         2         3         4     9        0.000000        3.037778         1
         1         2         3         4     9      180.000000       -1.829558         2
         1         2         3         4     9        0.000000        0.454760         3
         1         2         3         4     9      180.000000       -0.146938         4
         1         2         3        29     9        0.000000        0.053571         1
         1         2         3        29     9      180.000000       -0.034169         2
         1         2         3        29     9        0.000000        0.423888         3
         1         2         3        29     9      180.000000        0.000051         4
         1         2         3        30     9        0.000000        0.053571         1
         1         2         3        30     9      180.000000       -0.034169         2
         1         2         3        30     9        0.000000        0.423888         3
         1         2         3        30     9      180.000000        0.000051         4
         1         6         5         4     9        0.000000        3.037778         1
         1         6         5         4     9      180.000000       -1.829558         2
         1         6         5         4     9        0.000000        0.454760         3
         1         6         5         4     9      180.000000       -0.146938         4
         1         6         5        31     9        0.000000        0.053571         1
         1         6         5        31     9      180.000000       -0.034169         2
         1         6         5        31     9        0.000000        0.423888         3
         1         6         5        31     9      180.000000        0.000051         4
         1         6         5        32     9        0.000000        0.053571         1
         1         6         5        32     9      180.000000       -0.034169         2
         1         6         5        32     9        0.000000        0.423888         3
         1         6         5        32     9      180.000000        0.000051         4
         1        16        15        14     9        0.000000        1.019367         1
         1        16        15        14     9      180.000000        7.938273         2
         1        16        15        14     9        0.000000        0.327870         3
         1        16        15        14     9      180.000000       -0.968261         4
         1        16        15        24     9        0.000000       -1.029377         1
         1        16        15        24     9      180.000000        8.805203         2
         1        16        15        24     9        0.000000       -0.360395         3
         1        16        15        24     9      180.000000       -0.994584         4
         1        16        17        18     9        0.000000        1.130537         1
         1        16        17        18     9      180.000000       19.363389         2
         1        16        17        18     9        0.000000        0.997344         3
         1        16        17        18     9      180.000000       -1.041153         4
         2         1         6         5     9        0.000000       -0.656117         1
         2         1         6         5     9      180.000000       -0.029350         2
         2         1         6         5     9        0.000000        0.726791         3
         2         1         6         5     9      180.000000        0.029879         4
         2         1         6        33     9        0.000000        0.095103         1
         2         1         6        33     9      180.000000        0.230289         2
         2         1         6        33     9        0.000000        0.822966         3
         2         1         6        33     9      180.000000        0.015767         4
         2         1         6        34     9        0.000000        0.095103         1
         2         1         6        34     9      180.000000        0.230289         2
         2         1         6        34     9        0.000000        0.822966         3
         2         1         6        34     9      180.000000        0.015767         4
         2         1        16        15     9        0.000000        5.933835         1
         2         1        16        15     9      180.000000        8.230097         2
         2         1        16        15     9        0.000000       -0.350997         3
         2         1        16        15     9      180.000000        0.222546         4
         2         1        16        17     9        0.000000       -0.926461         1
         2         1        16        17     9      180.000000        9.544930         2
         2         1        16        17     9        0.000000       -0.910125         3
         2         1        16        17     9      180.000000        0.104448         4
         2         3         4         5     9        0.000000        3.083187         1
         2         3         4         5     9      180.000000       -1.706098         2
         2         3         4         5     9        0.000000        0.132590         3
         2         3         4         5     9      180.000000        0.023549         4
         2         3         4        22     9        0.000000       -2.167449         1
         2         3         4        22     9      180.000000        0.993407         2
         2         3         4        22     9        0.000000        0.297939         3
         2         3         4        22     9      180.000000        0.038474         4
         2         3         4        23     9        0.000000        3.674476         1
         2         3         4        23     9      180.000000       -1.394214         2
         2         3         4        23     9        0.000000        0.506174         3
         2         3         4        23     9      180.000000        0.391027         4
         3         2         1         6     9        0.000000       -0.656117         1
         3         2         1         6     9      180.000000       -0.029350         2
         3         2         1         6     9        0.000000        0.726791         3
         3         2         1         6     9      180.000000        0.029879         4
         3         2         1        16     9        0.000000       -1.618933         1
         3         2         1        16     9      180.000000        1.090519         2
         3         2         1        16     9        0.000000        0.317904         3
         3         2         1        16     9      180.000000        0.017968         4
         3         4         5         6     9        0.000000        3.083187         1
         3         4         5         6     9      180.000000       -1.706098         2
         3         4         5         6     9        0.000000        0.132590         3
         3         4         5         6     9      180.000000        0.023549         4
         3         4         5        31     9        0.000000        0.007175         1
         3         4         5        31     9      180.000000        0.103972         2
         3         4         5        31     9        0.000000        0.342335         3
         3         4         5        31     9      180.000000       -0.008057         4
         3         4         5        32     9        0.000000        0.007175         1
         3         4         5        32     9      180.000000        0.103972         2
         3         4         5        32     9        0.000000        0.342335         3
         3         4         5        32     9      180.000000       -0.008057         4
         3         4        22        45     9        0.000000        0.001962         1
         3         4        22        45     9      180.000000        0.017089         2
         3         4        22        45     9        0.000000        0.502027         3
         3         4        22        45     9      180.000000        0.013943         4
         3         4        22        46     9        0.000000        0.001962         1
         3         4        22        46     9      180.000000        0.017089         2
         3         4        22        46     9        0.000000        0.502027         3
         3         4        22        46     9      180.000000        0.013943         4
         3         4        22        47     9        0.000000        0.001962         1
         3         4        22        47     9      180.000000        0.017089         2
         3         4        22        47     9        0.000000        0.502027         3
         3         4        22        47     9      180.000000        0.013943         4
         3         4        23        42     9        0.000000        0.062222         1
         3         4        23        42     9      180.000000        0.164656         2
         3         4        23        42     9        0.000000        0.559492         3
         3         4        23        42     9      180.000000        0.034876         4
         3         4        23        43     9        0.000000        0.062222         1
         3         4        23        43     9      180.000000        0.164656         2
         3         4        23        43     9        0.000000        0.559492         3
         3         4        23        43     9      180.000000        0.034876         4
         3         4        23        44     9        0.000000        0.062222         1
         3         4        23        44     9      180.000000        0.164656         2
         3         4        23        44     9        0.000000        0.559492         3
         3         4        23        44     9      180.000000        0.034876         4
         4         3         2        27     9        0.000000       -0.131714         1
         4         3         2        27     9      180.000000       -0.003585         2
         4         3         2        27     9        0.000000        0.408229         3
         4         3         2        27     9      180.000000        0.012732         4
         4         3         2        28     9        0.000000       -0.131714         1
         4         3         2        28     9      180.000000       -0.003585         2
         4         3         2        28     9        0.000000        0.408229         3
         4         3         2        28     9      180.000000        0.012732         4
         4         5         6        33     9        0.000000       -0.131714         1
         4         5         6        33     9      180.000000       -0.003585         2
         4         5         6        33     9        0.000000        0.408229         3
         4         5         6        33     9      180.000000        0.012732         4
         4         5         6        34     9        0.000000       -0.131714         1
         4         5         6        34     9      180.000000       -0.003585         2
         4         5         6        34     9        0.000000        0.408229         3
         4         5         6        34     9      180.000000        0.012732         4
         5         4         3        29     9        0.000000        0.007175         1
         5         4         3        29     9      180.000000        0.103972         2
         5         4         3        29     9        0.000000        0.342335         3
         5         4         3        29     9      180.000000       -0.008057         4
         5         4         3        30     9        0.000000        0.007175         1
         5         4         3        30     9      180.000000        0.103972         2
         5         4         3        30     9        0.000000        0.342335         3
         5         4         3        30     9      180.000000       -0.008057         4
         5         4        22        45     9        0.000000        0.001962         1
         5         4        22        45     9      180.000000        0.017089         2
         5         4        22        45     9        0.000000        0.502027         3
         5         4        22        45     9      180.000000        0.013943         4
         5         4        22        46     9        0.000000        0.001962         1
         5         4        22        46     9      180.000000        0.017089         2
         5         4        22        46     9        0.000000        0.502027         3
         5         4        22        46     9      180.000000        0.013943         4
         5         4        22        47     9        0.000000        0.001962         1
         5         4        22        47     9      180.000000        0.017089         2
         5         4        22        47     9        0.000000        0.502027         3
         5         4        22        47     9      180.000000        0.013943         4
         5         4        23        42     9        0.000000        0.062222         1
         5         4        23        42     9      180.000000        0.164656         2
         5         4        23        42     9        0.000000        0.559492         3
         5         4        23        42     9      180.000000        0.034876         4
         5         4        23        43     9        0.000000        0.062222         1
         5         4        23        43     9      180.000000        0.164656         2
         5         4        23        43     9        0.000000        0.559492         3
         5         4        23        43     9      180.000000        0.034876         4
         5         4        23        44     9        0.000000        0.062222         1
         5         4        23        44     9      180.000000        0.164656         2
         5         4        23        44     9        0.000000        0.559492         3
         5         4        23        44     9      180.000000        0.034876         4
         5         6         1        16     9        0.000000       -1.618933         1
         5         6         1        16     9      180.000000        1.090519         2
         5         6         1        16     9        0.000000        0.317904         3
         5         6         1        16     9      180.000000        0.017968         4
         6         1         2        27     9        0.000000        0.095103         1
         6         1         2        27     9      180.000000        0.230289         2
         6         1         2        27     9        0.000000        0.822966         3
         6         1         2        27     9      180.000000        0.015767         4
         6         1         2        28     9        0.000000        0.095103         1
         6         1         2        28     9      180.000000        0.230289         2
         6         1         2        28     9        0.000000        0.822966         3
         6         1         2        28     9      180.000000        0.015767         4
         6         1        16        15     9        0.000000        5.933835         1
         6         1        16        15     9      180.000000        8.230097         2
         6         1        16        15     9        0.000000       -0.350997         3
         6         1        16        15     9      180.000000        0.222546         4
         6         1        16        17     9        0.000000       -0.926461         1
         6         1        16        17     9      180.000000        9.544930         2
         6         1        16        17     9        0.000000       -0.910125         3
         6         1        16        17     9      180.000000        0.104448         4
         6         5         4        22     9        0.000000       -2.167449         1
         6         5         4        22     9      180.000000        0.993407         2
         6         5         4        22     9        0.000000        0.297939         3
         6         5         4        22     9      180.000000        0.038474         4
         6         5         4        23     9        0.000000        3.674476         1
         6         5         4        23     9      180.000000       -1.394214         2
         6         5         4        23     9        0.000000        0.506174         3
         6         5         4        23     9      180.000000        0.391027         4
         7         8         9        10     9        0.000000       -0.018362         1
         7         8         9        10     9      180.000000       16.544610         2
         7         8         9        10     9        0.000000       -1.005365         3
         7         8         9        10     9      180.000000       -0.410420         4
         7         8         9        19     9        0.000000        0.190641         1
         7         8         9        19     9      180.000000       16.461921         2
         7         8         9        19     9        0.000000        0.045713         3
         7         8         9        19     9      180.000000       -0.539987         4
         7        12        11        10     9        0.000000       -0.005103         1
         7        12        11        10     9      180.000000       18.963255         2
         7        12        11        10     9        0.000000       -1.595357         3
         7        12        11        10     9      180.000000       -0.487847         4
         7        12        11        36     9        0.000000       -0.010116         1
         7        12        11        36     9      180.000000       14.597815         2
         7        12        11        36     9        0.000000       -0.754593         3
         7        12        11        36     9      180.000000        0.020577         4
         7        13        14        15     9        0.000000       -0.350851         1
         7        13        14        15     9      180.000000       23.198539         2
         7        13        14        15     9        0.000000        0.580907         3
         7        13        14        15     9      180.000000       -1.034509         4
         7        13        18        17     9        0.000000       -0.260415         1
         7        13        18        17     9      180.000000        9.002060         2
         7        13        18        17     9        0.000000        0.078208         3
         7        13        18        17     9      180.000000       -0.613635         4
         7        13        18        21     9        0.000000        0.482001         1
         7        13        18        21     9      180.000000       13.338673         2
         7        13        18        21     9        0.000000        0.212161         3
         7        13        18        21     9      180.000000       -0.650256         4
         8         7        12        11     9        0.000000       -0.046758         1
         8         7        12        11     9      180.000000       18.548620         2
         8         7        12        11     9        0.000000       -1.536540         3
         8         7        12        11     9      180.000000       -0.376493         4
         8         7        12        37     9        0.000000        0.030421         1
         8         7        12        37     9      180.000000       14.284884         2
         8         7        12        37     9        0.000000       -0.630256         3
         8         7        12        37     9      180.000000        0.116378         4
         8         7        13        14     9        0.000000       -3.393210         1
         8         7        13        14     9      180.000000        2.782619         2
         8         7        13        14     9        0.000000        0.539949         3
         8         7        13        14     9      180.000000       -0.231167         4
         8         7        13        18     9        0.000000        2.805503         1
         8         7        13        18     9      180.000000       -0.736510         2
         8         7        13        18     9        0.000000        0.599338         3
         8         7        13        18     9      180.000000       -0.014369         4
         8         9        10        11     9        0.000000        0.014733         1
         8         9        10        11     9      180.000000       17.989214         2
         8         9        10        11     9        0.000000       -1.144844         3
         8         9        10        11     9      180.000000       -0.419331         4
         8         9        10        35     9        0.000000        0.118544         1
         8         9        10        35     9      180.000000       13.407008         2
         8         9        10        35     9        0.000000       -0.432892         3
         8         9        10        35     9      180.000000        0.071731         4
         9         8         7        12     9        0.000000       -0.148998         1
         9         8         7        12     9      180.000000       17.298529         2
         9         8         7        12     9        0.000000       -1.262424         3
         9         8         7        12     9      180.000000       -0.508343         4
         9         8         7        13     9        0.000000        0.163232         1
         9         8         7        13     9      180.000000       13.246629         2
         9         8         7        13     9        0.000000       -0.306207         3
         9         8         7        13     9      180.000000       -0.278955         4
         9        10        11        12     9        0.000000       -0.015052         1
         9        10        11        12     9      180.000000       18.787087         2
         9        10        11        12     9        0.000000       -1.441663         3
         9        10        11        12     9      180.000000       -0.417482         4
         9        10        11        36     9        0.000000        0.039096         1
         9        10        11        36     9      180.000000       14.176347         2
         9        10        11        36     9        0.000000       -0.528023         3
         9        10        11        36     9      180.000000        0.072992         4
        10         9         8        20     9        0.000000        0.138716         1
        10         9         8        20     9      180.000000       17.502714         2
        10         9         8        20     9        0.000000        0.086590         3
        10         9         8        20     9      180.000000       -0.504530         4
        10        11        12        37     9        0.000000        0.056213         1
        10        11        12        37     9      180.000000       14.986210         2
        10        11        12        37     9        0.000000       -0.720986         3
        10        11        12        37     9      180.000000        0.071359         4
        11        10         9        19     9        0.000000        0.378297         1
        11        10         9        19     9      180.000000       19.840271         2
        11        10         9        19     9        0.000000        0.460777         3
        11        10         9        19     9      180.000000       -0.662431         4
        11        12         7        13     9        0.000000        0.243349         1
        11        12         7        13     9      180.000000       16.726905         2
        11        12         7        13     9        0.000000       -0.076102         3
        11        12         7        13     9      180.000000       -0.298916         4
        12         7         8        20     9        0.000000        0.458364         1
        12         7         8        20     9      180.000000       18.796739         2
        12         7         8        20     9        0.000000        0.254020         3
        12         7         8        20     9      180.000000       -0.869410         4
        12         7        13        14     9        0.000000        0.911312         1
        12         7        13        14     9      180.000000        3.276605         2
        12         7        13        14     9        0.000000        0.035752         3
        12         7        13        14     9      180.000000       -0.023696         4
        12         7        13        18     9        0.000000       -0.249733         1
        12         7        13        18     9      180.000000        1.479022         2
        12         7        13        18     9        0.000000       -0.188378         3
        12         7        13        18     9      180.000000        0.058489         4
        12        11        10        35     9        0.000000        0.071283         1
        12        11        10        35     9      180.000000       14.058772         2
        12        11        10        35     9        0.000000       -0.744499         3
        12        11        10        35     9      180.000000        0.124991         4
        13         7         8        20     9        0.000000        0.134713         1
        13         7         8        20     9      180.000000       16.144894         2
        13         7         8        20     9        0.000000        0.259344         3
        13         7         8        20     9      180.000000       -0.788578         4
        13         7        12        37     9        0.000000       -0.035473         1
        13         7        12        37     9      180.000000       13.180681         2
        13         7        12        37     9        0.000000       -0.378918         3
        13         7        12        37     9      180.000000        0.186295         4
        13        14        15        16     9        0.000000       -0.907669         1
        13        14        15        16     9      180.000000       21.432390         2
        13        14        15        16     9        0.000000       -0.769061         3
        13        14        15        16     9      180.000000       -0.371520         4
        13        14        15        24     9        0.000000        0.886598         1
        13        14        15        24     9      180.000000       17.956480         2
        13        14        15        24     9        0.000000        0.925938         3
        13        14        15        24     9      180.000000       -1.118479         4
        13        18        17        16     9        0.000000       -0.012528         1
        13        18        17        16     9      180.000000       19.633109         2
        13        18        17        16     9        0.000000       -0.490117         3
        13        18        17        16     9      180.000000       -0.248237         4
        13        18        21        38     9        0.000000       -1.899626         1
        13        18        21        38     9      180.000000        7.063327         2
        13        18        21        38     9        0.000000        0.129649         3
        13        18        21        38     9      180.000000        0.452432         4
        13        18        21        39     9        0.000000       -1.899626         1
        13        18        21        39     9      180.000000        7.063327         2
        13        18        21        39     9        0.000000        0.129649         3
        13        18        21        39     9      180.000000        0.452432         4
        14        13        18        17     9        0.000000       -1.376185         1
        14        13        18        17     9      180.000000        9.030173         2
        14        13        18        17     9        0.000000        0.152569         3
        14        13        18        17     9      180.000000       -0.912559         4
        14        13        18        21     9        0.000000        0.743913         1
        14        13        18        21     9      180.000000       14.116148         2
        14        13        18        21     9        0.000000       -0.064635         3
        14        13        18        21     9      180.000000       -1.052461         4
        14        15        16        17     9        0.000000       -2.838999         1
        14        15        16        17     9      180.000000        4.983091         2
        14        15        16        17     9        0.000000        0.219733         3
        14        15        16        17     9      180.000000       -0.680576         4
        14        15        24        25     9        0.000000        4.930034         1
        14        15        24        25     9      180.000000        2.686342         2
        14        15        24        25     9        0.000000        0.151168         3
        14        15        24        25     9      180.000000        0.092007         4
        14        15        24        26     9        0.000000       -5.163697         1
        14        15        24        26     9      180.000000        3.045046         2
        14        15        24        26     9        0.000000        0.910867         3
        14        15        24        26     9      180.000000       -0.058017         4
        15        14        13        18     9        0.000000        0.758650         1
        15        14        13        18     9      180.000000       18.475967         2
        15        14        13        18     9        0.000000       -0.466325         3
        15        14        13        18     9      180.000000       -0.277270         4
        15        16        17        18     9        0.000000        1.539764         1
        15        16        17        18     9      180.000000       12.116359         2
        15        16        17        18     9        0.000000        0.558776         3
        15        16        17        18     9      180.000000       -0.620099         4
        15        24        25        40     9        0.000000        0.931900         1
        15        24        25        40     9      180.000000        9.523696         2
        15        24        25        40     9        0.000000        0.167908         3
        15        24        25        40     9      180.000000       -1.552824         4
        15        24        25        41     9        0.000000        0.931900         1
        15        24        25        41     9      180.000000        9.523696         2
        15        24        25        41     9        0.000000        0.167908         3
        15        24        25        41     9      180.000000       -1.552824         4
        16         1         2        27     9        0.000000        0.111631         1
        16         1         2        27     9      180.000000       -0.028670         2
        16         1         2        27     9        0.000000        0.273853         3
        16         1         2        27     9      180.000000       -0.016470         4
        16         1         2        28     9        0.000000        0.111631         1
        16         1         2        28     9      180.000000       -0.028670         2
        16         1         2        28     9        0.000000        0.273853         3
        16         1         2        28     9      180.000000       -0.016470         4
        16         1         6        33     9        0.000000        0.111631         1
        16         1         6        33     9      180.000000       -0.028670         2
        16         1         6        33     9        0.000000        0.273853         3
        16         1         6        33     9      180.000000       -0.016470         4
        16         1         6        34     9        0.000000        0.111631         1
        16         1         6        34     9      180.000000       -0.028670         2
        16         1         6        34     9        0.000000        0.273853         3
        16         1         6        34     9      180.000000       -0.016470         4
        16        15        24        25     9        0.000000       -0.401984         1
        16        15        24        25     9      180.000000        4.241065         2
        16        15        24        25     9        0.000000        0.412736         3
        16        15        24        25     9      180.000000        0.088695         4
        16        15        24        26     9        0.000000       -6.662846         1
        16        15        24        26     9      180.000000        4.688797         2
        16        15        24        26     9        0.000000       -0.070089         3
        16        15        24        26     9      180.000000        0.062334         4
        16        17        18        21     9        0.000000       -0.490726         1
        16        17        18        21     9      180.000000       27.667491         2
        16        17        18        21     9        0.000000        0.768264         3
        16        17        18        21     9      180.000000       -1.019363         4
        17        16        15        24     9        0.000000       -3.409343         1
        17        16        15        24     9      180.000000        5.190522         2
        17        16        15        24     9        0.000000       -1.226888         3
        17        16        15        24     9      180.000000       -0.510404         4
        17        18        21        38     9        0.000000       11.964940         1
        17        18        21        38     9      180.000000        7.944870         2
        17        18        21        38     9        0.000000        0.126937         3
        17        18        21        38     9      180.000000        0.687154         4
        17        18        21        39     9        0.000000       11.964940         1
        17        18        21        39     9      180.000000        7.944870         2
        17        18        21        39     9        0.000000        0.126937         3
        17        18        21        39     9      180.000000        0.687154         4
        19         9         8        20     9        0.000000       -0.205349         1
        19         9         8        20     9      180.000000       19.002199         2
        19         9         8        20     9        0.000000        0.253249         3
        19         9         8        20     9      180.000000       -1.011539         4
        19         9        10        35     9        0.000000        0.106997         1
        19         9        10        35     9      180.000000       13.913808         2
        19         9        10        35     9        0.000000       -0.103000         3
        19         9        10        35     9      180.000000        0.172748         4
        22         4         3        29     9        0.000000        0.063473         1
        22         4         3        29     9      180.000000        0.001370         2
        22         4         3        29     9        0.000000        0.453990         3
        22         4         3        29     9      180.000000        0.000725         4
        22         4         3        30     9        0.000000        0.063473         1
        22         4         3        30     9      180.000000        0.001370         2
        22         4         3        30     9        0.000000        0.453990         3
        22         4         3        30     9      180.000000        0.000725         4
        22         4         5        31     9        0.000000        0.063473         1
        22         4         5        31     9      180.000000        0.001370         2
        22         4         5        31     9        0.000000        0.453990         3
        22         4         5        31     9      180.000000        0.000725         4
        22         4         5        32     9        0.000000        0.063473         1
        22         4         5        32     9      180.000000        0.001370         2
        22         4         5        32     9        0.000000        0.453990         3
        22         4         5        32     9      180.000000        0.000725         4
        22         4        23        42     9        0.000000       -0.241237         1
        22         4        23        42     9      180.000000        0.219199         2
        22         4        23        42     9        0.000000        0.596224         3
        22         4        23        42     9      180.000000        0.018226         4
        22         4        23        43     9        0.000000       -0.241237         1
        22         4        23        43     9      180.000000        0.219199         2
        22         4        23        43     9        0.000000        0.596224         3
        22         4        23        43     9      180.000000        0.018226         4
        22         4        23        44     9        0.000000       -0.241237         1
        22         4        23        44     9      180.000000        0.219199         2
        22         4        23        44     9        0.000000        0.596224         3
        22         4        23        44     9      180.000000        0.018226         4
        23         4         3        29     9        0.000000       -0.169322         1
        23         4         3        29     9      180.000000        0.053937         2
        23         4         3        29     9        0.000000        0.536176         3
        23         4         3        29     9      180.000000       -0.087261         4
        23         4         3        30     9        0.000000       -0.169322         1
        23         4         3        30     9      180.000000        0.053937         2
        23         4         3        30     9        0.000000        0.536176         3
        23         4         3        30     9      180.000000       -0.087261         4
        23         4         5        31     9        0.000000       -0.169322         1
        23         4         5        31     9      180.000000        0.053937         2
        23         4         5        31     9        0.000000        0.536176         3
        23         4         5        31     9      180.000000       -0.087261         4
        23         4         5        32     9        0.000000       -0.169322         1
        23         4         5        32     9      180.000000        0.053937         2
        23         4         5        32     9        0.000000        0.536176         3
        23         4         5        32     9      180.000000       -0.087261         4
        23         4        22        45     9        0.000000       -0.256018         1
        23         4        22        45     9      180.000000       -0.145326         2
        23         4        22        45     9        0.000000        0.609264         3
        23         4        22        45     9      180.000000        0.002710         4
        23         4        22        46     9        0.000000       -0.256018         1
        23         4        22        46     9      180.000000       -0.145326         2
        23         4        22        46     9        0.000000        0.609264         3
        23         4        22        46     9      180.000000        0.002710         4
        23         4        22        47     9        0.000000       -0.256018         1
        23         4        22        47     9      180.000000       -0.145326         2
        23         4        22        47     9        0.000000        0.609264         3
        23         4        22        47     9      180.000000        0.002710         4
        26        24        25        40     9        0.000000        1.740055         1
        26        24        25        40     9      180.000000       11.277141         2
        26        24        25        40     9        0.000000        0.224616         3
        26        24        25        40     9      180.000000       -1.137001         4
        26        24        25        41     9        0.000000        1.740055         1
        26        24        25        41     9      180.000000       11.277141         2
        26        24        25        41     9        0.000000        0.224616         3
        26        24        25        41     9      180.000000       -1.137001         4
        27         2         3        29     9        0.000000       -0.001028         1
        27         2         3        29     9      180.000000        0.037172         2
        27         2         3        29     9        0.000000        0.416438         3
        27         2         3        29     9      180.000000       -0.001964         4
        27         2         3        30     9        0.000000       -0.001028         1
        27         2         3        30     9      180.000000        0.037172         2
        27         2         3        30     9        0.000000        0.416438         3
        27         2         3        30     9      180.000000       -0.001964         4
        28         2         3        29     9        0.000000       -0.001028         1
        28         2         3        29     9      180.000000        0.037172         2
        28         2         3        29     9        0.000000        0.416438         3
        28         2         3        29     9      180.000000       -0.001964         4
        28         2         3        30     9        0.000000       -0.001028         1
        28         2         3        30     9      180.000000        0.037172         2
        28         2         3        30     9        0.000000        0.416438         3
        28         2         3        30     9      180.000000       -0.001964         4
        31         5         6        33     9        0.000000       -0.001028         1
        31         5         6        33     9      180.000000        0.037172         2
        31         5         6        33     9        0.000000        0.416438         3
        31         5         6        33     9      180.000000       -0.001964         4
        31         5         6        34     9        0.000000       -0.001028         1
        31         5         6        34     9      180.000000        0.037172         2
        31         5         6        34     9        0.000000        0.416438         3
        31         5         6        34     9      180.000000       -0.001964         4
        32         5         6        33     9        0.000000       -0.001028         1
        32         5         6        33     9      180.000000        0.037172         2
        32         5         6        33     9        0.000000        0.416438         3
        32         5         6        33     9      180.000000       -0.001964         4
        32         5         6        34     9        0.000000       -0.001028         1
        32         5         6        34     9      180.000000        0.037172         2
        32         5         6        34     9        0.000000        0.416438         3
        32         5         6        34     9      180.000000       -0.001964         4
        35        10        11        36     9        0.000000       -0.213817         1
        35        10        11        36     9      180.000000       11.349868         2
        35        10        11        36     9        0.000000       -0.597407         3
        35        10        11        36     9      180.000000        0.253272         4
        36        11        12        37     9        0.000000       -0.238171         1
        36        11        12        37     9      180.000000       12.190812         2
        36        11        12        37     9        0.000000       -0.736835         3
        36        11        12        37     9      180.000000        0.271760         4

[ dihedrals ] ; impropers
;       ai        aj        ak        al funct           phase               k        pn
        11        10        12        36     4      180.000000        1.660399         2
        11        12        36        10     4      180.000000        1.660399         2
        11        36        10        12     4      180.000000        1.660399         2
        24        15        25        26     4      180.000000       13.308497         2
        24        25        26        15     4      180.000000       13.308497         2
        24        26        15        25     4      180.000000       13.308497         2

[ pairs ]
;       ai        aj funct
         1         4     1
         1        14     1
         1        18     1
         1        24     1
         1        29     1
         1        30     1
         1        31     1
         1        32     1
         2         5     1
         2        15     1
         2        17     1
         2        22     1
         2        23     1
         2        33     1
         2        34     1
         3         6     1
         3        16     1
         3        31     1
         3        32     1
         3        42     1
         3        43     1
         3        44     1
         3        45     1
         3        46     1
         3        47     1
         4        27     1
         4        28     1
         4        33     1
         4        34     1
         5        16     1
         5        29     1
         5        30     1
         5        42     1
         5        43     1
         5        44     1
         5        45     1
         5        46     1
         5        47     1
         6        15     1
         6        17     1
         6        22     1
         6        23     1
         6        27     1
         6        28     1
         7        10     1
         7        15     1
         7        17     1
         7        19     1
         7        21     1
         7        36     1
         8        11     1
         8        14     1
         8        18     1
         8        35     1
         8        37     1
         9        12     1
         9        13     1
         9        36     1
        10        20     1
        10        37     1
        11        13     1
        11        19     1
        12        14     1
        12        18     1
        12        20     1
        12        35     1
        13        16     1
        13        20     1
        13        24     1
        13        37     1
        13        38     1
        13        39     1
        14        17     1
        14        21     1
        14        25     1
        14        26     1
        15        18     1
        15        40     1
        15        41     1
        16        21     1
        16        25     1
        16        26     1
        16        27     1
        16        28     1
        16        33     1
        16        34     1
        17        24     1
        17        38     1
        17        39     1
        19        20     1
        19        35     1
        22        29     1
        22        30     1
        22        31     1
        22        32     1
        22        42     1
        22        43     1
        22        44     1
        23        29     1
        23        30     1
        23        31     1
        23        32     1
        23        45     1
        23        46     1
        23        47     1
        26        40     1
        26        41     1
        27        29     1
        27        30     1
        28        29     1
        28        30     1
        31        33     1
        31        34     1
        32        33     1
        32        34     1
        35        36     1
        36        37     1
