; ITP file created by ByteFF-ML, 2026-02-21 07:47:27.540807

[ atomtypes ]
;name           bonded.type        at.num        mass        charge   ptype           sigma         epsilon
 n0bf                                   7      0.0000       0.00000       A     3.19026e-01     8.99909e-01
 c1bf                                   6      0.0000       0.00000       A     3.39802e-01     4.51399e-01
 c2bf                                   6      0.0000       0.00000       A     3.39737e-01     4.52316e-01
 c3bf                                   6      0.0000       0.00000       A     3.39953e-01     4.42911e-01
 c4bf                                   6      0.0000       0.00000       A     3.39737e-01     4.52316e-01
 c5bf                                   6      0.0000       0.00000       A     3.39802e-01     4.51399e-01
 c6bf                                   6      0.0000       0.00000       A     3.31223e-01     4.15304e-01
 c7bf                                   6      0.0000       0.00000       A     3.31145e-01     4.12300e-01
 c8bf                                   6      0.0000       0.00000       A     3.31397e-01     4.13218e-01
 c9bf                                   6      0.0000       0.00000       A     3.31509e-01     4.12654e-01
 c10bf                                  6      0.0000       0.00000       A     3.31532e-01     4.13329e-01
 c11bf                                  6      0.0000       0.00000       A     3.31517e-01     4.11679e-01
 c12bf                                  6      0.0000       0.00000       A     3.31208e-01     4.15961e-01
 n13bf                                  7      0.0000       0.00000       A     3.38371e-01     3.91479e-01
 c14bf                                  6      0.0000       0.00000       A     3.31610e-01     4.10951e-01
 c15bf                                  6      0.0000       0.00000       A     3.31347e-01     4.08329e-01
 n16bf                                  7      0.0000       0.00000       A     3.38318e-01     3.92984e-01
 c17bf                                  6      0.0000       0.00000       A     3.31278e-01     4.12538e-01
 n18bf                                  7      0.0000       0.00000       A     3.36746e-01     4.63874e-01
 n19bf                                  7      0.0000       0.00000       A     2.76368e-01     4.74797e+00
 c20bf                                  6      0.0000       0.00000       A     3.39520e-01     4.49397e-01
 c21bf                                  6      0.0000       0.00000       A     3.31368e-01     4.12729e-01
 c22bf                                  6      0.0000       0.00000       A     3.31511e-01     4.12613e-01
 n23bf                                  7      0.0000       0.00000       A     3.20434e-01     8.51779e-01
 h24bf                                  1      0.0000       0.00000       A     2.42252e-01     8.65900e-02
 h25bf                                  1      0.0000       0.00000       A     2.42252e-01     8.65900e-02
 h26bf                                  1      0.0000       0.00000       A     2.59993e-01     8.73289e-02
 h27bf                                  1      0.0000       0.00000       A     2.59993e-01     8.73289e-02
 h28bf                                  1      0.0000       0.00000       A     2.59993e-01     8.73289e-02
 h29bf                                  1      0.0000       0.00000       A     2.59993e-01     8.73289e-02
 h30bf                                  1      0.0000       0.00000       A     2.42252e-01     8.65900e-02
 h31bf                                  1      0.0000       0.00000       A     2.42252e-01     8.65900e-02
 h32bf                                  1      0.0000       0.00000       A     2.62472e-01     6.68577e-02
 h33bf                                  1      0.0000       0.00000       A     2.62486e-01     6.76366e-02
 h34bf                                  1      0.0000       0.00000       A     2.62594e-01     6.75121e-02
 h35bf                                  1      0.0000       0.00000       A     2.53687e-01     6.81841e-02
 h36bf                                  1      0.0000       0.00000       A     1.10348e-01     4.18186e-02
 h37bf                                  1      0.0000       0.00000       A     1.10348e-01     4.18186e-02
 h38bf                                  1      0.0000       0.00000       A     1.10628e-01     4.12153e-02
 h39bf                                  1      0.0000       0.00000       A     1.10628e-01     4.12153e-02
 h40bf                                  1      0.0000       0.00000       A     2.59831e-01     8.81397e-02
 h41bf                                  1      0.0000       0.00000       A     2.59831e-01     8.81397e-02
 h42bf                                  1      0.0000       0.00000       A     2.59831e-01     8.81397e-02
 h43bf                                  1      0.0000       0.00000       A     2.62699e-01     6.73988e-02
 h44bf                                  1      0.0000       0.00000       A     2.53920e-01     6.76318e-02
 h45bf                                  1      0.0000       0.00000       A     1.10724e-01     4.22735e-02
 h46bf                                  1      0.0000       0.00000       A     1.10628e-01     4.12153e-02

[ moleculetype ]
;name             nrexcl
 Example_28            3

[ atoms ]
;       nr            type      resi   res      atom      cgnr      charge          mass ; qtot
         1            n0bf         1   UNL        n0         1    -0.74651       14.0070 ; qtot   -0.747
         2            c1bf         1   UNL        c1         2     0.19684       12.0110 ; qtot   -0.550
         3            c2bf         1   UNL        c2         3    -0.11788       12.0110 ; qtot   -0.668
         4            c3bf         1   UNL        c3         4     0.17018       12.0110 ; qtot   -0.497
         5            c4bf         1   UNL        c4         5    -0.11788       12.0110 ; qtot   -0.615
         6            c5bf         1   UNL        c5         6     0.19684       12.0110 ; qtot   -0.418
         7            c6bf         1   UNL        c6         7    -0.16211       12.0110 ; qtot   -0.581
         8            c7bf         1   UNL        c7         8    -0.02345       12.0110 ; qtot   -0.604
         9            c8bf         1   UNL        c8         9    -0.11485       12.0110 ; qtot   -0.719
        10            c9bf         1   UNL        c9        10    -0.04179       12.0110 ; qtot   -0.761
        11           c10bf         1   UNL       c10        11    -0.15515       12.0110 ; qtot   -0.916
        12           c11bf         1   UNL       c11        12    -0.06639       12.0110 ; qtot   -0.982
        13           c12bf         1   UNL       c12        13     0.29044       12.0110 ; qtot   -0.692
        14           n13bf         1   UNL       n13        14    -0.60048       14.0070 ; qtot   -1.292
        15           c14bf         1   UNL       c14        15     0.19193       12.0110 ; qtot   -1.100
        16           c15bf         1   UNL       c15        16     0.58657       12.0110 ; qtot   -0.514
        17           n16bf         1   UNL       n16        17    -0.79537       14.0070 ; qtot   -1.309
        18           c17bf         1   UNL       c17        18     0.55310       12.0110 ; qtot   -0.756
        19           n18bf         1   UNL       n18        19    -1.00945       14.0070 ; qtot   -1.765
        20           n19bf         1   UNL       n19        20    -0.99988       14.0070 ; qtot   -2.765
        21           c20bf         1   UNL       c20        21    -0.12370       12.0110 ; qtot   -2.889
        22           c21bf         1   UNL       c21        22    -0.23852       12.0110 ; qtot   -3.128
        23           c22bf         1   UNL       c22        23    -0.15528       12.0110 ; qtot   -3.283
        24           n23bf         1   UNL       n23        24    -0.24233       14.0070 ; qtot   -3.525
        25           h24bf         1   UNL       h24        25     0.07540        1.0080 ; qtot   -3.450
        26           h25bf         1   UNL       h25        26     0.07540        1.0080 ; qtot   -3.374
        27           h26bf         1   UNL       h26        27     0.08357        1.0080 ; qtot   -3.291
        28           h27bf         1   UNL       h27        28     0.08357        1.0080 ; qtot   -3.207
        29           h28bf         1   UNL       h28        29     0.08357        1.0080 ; qtot   -3.124
        30           h29bf         1   UNL       h29        30     0.08357        1.0080 ; qtot   -3.040
        31           h30bf         1   UNL       h30        31     0.07540        1.0080 ; qtot   -2.965
        32           h31bf         1   UNL       h31        32     0.07540        1.0080 ; qtot   -2.889
        33           h32bf         1   UNL       h32        33     0.11755        1.0080 ; qtot   -2.772
        34           h33bf         1   UNL       h33        34     0.11576        1.0080 ; qtot   -2.656
        35           h34bf         1   UNL       h34        35     0.12699        1.0080 ; qtot   -2.529
        36           h35bf         1   UNL       h35        36     0.03379        1.0080 ; qtot   -2.495
        37           h36bf         1   UNL       h36        37     0.46107        1.0080 ; qtot   -2.034
        38           h37bf         1   UNL       h37        38     0.46107        1.0080 ; qtot   -1.573
        39           h38bf         1   UNL       h38        39     0.52124        1.0080 ; qtot   -1.052
        40           h39bf         1   UNL       h39        40     0.52124        1.0080 ; qtot   -0.531
        41           h40bf         1   UNL       h40        41     0.07436        1.0080 ; qtot   -0.456
        42           h41bf         1   UNL       h41        42     0.07436        1.0080 ; qtot   -0.382
        43           h42bf         1   UNL       h42        43     0.07436        1.0080 ; qtot   -0.307
        44           h43bf         1   UNL       h43        44     0.20426        1.0080 ; qtot   -0.103
        45           h44bf         1   UNL       h44        45     0.21012        1.0080 ; qtot    0.107
        46           h45bf         1   UNL       h45        46     0.37185        1.0080 ; qtot    0.479
        47           h46bf         1   UNL       h46        47     0.52122        1.0080 ; qtot    1.000

[ bonds ]
;       ai        aj funct               r               k
         1         2     1        0.146511   188836.836670
         1         6     1        0.146511   188836.836670
         1        16     1        0.138186   283235.272217
         2         3     1        0.154085   170874.544678
         2        25     1        0.109330   299344.974609
         2        26     1        0.109330   299344.974609
         3         4     1        0.153901   170422.129248
         3        27     1        0.109412   300137.493262
         3        28     1        0.109412   300137.493262
         4         5     1        0.153901   170422.129248
         4        20     1        0.155311    81285.091577
         4        21     1        0.152862   185224.433789
         5         6     1        0.154085   170874.544678
         5        29     1        0.109412   300137.493262
         5        30     1        0.109412   300137.493262
         6        31     1        0.109330   299344.974609
         6        32     1        0.109330   299344.974609
         7         8     1        0.140949   280270.464893
         7        12     1        0.140260   300838.461377
         7        13     1        0.148349   208597.451904
         8         9     1        0.142653   236443.958691
         8        24     1        0.137973   276926.763477
         9        10     1        0.140711   301455.003809
         9        22     1        0.144003   245965.316699
        10        11     1        0.139314   320949.445752
        10        33     1        0.108645   318390.142187
        11        12     1        0.140644   293468.732520
        11        34     1        0.108609   319383.101611
        12        35     1        0.108454   322800.400977
        13        14     1        0.134302   294413.426807
        13        18     1        0.142915   210747.829736
        14        15     1        0.132519   358748.504639
        15        16     1        0.142366   230839.916650
        15        36     1        0.108570   319169.177246
        16        17     1        0.134446   289275.998828
        17        18     1        0.133526   319927.706006
        18        19     1        0.138631   298282.733008
        19        37     1        0.101346   416882.814795
        19        38     1        0.101346   416882.763721
        20        39     1        0.102770   380670.861719
        20        40     1        0.102770   380670.861719
        20        47     1        0.102770   380670.861719
        21        41     1        0.109334   304479.006152
        21        42     1        0.109334   304479.006152
        21        43     1        0.109334   304479.006152
        22        23     1        0.137606   379901.352002
        22        44     1        0.108168   334837.598389
        23        24     1        0.138490   285590.406592
        23        45     1        0.108155   335945.321582
        24        46     1        0.101378   418083.901660

[ angles ]
;       ai        aj        ak funct           theta             cth
         1         2         3     1      110.490799      649.030359
         1         2        25     1      109.697311      432.006683
         1         2        26     1      109.697311      432.006683
         1         6         5     1      110.490799      649.030359
         1         6        31     1      109.697311      432.006683
         1         6        32     1      109.697311      432.006683
         1        16        15     1      122.760109      569.457492
         1        16        17     1      117.161667      581.567317
         2         1         6     1      114.291527      468.156312
         2         1        16     1      119.183144      534.130668
         2         3         4     1      111.743065      618.441690
         2         3        27     1      109.261940      501.379453
         2         3        28     1      109.261940      501.379453
         3         2        25     1      109.907776      484.800634
         3         2        26     1      109.907776      484.800634
         3         4         5     1      110.528786      534.982107
         3         4        20     1      106.622520      675.512469
         3         4        21     1      112.587425      600.627258
         4         3        27     1      109.613670      487.526816
         4         3        28     1      109.613670      487.526816
         4         5         6     1      111.743065      618.441690
         4         5        29     1      109.613670      487.526816
         4         5        30     1      109.613670      487.526816
         4        20        39     1      111.194313      445.707501
         4        20        40     1      111.194313      445.707501
         4        20        47     1      111.194313      445.707501
         4        21        41     1      111.123024      496.118936
         4        21        42     1      111.123024      496.118936
         4        21        43     1      111.123024      496.118936
         5         4        20     1      106.622520      675.512469
         5         4        21     1      112.587425      600.627258
         5         6        31     1      109.907776      484.800634
         5         6        32     1      109.907776      484.800634
         6         1        16     1      119.183144      534.130668
         6         5        29     1      109.261940      501.379453
         6         5        30     1      109.261940      501.379453
         7         8         9     1      122.585754      602.067870
         7         8        24     1      130.146576      494.436935
         7        12        11     1      122.015099      623.500911
         7        12        35     1      118.874512      417.102459
         7        13        14     1      117.462486      496.241706
         7        13        18     1      123.609413      457.917655
         8         7        12     1      116.248512      787.070438
         8         7        13     1      121.343361      479.355803
         8         9        10     1      119.217606      737.088824
         8         9        22     1      106.699661      270.862255
         8        24        23     1      109.108192      439.083973
         8        24        46     1      122.231422      397.729210
         9         8        24     1      107.514366      203.675429
         9        10        11     1      118.805527      718.699488
         9        10        33     1      120.476273      437.973492
         9        22        23     1      107.042442      424.838895
         9        22        44     1      127.165321      393.314929
        10         9        22     1      134.060577      469.570079
        10        11        12     1      120.994179      674.319439
        10        11        34     1      119.874657      446.223606
        11        10        33     1      120.715775      430.811291
        11        12        35     1      119.328110      421.424934
        12         7        13     1      121.845322      531.351752
        12        11        34     1      119.229576      443.099556
        13        14        15     1      119.934616      673.493952
        13        18        17     1      121.668358      645.890316
        13        18        19     1      122.108932      505.891158
        14        13        18     1      118.556686      720.709003
        14        15        16     1      121.444748      805.043072
        14        15        36     1      116.751137      382.711953
        15        16        17     1      119.288742      595.853989
        16        15        36     1      122.344589      368.998302
        16        17        18     1      118.836349      921.651004
        17        18        19     1      116.656921      613.184557
        18        19        37     1      114.224686      471.473711
        18        19        38     1      114.224686      471.473711
        20         4        21     1      106.513611      724.561723
        22        23        24     1      109.595924      246.771887
        22        23        45     1      130.144165      347.784434
        23        22        44     1      125.849472      395.210900
        23        24        46     1      127.409279      360.594965
        24        23        45     1      120.442101      456.628191
        25         2        26     1      107.284828      347.460113
        27         3        28     1      106.823082      356.804652
        29         5        30     1      106.823082      356.804652
        31         6        32     1      107.284828      347.460113
        37        19        38     1      114.332352      349.254637
        39        20        40     1      107.909775      400.797366
        39        20        47     1      107.909775      400.797366
        40        20        47     1      107.909775      400.797366
        41        21        42     1      107.934097      360.937961
        41        21        43     1      107.934097      360.937961
        42        21        43     1      107.934097      360.937961

[ dihedrals ] ; propers for gromacs 4.5 or higher, use funct 9
;       ai        aj        ak        al funct           phase               k        pn
         1         2         3         4     9        0.000000        3.493938         1
         1         2         3         4     9      180.000000       -1.749451         2
         1         2         3         4     9        0.000000        0.427505         3
         1         2         3         4     9      180.000000       -0.118074         4
         1         2         3        27     9        0.000000       -0.015747         1
         1         2         3        27     9      180.000000       -0.015029         2
         1         2         3        27     9        0.000000        0.410471         3
         1         2         3        27     9      180.000000       -0.011039         4
         1         2         3        28     9        0.000000       -0.015747         1
         1         2         3        28     9      180.000000       -0.015029         2
         1         2         3        28     9        0.000000        0.410471         3
         1         2         3        28     9      180.000000       -0.011039         4
         1         6         5         4     9        0.000000        3.493938         1
         1         6         5         4     9      180.000000       -1.749451         2
         1         6         5         4     9        0.000000        0.427505         3
         1         6         5         4     9      180.000000       -0.118074         4
         1         6         5        29     9        0.000000       -0.015747         1
         1         6         5        29     9      180.000000       -0.015029         2
         1         6         5        29     9        0.000000        0.410471         3
         1         6         5        29     9      180.000000       -0.011039         4
         1         6         5        30     9        0.000000       -0.015747         1
         1         6         5        30     9      180.000000       -0.015029         2
         1         6         5        30     9        0.000000        0.410471         3
         1         6         5        30     9      180.000000       -0.011039         4
         1        16        15        14     9        0.000000        0.525629         1
         1        16        15        14     9      180.000000       11.592557         2
         1        16        15        14     9        0.000000        0.398145         3
         1        16        15        14     9      180.000000       -0.880982         4
         1        16        15        36     9        0.000000       -0.160397         1
         1        16        15        36     9      180.000000       10.234446         2
         1        16        15        36     9        0.000000       -0.128827         3
         1        16        15        36     9      180.000000       -0.204587         4
         1        16        17        18     9        0.000000        1.884924         1
         1        16        17        18     9      180.000000       19.600250         2
         1        16        17        18     9        0.000000        0.947909         3
         1        16        17        18     9      180.000000       -1.184384         4
         2         1         6         5     9        0.000000        0.097834         1
         2         1         6         5     9      180.000000        0.071711         2
         2         1         6         5     9        0.000000        0.801694         3
         2         1         6         5     9      180.000000        0.019443         4
         2         1         6        31     9        0.000000        0.061239         1
         2         1         6        31     9      180.000000        0.125634         2
         2         1         6        31     9        0.000000        0.910232         3
         2         1         6        31     9      180.000000        0.047377         4
         2         1         6        32     9        0.000000        0.061239         1
         2         1         6        32     9      180.000000        0.125634         2
         2         1         6        32     9        0.000000        0.910232         3
         2         1         6        32     9      180.000000        0.047377         4
         2         1        16        15     9        0.000000        2.633244         1
         2         1        16        15     9      180.000000        6.850162         2
         2         1        16        15     9        0.000000       -0.256128         3
         2         1        16        15     9      180.000000        0.118619         4
         2         1        16        17     9        0.000000        0.592393         1
         2         1        16        17     9      180.000000        7.634276         2
         2         1        16        17     9        0.000000       -0.418771         3
         2         1        16        17     9      180.000000        0.028509         4
         2         3         4         5     9        0.000000        3.305309         1
         2         3         4         5     9      180.000000       -1.662805         2
         2         3         4         5     9        0.000000        0.073143         3
         2         3         4         5     9      180.000000        0.016898         4
         2         3         4        20     9        0.000000        3.630557         1
         2         3         4        20     9      180.000000       -1.235852         2
         2         3         4        20     9        0.000000        0.455688         3
         2         3         4        20     9      180.000000        0.423887         4
         2         3         4        21     9        0.000000       -2.449354         1
         2         3         4        21     9      180.000000        1.049946         2
         2         3         4        21     9        0.000000        0.264187         3
         2         3         4        21     9      180.000000        0.059308         4
         3         2         1         6     9        0.000000        0.097834         1
         3         2         1         6     9      180.000000        0.071711         2
         3         2         1         6     9        0.000000        0.801694         3
         3         2         1         6     9      180.000000        0.019443         4
         3         2         1        16     9        0.000000       -1.074942         1
         3         2         1        16     9      180.000000        0.926658         2
         3         2         1        16     9        0.000000        0.495629         3
         3         2         1        16     9      180.000000        0.049013         4
         3         4         5         6     9        0.000000        3.305309         1
         3         4         5         6     9      180.000000       -1.662805         2
         3         4         5         6     9        0.000000        0.073143         3
         3         4         5         6     9      180.000000        0.016898         4
         3         4         5        29     9        0.000000        0.007174         1
         3         4         5        29     9      180.000000        0.103972         2
         3         4         5        29     9        0.000000        0.342335         3
         3         4         5        29     9      180.000000       -0.008057         4
         3         4         5        30     9        0.000000        0.007174         1
         3         4         5        30     9      180.000000        0.103972         2
         3         4         5        30     9        0.000000        0.342335         3
         3         4         5        30     9      180.000000       -0.008057         4
         3         4        20        39     9        0.000000        0.062222         1
         3         4        20        39     9      180.000000        0.164656         2
         3         4        20        39     9        0.000000        0.559493         3
         3         4        20        39     9      180.000000        0.034876         4
         3         4        20        40     9        0.000000        0.062222         1
         3         4        20        40     9      180.000000        0.164656         2
         3         4        20        40     9        0.000000        0.559493         3
         3         4        20        40     9      180.000000        0.034876         4
         3         4        20        47     9        0.000000        0.062222         1
         3         4        20        47     9      180.000000        0.164656         2
         3         4        20        47     9        0.000000        0.559493         3
         3         4        20        47     9      180.000000        0.034876         4
         3         4        21        41     9        0.000000        0.001962         1
         3         4        21        41     9      180.000000        0.017089         2
         3         4        21        41     9        0.000000        0.502026         3
         3         4        21        41     9      180.000000        0.013943         4
         3         4        21        42     9        0.000000        0.001962         1
         3         4        21        42     9      180.000000        0.017089         2
         3         4        21        42     9        0.000000        0.502026         3
         3         4        21        42     9      180.000000        0.013943         4
         3         4        21        43     9        0.000000        0.001962         1
         3         4        21        43     9      180.000000        0.017089         2
         3         4        21        43     9        0.000000        0.502026         3
         3         4        21        43     9      180.000000        0.013943         4
         4         3         2        25     9        0.000000       -0.110172         1
         4         3         2        25     9      180.000000       -0.011484         2
         4         3         2        25     9        0.000000        0.408420         3
         4         3         2        25     9      180.000000        0.004906         4
         4         3         2        26     9        0.000000       -0.110172         1
         4         3         2        26     9      180.000000       -0.011484         2
         4         3         2        26     9        0.000000        0.408420         3
         4         3         2        26     9      180.000000        0.004906         4
         4         5         6        31     9        0.000000       -0.110172         1
         4         5         6        31     9      180.000000       -0.011484         2
         4         5         6        31     9        0.000000        0.408420         3
         4         5         6        31     9      180.000000        0.004906         4
         4         5         6        32     9        0.000000       -0.110172         1
         4         5         6        32     9      180.000000       -0.011484         2
         4         5         6        32     9        0.000000        0.408420         3
         4         5         6        32     9      180.000000        0.004906         4
         5         4         3        27     9        0.000000        0.007174         1
         5         4         3        27     9      180.000000        0.103972         2
         5         4         3        27     9        0.000000        0.342335         3
         5         4         3        27     9      180.000000       -0.008057         4
         5         4         3        28     9        0.000000        0.007174         1
         5         4         3        28     9      180.000000        0.103972         2
         5         4         3        28     9        0.000000        0.342335         3
         5         4         3        28     9      180.000000       -0.008057         4
         5         4        20        39     9        0.000000        0.062222         1
         5         4        20        39     9      180.000000        0.164656         2
         5         4        20        39     9        0.000000        0.559493         3
         5         4        20        39     9      180.000000        0.034876         4
         5         4        20        40     9        0.000000        0.062222         1
         5         4        20        40     9      180.000000        0.164656         2
         5         4        20        40     9        0.000000        0.559493         3
         5         4        20        40     9      180.000000        0.034876         4
         5         4        20        47     9        0.000000        0.062222         1
         5         4        20        47     9      180.000000        0.164656         2
         5         4        20        47     9        0.000000        0.559493         3
         5         4        20        47     9      180.000000        0.034876         4
         5         4        21        41     9        0.000000        0.001962         1
         5         4        21        41     9      180.000000        0.017089         2
         5         4        21        41     9        0.000000        0.502026         3
         5         4        21        41     9      180.000000        0.013943         4
         5         4        21        42     9        0.000000        0.001962         1
         5         4        21        42     9      180.000000        0.017089         2
         5         4        21        42     9        0.000000        0.502026         3
         5         4        21        42     9      180.000000        0.013943         4
         5         4        21        43     9        0.000000        0.001962         1
         5         4        21        43     9      180.000000        0.017089         2
         5         4        21        43     9        0.000000        0.502026         3
         5         4        21        43     9      180.000000        0.013943         4
         5         6         1        16     9        0.000000       -1.074942         1
         5         6         1        16     9      180.000000        0.926658         2
         5         6         1        16     9        0.000000        0.495629         3
         5         6         1        16     9      180.000000        0.049013         4
         6         1         2        25     9        0.000000        0.061239         1
         6         1         2        25     9      180.000000        0.125634         2
         6         1         2        25     9        0.000000        0.910232         3
         6         1         2        25     9      180.000000        0.047377         4
         6         1         2        26     9        0.000000        0.061239         1
         6         1         2        26     9      180.000000        0.125634         2
         6         1         2        26     9        0.000000        0.910232         3
         6         1         2        26     9      180.000000        0.047377         4
         6         1        16        15     9        0.000000        2.633244         1
         6         1        16        15     9      180.000000        6.850162         2
         6         1        16        15     9        0.000000       -0.256128         3
         6         1        16        15     9      180.000000        0.118619         4
         6         1        16        17     9        0.000000        0.592393         1
         6         1        16        17     9      180.000000        7.634276         2
         6         1        16        17     9        0.000000       -0.418771         3
         6         1        16        17     9      180.000000        0.028509         4
         6         5         4        20     9        0.000000        3.630557         1
         6         5         4        20     9      180.000000       -1.235852         2
         6         5         4        20     9        0.000000        0.455688         3
         6         5         4        20     9      180.000000        0.423887         4
         6         5         4        21     9        0.000000       -2.449354         1
         6         5         4        21     9      180.000000        1.049946         2
         6         5         4        21     9        0.000000        0.264187         3
         6         5         4        21     9      180.000000        0.059308         4
         7         8         9        10     9        0.000000       -0.073089         1
         7         8         9        10     9      180.000000       10.922785         2
         7         8         9        10     9        0.000000       -1.302141         3
         7         8         9        10     9      180.000000       -0.023059         4
         7         8         9        22     9        0.000000        0.476132         1
         7         8         9        22     9      180.000000       12.009454         2
         7         8         9        22     9        0.000000       -1.820793         3
         7         8         9        22     9      180.000000       -0.158281         4
         7         8        24        23     9        0.000000        0.206579         1
         7         8        24        23     9      180.000000        3.649481         2
         7         8        24        23     9        0.000000        0.040429         3
         7         8        24        23     9      180.000000        0.293605         4
         7         8        24        46     9        0.000000       -0.694725         1
         7         8        24        46     9      180.000000        1.004988         2
         7         8        24        46     9        0.000000        0.213180         3
         7         8        24        46     9      180.000000        0.038141         4
         7        12        11        10     9        0.000000        0.088321         1
         7        12        11        10     9      180.000000       18.401369         2
         7        12        11        10     9        0.000000       -1.546314         3
         7        12        11        10     9      180.000000       -0.441281         4
         7        12        11        34     9        0.000000        0.074982         1
         7        12        11        34     9      180.000000       14.372041         2
         7        12        11        34     9        0.000000       -0.555855         3
         7        12        11        34     9      180.000000        0.063224         4
         7        13        14        15     9        0.000000        0.774925         1
         7        13        14        15     9      180.000000       25.277810         2
         7        13        14        15     9        0.000000        0.689530         3
         7        13        14        15     9      180.000000       -1.048966         4
         7        13        18        17     9        0.000000       -0.804626         1
         7        13        18        17     9      180.000000        8.214763         2
         7        13        18        17     9        0.000000        0.180814         3
         7        13        18        17     9      180.000000       -0.602357         4
         7        13        18        19     9        0.000000        1.177622         1
         7        13        18        19     9      180.000000       13.093283         2
         7        13        18        19     9        0.000000        0.414916         3
         7        13        18        19     9      180.000000       -0.699045         4
         8         7        12        11     9        0.000000       -0.032848         1
         8         7        12        11     9      180.000000       21.744186         2
         8         7        12        11     9        0.000000       -2.076217         3
         8         7        12        11     9      180.000000       -0.502725         4
         8         7        12        35     9        0.000000       -0.150861         1
         8         7        12        35     9      180.000000       17.131837         2
         8         7        12        35     9        0.000000       -0.805812         3
         8         7        12        35     9      180.000000       -0.205949         4
         8         7        13        14     9        0.000000        0.106061         1
         8         7        13        14     9      180.000000        3.828094         2
         8         7        13        14     9        0.000000       -1.012655         3
         8         7        13        14     9      180.000000        0.223759         4
         8         7        13        18     9        0.000000        6.889191         1
         8         7        13        18     9      180.000000        0.131317         2
         8         7        13        18     9        0.000000        0.604047         3
         8         7        13        18     9      180.000000        0.190051         4
         8         9        10        11     9        0.000000        0.025731         1
         8         9        10        11     9      180.000000       19.546548         2
         8         9        10        11     9        0.000000       -1.856913         3
         8         9        10        11     9      180.000000       -0.423783         4
         8         9        10        33     9        0.000000        0.562306         1
         8         9        10        33     9      180.000000       13.326910         2
         8         9        10        33     9        0.000000       -0.407422         3
         8         9        10        33     9      180.000000       -0.106724         4
         8         9        22        23     9        0.000000       -0.094834         1
         8         9        22        23     9      180.000000       27.193169         2
         8         9        22        23     9        0.000000       -8.724251         3
         8         9        22        23     9      180.000000       -0.287323         4
         8         9        22        44     9        0.000000        1.277540         1
         8         9        22        44     9      180.000000        9.986121         2
         8         9        22        44     9        0.000000        0.122156         3
         8         9        22        44     9      180.000000       -0.153256         4
         8        24        23        22     9        0.000000        0.072754         1
         8        24        23        22     9      180.000000       22.618681         2
         8        24        23        22     9        0.000000       -5.599288         3
         8        24        23        22     9      180.000000       -0.694130         4
         8        24        23        45     9        0.000000        2.656665         1
         8        24        23        45     9      180.000000        8.187898         2
         8        24        23        45     9        0.000000        0.318846         3
         8        24        23        45     9      180.000000       -0.033132         4
         9         8         7        12     9        0.000000       -0.045046         1
         9         8         7        12     9      180.000000       15.184961         2
         9         8         7        12     9        0.000000       -1.769369         3
         9         8         7        12     9      180.000000       -0.099705         4
         9         8         7        13     9        0.000000        0.083981         1
         9         8         7        13     9      180.000000       11.910449         2
         9         8         7        13     9        0.000000       -0.182184         3
         9         8         7        13     9      180.000000       -0.242093         4
         9         8        24        23     9        0.000000       -0.044260         1
         9         8        24        23     9      180.000000       19.619405         2
         9         8        24        23     9        0.000000       -5.596899         3
         9         8        24        23     9      180.000000       -0.376555         4
         9         8        24        46     9        0.000000        0.951473         1
         9         8        24        46     9      180.000000        1.805920         2
         9         8        24        46     9        0.000000        0.404207         3
         9         8        24        46     9      180.000000        0.311880         4
         9        10        11        12     9        0.000000       -0.189843         1
         9        10        11        12     9      180.000000       20.662700         2
         9        10        11        12     9        0.000000       -1.697502         3
         9        10        11        12     9      180.000000       -0.363295         4
         9        10        11        34     9        0.000000        0.050088         1
         9        10        11        34     9      180.000000       15.856757         2
         9        10        11        34     9        0.000000       -0.607160         3
         9        10        11        34     9      180.000000       -0.002246         4
         9        22        23        24     9        0.000000       -0.225280         1
         9        22        23        24     9      180.000000       32.551000         2
         9        22        23        24     9        0.000000       -5.701833         3
         9        22        23        24     9      180.000000       -0.799815         4
         9        22        23        45     9        0.000000        0.161060         1
         9        22        23        45     9      180.000000       17.166161         2
         9        22        23        45     9        0.000000       -0.335390         3
         9        22        23        45     9      180.000000       -0.425311         4
        10         9         8        24     9        0.000000        0.175752         1
        10         9         8        24     9      180.000000       11.761500         2
        10         9         8        24     9        0.000000       -1.706687         3
        10         9         8        24     9      180.000000       -0.069124         4
        10         9        22        23     9        0.000000        0.120394         1
        10         9        22        23     9      180.000000        4.154080         2
        10         9        22        23     9        0.000000       -0.449428         3
        10         9        22        23     9      180.000000        0.062311         4
        10         9        22        44     9        0.000000       -0.681255         1
        10         9        22        44     9      180.000000        4.692976         2
        10         9        22        44     9        0.000000       -0.208237         3
        10         9        22        44     9      180.000000        0.139039         4
        10        11        12        35     9        0.000000        0.069629         1
        10        11        12        35     9      180.000000       14.470569         2
        10        11        12        35     9        0.000000       -0.821251         3
        10        11        12        35     9      180.000000        0.130711         4
        11        10         9        22     9        0.000000        0.140605         1
        11        10         9        22     9      180.000000       13.455321         2
        11        10         9        22     9        0.000000       -0.471427         3
        11        10         9        22     9      180.000000       -0.165364         4
        11        12         7        13     9        0.000000        0.398020         1
        11        12         7        13     9      180.000000       16.708458         2
        11        12         7        13     9        0.000000       -0.045161         3
        11        12         7        13     9      180.000000       -0.198993         4
        12         7         8        24     9        0.000000        0.151340         1
        12         7         8        24     9      180.000000       14.173242         2
        12         7         8        24     9        0.000000       -0.151494         3
        12         7         8        24     9      180.000000       -0.187975         4
        12         7        13        14     9        0.000000        0.454739         1
        12         7        13        14     9      180.000000        3.650692         2
        12         7        13        14     9        0.000000        0.278613         3
        12         7        13        14     9      180.000000       -0.021603         4
        12         7        13        18     9        0.000000        0.784912         1
        12         7        13        18     9      180.000000        1.685694         2
        12         7        13        18     9        0.000000        0.048714         3
        12         7        13        18     9      180.000000        0.172999         4
        12        11        10        33     9        0.000000        0.048282         1
        12        11        10        33     9      180.000000       14.998819         2
        12        11        10        33     9        0.000000       -0.613655         3
        12        11        10        33     9      180.000000        0.099330         4
        13         7         8        24     9        0.000000       -0.047396         1
        13         7         8        24     9      180.000000       12.640731         2
        13         7         8        24     9        0.000000        0.206400         3
        13         7         8        24     9      180.000000       -0.327674         4
        13         7        12        35     9        0.000000        0.042760         1
        13         7        12        35     9      180.000000       12.887170         2
        13         7        12        35     9        0.000000       -0.335961         3
        13         7        12        35     9      180.000000        0.247048         4
        13        14        15        16     9        0.000000       -0.344824         1
        13        14        15        16     9      180.000000       22.006560         2
        13        14        15        16     9        0.000000       -1.081614         3
        13        14        15        16     9      180.000000       -0.288264         4
        13        14        15        36     9        0.000000        0.317807         1
        13        14        15        36     9      180.000000       20.069459         2
        13        14        15        36     9        0.000000       -0.125392         3
        13        14        15        36     9      180.000000       -0.132035         4
        13        18        17        16     9        0.000000       -0.043737         1
        13        18        17        16     9      180.000000       20.662390         2
        13        18        17        16     9        0.000000       -0.315384         3
        13        18        17        16     9      180.000000       -0.328780         4
        13        18        19        37     9        0.000000        1.648933         1
        13        18        19        37     9      180.000000        6.398374         2
        13        18        19        37     9        0.000000        0.600150         3
        13        18        19        37     9      180.000000        0.603623         4
        13        18        19        38     9        0.000000        1.648933         1
        13        18        19        38     9      180.000000        6.398374         2
        13        18        19        38     9        0.000000        0.600150         3
        13        18        19        38     9      180.000000        0.603623         4
        14        13        18        17     9        0.000000       -0.655665         1
        14        13        18        17     9      180.000000        7.595234         2
        14        13        18        17     9        0.000000        0.377038         3
        14        13        18        17     9      180.000000       -0.730794         4
        14        13        18        19     9        0.000000        1.376261         1
        14        13        18        19     9      180.000000       11.471398         2
        14        13        18        19     9        0.000000        0.305399         3
        14        13        18        19     9      180.000000       -0.911373         4
        14        15        16        17     9        0.000000       -1.130941         1
        14        15        16        17     9      180.000000        8.594758         2
        14        15        16        17     9        0.000000        0.224641         3
        14        15        16        17     9      180.000000       -0.861683         4
        15        14        13        18     9        0.000000       -0.130548         1
        15        14        13        18     9      180.000000       23.011673         2
        15        14        13        18     9        0.000000       -0.286705         3
        15        14        13        18     9      180.000000       -0.541505         4
        15        16        17        18     9        0.000000        1.418917         1
        15        16        17        18     9      180.000000       13.126276         2
        15        16        17        18     9        0.000000        0.552049         3
        15        16        17        18     9      180.000000       -0.646944         4
        16         1         2        25     9        0.000000        0.048989         1
        16         1         2        25     9      180.000000        0.020477         2
        16         1         2        25     9        0.000000        0.603697         3
        16         1         2        25     9      180.000000       -0.015968         4
        16         1         2        26     9        0.000000        0.048989         1
        16         1         2        26     9      180.000000        0.020477         2
        16         1         2        26     9        0.000000        0.603697         3
        16         1         2        26     9      180.000000       -0.015968         4
        16         1         6        31     9        0.000000        0.048989         1
        16         1         6        31     9      180.000000        0.020477         2
        16         1         6        31     9        0.000000        0.603697         3
        16         1         6        31     9      180.000000       -0.015968         4
        16         1         6        32     9        0.000000        0.048989         1
        16         1         6        32     9      180.000000        0.020477         2
        16         1         6        32     9        0.000000        0.603697         3
        16         1         6        32     9      180.000000       -0.015968         4
        16        17        18        19     9        0.000000        0.122753         1
        16        17        18        19     9      180.000000       29.450873         2
        16        17        18        19     9        0.000000        0.867897         3
        16        17        18        19     9      180.000000       -1.260782         4
        17        16        15        36     9        0.000000       -0.308590         1
        17        16        15        36     9      180.000000        7.358627         2
        17        16        15        36     9        0.000000       -0.310946         3
        17        16        15        36     9      180.000000       -0.312511         4
        17        18        19        37     9        0.000000       12.297557         1
        17        18        19        37     9      180.000000        7.943943         2
        17        18        19        37     9        0.000000        0.211789         3
        17        18        19        37     9      180.000000        0.601229         4
        17        18        19        38     9        0.000000       12.297557         1
        17        18        19        38     9      180.000000        7.943943         2
        17        18        19        38     9        0.000000        0.211789         3
        17        18        19        38     9      180.000000        0.601229         4
        20         4         3        27     9        0.000000       -0.169322         1
        20         4         3        27     9      180.000000        0.053936         2
        20         4         3        27     9        0.000000        0.536176         3
        20         4         3        27     9      180.000000       -0.087261         4
        20         4         3        28     9        0.000000       -0.169322         1
        20         4         3        28     9      180.000000        0.053936         2
        20         4         3        28     9        0.000000        0.536176         3
        20         4         3        28     9      180.000000       -0.087261         4
        20         4         5        29     9        0.000000       -0.169322         1
        20         4         5        29     9      180.000000        0.053936         2
        20         4         5        29     9        0.000000        0.536176         3
        20         4         5        29     9      180.000000       -0.087261         4
        20         4         5        30     9        0.000000       -0.169322         1
        20         4         5        30     9      180.000000        0.053936         2
        20         4         5        30     9        0.000000        0.536176         3
        20         4         5        30     9      180.000000       -0.087261         4
        20         4        21        41     9        0.000000       -0.256019         1
        20         4        21        41     9      180.000000       -0.145327         2
        20         4        21        41     9        0.000000        0.609264         3
        20         4        21        41     9      180.000000        0.002710         4
        20         4        21        42     9        0.000000       -0.256019         1
        20         4        21        42     9      180.000000       -0.145327         2
        20         4        21        42     9        0.000000        0.609264         3
        20         4        21        42     9      180.000000        0.002710         4
        20         4        21        43     9        0.000000       -0.256019         1
        20         4        21        43     9      180.000000       -0.145327         2
        20         4        21        43     9        0.000000        0.609264         3
        20         4        21        43     9      180.000000        0.002710         4
        21         4         3        27     9        0.000000        0.063473         1
        21         4         3        27     9      180.000000        0.001370         2
        21         4         3        27     9        0.000000        0.453990         3
        21         4         3        27     9      180.000000        0.000725         4
        21         4         3        28     9        0.000000        0.063473         1
        21         4         3        28     9      180.000000        0.001370         2
        21         4         3        28     9        0.000000        0.453990         3
        21         4         3        28     9      180.000000        0.000725         4
        21         4         5        29     9        0.000000        0.063473         1
        21         4         5        29     9      180.000000        0.001370         2
        21         4         5        29     9        0.000000        0.453990         3
        21         4         5        29     9      180.000000        0.000725         4
        21         4         5        30     9        0.000000        0.063473         1
        21         4         5        30     9      180.000000        0.001370         2
        21         4         5        30     9        0.000000        0.453990         3
        21         4         5        30     9      180.000000        0.000725         4
        21         4        20        39     9        0.000000       -0.241237         1
        21         4        20        39     9      180.000000        0.219200         2
        21         4        20        39     9        0.000000        0.596224         3
        21         4        20        39     9      180.000000        0.018226         4
        21         4        20        40     9        0.000000       -0.241237         1
        21         4        20        40     9      180.000000        0.219200         2
        21         4        20        40     9        0.000000        0.596224         3
        21         4        20        40     9      180.000000        0.018226         4
        21         4        20        47     9        0.000000       -0.241237         1
        21         4        20        47     9      180.000000        0.219200         2
        21         4        20        47     9        0.000000        0.596224         3
        21         4        20        47     9      180.000000        0.018226         4
        22         9         8        24     9        0.000000        0.309625         1
        22         9         8        24     9      180.000000       17.721776         2
        22         9         8        24     9        0.000000       -4.681098         3
        22         9         8        24     9      180.000000       -0.406208         4
        22         9        10        33     9        0.000000       -0.034400         1
        22         9        10        33     9      180.000000       10.641249         2
        22         9        10        33     9        0.000000       -0.028600         3
        22         9        10        33     9      180.000000        0.092743         4
        22        23        24        46     9        0.000000        0.361778         1
        22        23        24        46     9      180.000000        3.355336         2
        22        23        24        46     9        0.000000        0.683324         3
        22        23        24        46     9      180.000000        0.050797         4
        24        23        22        44     9        0.000000        0.152380         1
        24        23        22        44     9      180.000000       15.817194         2
        24        23        22        44     9        0.000000       -0.164167         3
        24        23        22        44     9      180.000000       -0.308735         4
        25         2         3        27     9        0.000000       -0.008238         1
        25         2         3        27     9      180.000000        0.010357         2
        25         2         3        27     9        0.000000        0.419133         3
        25         2         3        27     9      180.000000       -0.004232         4
        25         2         3        28     9        0.000000       -0.008238         1
        25         2         3        28     9      180.000000        0.010357         2
        25         2         3        28     9        0.000000        0.419133         3
        25         2         3        28     9      180.000000       -0.004232         4
        26         2         3        27     9        0.000000       -0.008238         1
        26         2         3        27     9      180.000000        0.010357         2
        26         2         3        27     9        0.000000        0.419133         3
        26         2         3        27     9      180.000000       -0.004232         4
        26         2         3        28     9        0.000000       -0.008238         1
        26         2         3        28     9      180.000000        0.010357         2
        26         2         3        28     9        0.000000        0.419133         3
        26         2         3        28     9      180.000000       -0.004232         4
        29         5         6        31     9        0.000000       -0.008238         1
        29         5         6        31     9      180.000000        0.010357         2
        29         5         6        31     9        0.000000        0.419133         3
        29         5         6        31     9      180.000000       -0.004232         4
        29         5         6        32     9        0.000000       -0.008238         1
        29         5         6        32     9      180.000000        0.010357         2
        29         5         6        32     9        0.000000        0.419133         3
        29         5         6        32     9      180.000000       -0.004232         4
        30         5         6        31     9        0.000000       -0.008238         1
        30         5         6        31     9      180.000000        0.010357         2
        30         5         6        31     9        0.000000        0.419133         3
        30         5         6        31     9      180.000000       -0.004232         4
        30         5         6        32     9        0.000000       -0.008238         1
        30         5         6        32     9      180.000000        0.010357         2
        30         5         6        32     9        0.000000        0.419133         3
        30         5         6        32     9      180.000000       -0.004232         4
        33        10        11        34     9        0.000000       -0.172378         1
        33        10        11        34     9      180.000000       12.359341         2
        33        10        11        34     9        0.000000       -0.643415         3
        33        10        11        34     9      180.000000        0.242618         4
        34        11        12        35     9        0.000000       -0.193596         1
        34        11        12        35     9      180.000000       11.720342         2
        34        11        12        35     9        0.000000       -0.710367         3
        34        11        12        35     9      180.000000        0.266326         4
        44        22        23        45     9        0.000000        0.011706         1
        44        22        23        45     9      180.000000       11.574426         2
        44        22        23        45     9        0.000000       -0.412126         3
        44        22        23        45     9      180.000000        0.112348         4
        45        23        24        46     9        0.000000       -1.622221         1
        45        23        24        46     9      180.000000        0.223761         2
        45        23        24        46     9        0.000000        0.146431         3
        45        23        24        46     9      180.000000       -0.085422         4

[ pairs ]
;       ai        aj funct
         1         4     1
         1        14     1
         1        18     1
         1        27     1
         1        28     1
         1        29     1
         1        30     1
         1        36     1
         2         5     1
         2        15     1
         2        17     1
         2        20     1
         2        21     1
         2        31     1
         2        32     1
         3         6     1
         3        16     1
         3        29     1
         3        30     1
         3        39     1
         3        40     1
         3        41     1
         3        42     1
         3        43     1
         3        47     1
         4        25     1
         4        26     1
         4        31     1
         4        32     1
         5        16     1
         5        27     1
         5        28     1
         5        39     1
         5        40     1
         5        41     1
         5        42     1
         5        43     1
         5        47     1
         6        15     1
         6        17     1
         6        20     1
         6        21     1
         6        25     1
         6        26     1
         7        10     1
         7        15     1
         7        17     1
         7        19     1
         7        22     1
         7        23     1
         7        34     1
         7        46     1
         8        11     1
         8        14     1
         8        18     1
         8        33     1
         8        35     1
         8        44     1
         8        45     1
         9        12     1
         9        13     1
         9        34     1
         9        45     1
         9        46     1
        10        23     1
        10        24     1
        10        35     1
        10        44     1
        11        13     1
        11        22     1
        12        14     1
        12        18     1
        12        24     1
        12        33     1
        13        16     1
        13        24     1
        13        35     1
        13        36     1
        13        37     1
        13        38     1
        14        17     1
        14        19     1
        15        18     1
        16        19     1
        16        25     1
        16        26     1
        16        31     1
        16        32     1
        17        36     1
        17        37     1
        17        38     1
        20        27     1
        20        28     1
        20        29     1
        20        30     1
        20        41     1
        20        42     1
        20        43     1
        21        27     1
        21        28     1
        21        29     1
        21        30     1
        21        39     1
        21        40     1
        21        47     1
        22        33     1
        22        46     1
        24        44     1
        25        27     1
        25        28     1
        26        27     1
        26        28     1
        29        31     1
        29        32     1
        30        31     1
        30        32     1
        33        34     1
        34        35     1
        44        45     1
        45        46     1
