; ITP file created by ByteFF-ML, 2026-02-21 07:47:21.950151

[ atomtypes ]
;name           bonded.type        at.num        mass        charge   ptype           sigma         epsilon
 n0bf                                   7      0.0000       0.00000       A     3.19452e-01     8.95404e-01
 c1bf                                   6      0.0000       0.00000       A     3.39443e-01     4.50100e-01
 c2bf                                   6      0.0000       0.00000       A     3.39917e-01     4.48002e-01
 n3bf                                   7      0.0000       0.00000       A     2.67294e-01     7.09410e+00
 c4bf                                   6      0.0000       0.00000       A     3.39917e-01     4.48002e-01
 c5bf                                   6      0.0000       0.00000       A     3.39443e-01     4.50100e-01
 c6bf                                   6      0.0000       0.00000       A     3.31684e-01     4.11459e-01
 c7bf                                   6      0.0000       0.00000       A     3.31515e-01     4.14506e-01
 c8bf                                   6      0.0000       0.00000       A     3.31527e-01     4.12656e-01
 c9bf                                   6      0.0000       0.00000       A     3.31490e-01     4.12710e-01
 c10bf                                  6      0.0000       0.00000       A     3.31465e-01     4.13235e-01
 c11bf                                  6      0.0000       0.00000       A     3.31467e-01     4.12831e-01
 c12bf                                  6      0.0000       0.00000       A     3.31500e-01     4.13835e-01
 n13bf                                  7      0.0000       0.00000       A     3.38462e-01     3.90569e-01
 c14bf                                  6      0.0000       0.00000       A     3.31604e-01     4.11068e-01
 c15bf                                  6      0.0000       0.00000       A     3.31591e-01     4.14560e-01
 n16bf                                  7      0.0000       0.00000       A     3.38338e-01     3.92981e-01
 c17bf                                  6      0.0000       0.00000       A     3.31203e-01     4.13411e-01
 cl18bf                                17      0.0000       0.00000       A     3.46745e-01     1.10550e+00
 cl19bf                                17      0.0000       0.00000       A     3.46725e-01     1.10759e+00
 n20bf                                  7      0.0000       0.00000       A     3.36721e-01     4.64006e-01
 c21bf                                  6      0.0000       0.00000       A     3.39559e-01     4.50554e-01
 c22bf                                  6      0.0000       0.00000       A     3.39559e-01     4.50554e-01
 h23bf                                  1      0.0000       0.00000       A     2.42141e-01     8.61431e-02
 h24bf                                  1      0.0000       0.00000       A     2.42141e-01     8.61431e-02
 h25bf                                  1      0.0000       0.00000       A     1.88016e-01     8.74806e-02
 h26bf                                  1      0.0000       0.00000       A     1.10892e-01     4.11738e-02
 h27bf                                  1      0.0000       0.00000       A     1.88016e-01     8.74806e-02
 h28bf                                  1      0.0000       0.00000       A     2.42141e-01     8.61431e-02
 h29bf                                  1      0.0000       0.00000       A     2.42141e-01     8.61431e-02
 h30bf                                  1      0.0000       0.00000       A     2.62433e-01     6.69663e-02
 h31bf                                  1      0.0000       0.00000       A     2.62502e-01     6.73461e-02
 h32bf                                  1      0.0000       0.00000       A     2.62496e-01     6.73046e-02
 h33bf                                  1      0.0000       0.00000       A     1.10348e-01     4.18186e-02
 h34bf                                  1      0.0000       0.00000       A     1.10348e-01     4.18186e-02
 h35bf                                  1      0.0000       0.00000       A     2.59738e-01     8.80120e-02
 h36bf                                  1      0.0000       0.00000       A     2.59738e-01     8.80120e-02
 h37bf                                  1      0.0000       0.00000       A     2.59738e-01     8.80120e-02
 h38bf                                  1      0.0000       0.00000       A     2.59738e-01     8.80120e-02
 h39bf                                  1      0.0000       0.00000       A     2.59738e-01     8.80120e-02
 h40bf                                  1      0.0000       0.00000       A     2.59738e-01     8.80120e-02
 h41bf                                  1      0.0000       0.00000       A     1.10892e-01     4.11738e-02
 h42bf                                  1      0.0000       0.00000       A     2.53687e-01     6.81841e-02

[ moleculetype ]
;name             nrexcl
 Example_27            3

[ atoms ]
;       nr            type      resi   res      atom      cgnr      charge          mass ; qtot
         1            n0bf         1   UNL        n0         1    -0.74665       14.0070 ; qtot   -0.747
         2            c1bf         1   UNL        c1         2     0.18596       12.0110 ; qtot   -0.561
         3            c2bf         1   UNL        c2         3     0.11690       12.0110 ; qtot   -0.444
         4            n3bf         1   UNL        n3         4    -0.84812       14.0070 ; qtot   -1.292
         5            c4bf         1   UNL        c4         5     0.11690       12.0110 ; qtot   -1.175
         6            c5bf         1   UNL        c5         6     0.18596       12.0110 ; qtot   -0.989
         7            c6bf         1   UNL        c6         7    -0.11417       12.0110 ; qtot   -1.103
         8            c7bf         1   UNL        c7         8     0.13800       12.0110 ; qtot   -0.965
         9            c8bf         1   UNL        c8         9     0.12141       12.0110 ; qtot   -0.844
        10            c9bf         1   UNL        c9        10    -0.08482       12.0110 ; qtot   -0.929
        11           c10bf         1   UNL       c10        11    -0.10472       12.0110 ; qtot   -1.033
        12           c11bf         1   UNL       c11        12    -0.07881       12.0110 ; qtot   -1.112
        13           c12bf         1   UNL       c12        13     0.25222       12.0110 ; qtot   -0.860
        14           n13bf         1   UNL       n13        14    -0.56943       14.0070 ; qtot   -1.429
        15           c14bf         1   UNL       c14        15     0.23576       12.0110 ; qtot   -1.194
        16           c15bf         1   UNL       c15        16     0.54073       12.0110 ; qtot   -0.653
        17           n16bf         1   UNL       n16        17    -0.78482       14.0070 ; qtot   -1.438
        18           c17bf         1   UNL       c17        18     0.57975       12.0110 ; qtot   -0.858
        19          cl18bf         1   UNL      cl18        19    -0.17937       35.4530 ; qtot   -1.037
        20          cl19bf         1   UNL      cl19        20    -0.16743       35.4530 ; qtot   -1.205
        21           n20bf         1   UNL       n20        21    -1.01202       14.0070 ; qtot   -2.217
        22           c21bf         1   UNL       c21        22    -0.12964       12.0110 ; qtot   -2.346
        23           c22bf         1   UNL       c22        23    -0.12964       12.0110 ; qtot   -2.476
        24           h23bf         1   UNL       h23        24     0.09569        1.0080 ; qtot   -2.380
        25           h24bf         1   UNL       h24        25     0.09569        1.0080 ; qtot   -2.285
        26           h25bf         1   UNL       h25        26     0.11122        1.0080 ; qtot   -2.173
        27           h26bf         1   UNL       h26        27     0.51067        1.0080 ; qtot   -1.663
        28           h27bf         1   UNL       h27        28     0.11122        1.0080 ; qtot   -1.552
        29           h28bf         1   UNL       h28        29     0.09569        1.0080 ; qtot   -1.456
        30           h29bf         1   UNL       h29        30     0.09569        1.0080 ; qtot   -1.360
        31           h30bf         1   UNL       h30        31     0.13777        1.0080 ; qtot   -1.222
        32           h31bf         1   UNL       h31        32     0.12850        1.0080 ; qtot   -1.094
        33           h32bf         1   UNL       h32        33     0.13319        1.0080 ; qtot   -0.961
        34           h33bf         1   UNL       h33        34     0.46078        1.0080 ; qtot   -0.500
        35           h34bf         1   UNL       h34        35     0.46078        1.0080 ; qtot   -0.039
        36           h35bf         1   UNL       h35        36     0.08257        1.0080 ; qtot    0.043
        37           h36bf         1   UNL       h36        37     0.08257        1.0080 ; qtot    0.126
        38           h37bf         1   UNL       h37        38     0.08257        1.0080 ; qtot    0.209
        39           h38bf         1   UNL       h38        39     0.08257        1.0080 ; qtot    0.291
        40           h39bf         1   UNL       h39        40     0.08257        1.0080 ; qtot    0.374
        41           h40bf         1   UNL       h40        41     0.08257        1.0080 ; qtot    0.456
        42           h41bf         1   UNL       h41        42     0.51067        1.0080 ; qtot    0.967
        43           h42bf         1   UNL       h42        43     0.03307        1.0080 ; qtot    1.000

[ bonds ]
;       ai        aj funct               r               k
         1         2     1        0.146189   194267.571118
         1         6     1        0.146189   194267.571118
         1        16     1        0.140932   240880.520703
         2         3     1        0.153556   174094.365576
         2        24     1        0.109396   298803.026074
         2        25     1        0.109396   298803.026074
         3         4     1        0.153360   112268.308740
         3        22     1        0.152292   193950.949268
         3        26     1        0.109235   309223.520166
         4         5     1        0.153360   112268.308740
         4        27     1        0.102640   382237.946436
         4        42     1        0.102640   382237.946436
         5         6     1        0.153556   174094.365576
         5        23     1        0.152292   193950.949268
         5        28     1        0.109235   309223.520166
         6        29     1        0.109396   298803.026074
         6        30     1        0.109396   298803.026074
         7         8     1        0.140710   261792.297754
         7        12     1        0.140354   285048.075000
         7        13     1        0.148833   208862.782471
         8         9     1        0.140387   278821.693604
         8        20     1        0.174706   154969.317920
         9        10     1        0.139783   293456.602393
         9        19     1        0.174841   155133.993970
        10        11     1        0.139565   310227.205176
        10        31     1        0.108429   326455.884961
        11        12     1        0.139378   319661.558252
        11        32     1        0.108544   323106.182324
        12        33     1        0.108477   323509.387744
        13        14     1        0.133825   302729.714160
        13        18     1        0.142179   226218.619189
        14        15     1        0.132650   354483.194482
        15        16     1        0.140861   253795.709473
        15        43     1        0.108577   318926.625781
        16        17     1        0.133602   311738.184863
        17        18     1        0.133478   320630.104199
        18        21     1        0.138493   300966.478906
        21        34     1        0.101319   418006.447607
        21        35     1        0.101319   418006.447607
        22        36     1        0.109272   306986.239551
        22        37     1        0.109272   306986.239551
        22        38     1        0.109272   306986.239551
        23        39     1        0.109272   306986.239551
        23        40     1        0.109272   306986.239551
        23        41     1        0.109272   306986.239551

[ angles ]
;       ai        aj        ak funct           theta             cth
         1         2         3     1      110.760155      587.465368
         1         2        24     1      110.232254      443.824906
         1         2        25     1      110.232254      443.824906
         1         6         5     1      110.760155      587.465368
         1         6        29     1      110.232254      443.824906
         1         6        30     1      110.232254      443.824906
         1        16        15     1      122.314476      556.382109
         1        16        17     1      116.922913      568.172210
         2         1         6     1      112.845825      520.372487
         2         1        16     1      117.422318      556.312265
         2         3         4     1      107.427635      687.956256
         2         3        22     1      113.797806      591.852133
         2         3        26     1      109.722633      473.590960
         3         2        24     1      109.396286      474.936606
         3         2        25     1      109.396286      474.936606
         3         4         5     1      114.809555      610.409823
         3         4        27     1      108.910011      478.251642
         3         4        42     1      108.910011      478.251579
         3        22        36     1      110.769554      505.296750
         3        22        37     1      110.769554      505.296750
         3        22        38     1      110.769554      505.296750
         4         3        22     1      109.611183      712.804438
         4         3        26     1      104.963867      522.382162
         4         5         6     1      107.427635      687.956256
         4         5        23     1      109.611183      712.804438
         4         5        28     1      104.963867      522.382162
         5         4        27     1      108.910011      478.251579
         5         4        42     1      108.910011      478.251579
         5         6        29     1      109.396286      474.936606
         5         6        30     1      109.396286      474.936606
         5        23        39     1      110.769554      505.296750
         5        23        40     1      110.769554      505.296750
         5        23        41     1      110.769554      505.296750
         6         1        16     1      117.422318      556.312265
         6         5        23     1      113.797806      591.852133
         6         5        28     1      109.722633      473.590897
         7         8         9     1      119.997276      599.390560
         7         8        20     1      120.161278      335.846378
         7        12        11     1      121.055527      700.910210
         7        12        33     1      118.366478      402.030617
         7        13        14     1      117.392982      506.470084
         7        13        18     1      122.344376      459.468205
         8         7        12     1      118.561058      599.229038
         8         7        13     1      122.578758      435.207249
         8         9        10     1      120.349487      591.281123
         8         9        19     1      121.253151      346.786508
         9         8        20     1      120.147606      381.455208
         9        10        11     1      119.701218      613.951309
         9        10        31     1      119.180435      412.481935
        10         9        19     1      118.130531      339.335386
        10        11        12     1      120.050781      736.602725
        10        11        32     1      119.709694      442.443125
        11        10        31     1      121.192947      417.179167
        11        12        33     1      120.517212      416.328781
        12         7        13     1      119.001266      492.708455
        12        11        32     1      120.245544      430.627679
        13        14        15     1      119.215477      683.327719
        13        18        17     1      121.342758      645.385958
        13        18        21     1      122.275841      522.322245
        14        13        18     1      119.635056      703.541107
        14        15        16     1      121.000633      766.225964
        14        15        43     1      116.675438      372.196634
        15        16        17     1      120.418808      565.808942
        16        15        43     1      122.681190      375.485462
        16        17        18     1      118.575821      904.559655
        17        18        21     1      116.780075      609.127349
        18        21        34     1      114.485062      466.799047
        18        21        35     1      114.485062      466.799047
        22         3        26     1      110.663185      496.713823
        23         5        28     1      110.663185      496.713823
        24         2        25     1      107.409546      347.028057
        27         4        42     1      106.405602      409.051535
        29         6        30     1      107.409546      347.028057
        34        21        35     1      114.442482      347.937816
        36        22        37     1      108.107521      361.248779
        36        22        38     1      108.107521      361.248779
        37        22        38     1      108.107521      361.248779
        39        23        40     1      108.107521      361.248747
        39        23        41     1      108.107521      361.248747
        40        23        41     1      108.107521      361.248747

[ dihedrals ] ; propers for gromacs 4.5 or higher, use funct 9
;       ai        aj        ak        al funct           phase               k        pn
         1         2         3         4     9        0.000000       11.221271         1
         1         2         3         4     9      180.000000       -0.738434         2
         1         2         3         4     9        0.000000        0.566512         3
         1         2         3         4     9      180.000000       -0.156491         4
         1         2         3        22     9        0.000000       -0.857296         1
         1         2         3        22     9      180.000000        1.308020         2
         1         2         3        22     9        0.000000        0.638675         3
         1         2         3        22     9      180.000000       -0.115739         4
         1         2         3        26     9        0.000000       -0.012404         1
         1         2         3        26     9      180.000000       -0.399342         2
         1         2         3        26     9        0.000000        0.608476         3
         1         2         3        26     9      180.000000        0.044639         4
         1         6         5         4     9        0.000000       11.221271         1
         1         6         5         4     9      180.000000       -0.738434         2
         1         6         5         4     9        0.000000        0.566512         3
         1         6         5         4     9      180.000000       -0.156491         4
         1         6         5        23     9        0.000000       -0.857296         1
         1         6         5        23     9      180.000000        1.308020         2
         1         6         5        23     9        0.000000        0.638675         3
         1         6         5        23     9      180.000000       -0.115739         4
         1         6         5        28     9        0.000000       -0.012404         1
         1         6         5        28     9      180.000000       -0.399342         2
         1         6         5        28     9        0.000000        0.608476         3
         1         6         5        28     9      180.000000        0.044639         4
         1        16        15        14     9        0.000000        0.386837         1
         1        16        15        14     9      180.000000       15.093184         2
         1        16        15        14     9        0.000000        0.323845         3
         1        16        15        14     9      180.000000       -0.887265         4
         1        16        15        43     9        0.000000        0.235644         1
         1        16        15        43     9      180.000000       13.212990         2
         1        16        15        43     9        0.000000        0.200433         3
         1        16        15        43     9      180.000000       -0.219985         4
         1        16        17        18     9        0.000000        0.928500         1
         1        16        17        18     9      180.000000       26.002160         2
         1        16        17        18     9        0.000000        0.926298         3
         1        16        17        18     9      180.000000       -1.082606         4
         2         1         6         5     9        0.000000        3.571270         1
         2         1         6         5     9      180.000000       -0.994098         2
         2         1         6         5     9        0.000000        0.321211         3
         2         1         6         5     9      180.000000       -0.169258         4
         2         1         6        29     9        0.000000       -0.020520         1
         2         1         6        29     9      180.000000        0.108916         2
         2         1         6        29     9        0.000000        0.800695         3
         2         1         6        29     9      180.000000        0.047771         4
         2         1         6        30     9        0.000000       -0.020520         1
         2         1         6        30     9      180.000000        0.108916         2
         2         1         6        30     9        0.000000        0.800695         3
         2         1         6        30     9      180.000000        0.047771         4
         2         1        16        15     9        0.000000        3.088794         1
         2         1        16        15     9      180.000000        5.104774         2
         2         1        16        15     9        0.000000        0.099183         3
         2         1        16        15     9      180.000000        0.214534         4
         2         1        16        17     9        0.000000        3.399362         1
         2         1        16        17     9      180.000000        6.068297         2
         2         1        16        17     9        0.000000       -0.081372         3
         2         1        16        17     9      180.000000        0.183301         4
         2         3         4         5     9        0.000000        3.543513         1
         2         3         4         5     9      180.000000       -2.106609         2
         2         3         4         5     9        0.000000       -0.026711         3
         2         3         4         5     9      180.000000        0.234736         4
         2         3         4        27     9        0.000000        0.739595         1
         2         3         4        27     9      180.000000       -0.490634         2
         2         3         4        27     9        0.000000        0.378920         3
         2         3         4        27     9      180.000000        0.034467         4
         2         3         4        42     9        0.000000        0.739596         1
         2         3         4        42     9      180.000000       -0.490634         2
         2         3         4        42     9        0.000000        0.378920         3
         2         3         4        42     9      180.000000        0.034467         4
         2         3        22        36     9        0.000000       -0.024252         1
         2         3        22        36     9      180.000000       -0.000678         2
         2         3        22        36     9        0.000000        0.466323         3
         2         3        22        36     9      180.000000        0.040502         4
         2         3        22        37     9        0.000000       -0.024252         1
         2         3        22        37     9      180.000000       -0.000678         2
         2         3        22        37     9        0.000000        0.466323         3
         2         3        22        37     9      180.000000        0.040502         4
         2         3        22        38     9        0.000000       -0.024252         1
         2         3        22        38     9      180.000000       -0.000678         2
         2         3        22        38     9        0.000000        0.466323         3
         2         3        22        38     9      180.000000        0.040502         4
         3         2         1         6     9        0.000000        3.571270         1
         3         2         1         6     9      180.000000       -0.994098         2
         3         2         1         6     9        0.000000        0.321211         3
         3         2         1         6     9      180.000000       -0.169258         4
         3         2         1        16     9        0.000000       -0.904949         1
         3         2         1        16     9      180.000000        0.776829         2
         3         2         1        16     9        0.000000        0.433660         3
         3         2         1        16     9      180.000000       -0.034716         4
         3         4         5         6     9        0.000000        3.543513         1
         3         4         5         6     9      180.000000       -2.106609         2
         3         4         5         6     9        0.000000       -0.026711         3
         3         4         5         6     9      180.000000        0.234736         4
         3         4         5        23     9        0.000000       -0.627356         1
         3         4         5        23     9      180.000000        0.499637         2
         3         4         5        23     9        0.000000        0.460398         3
         3         4         5        23     9      180.000000        0.011009         4
         3         4         5        28     9        0.000000       -0.180857         1
         3         4         5        28     9      180.000000        0.066673         2
         3         4         5        28     9        0.000000        0.480853         3
         3         4         5        28     9      180.000000       -0.015400         4
         4         3         2        24     9        0.000000       -0.261835         1
         4         3         2        24     9      180.000000        0.111663         2
         4         3         2        24     9        0.000000        0.394401         3
         4         3         2        24     9      180.000000       -0.003699         4
         4         3         2        25     9        0.000000       -0.261835         1
         4         3         2        25     9      180.000000        0.111663         2
         4         3         2        25     9        0.000000        0.394401         3
         4         3         2        25     9      180.000000       -0.003699         4
         4         3        22        36     9        0.000000       -0.240893         1
         4         3        22        36     9      180.000000       -0.056852         2
         4         3        22        36     9        0.000000        0.525537         3
         4         3        22        36     9      180.000000       -0.000634         4
         4         3        22        37     9        0.000000       -0.240893         1
         4         3        22        37     9      180.000000       -0.056852         2
         4         3        22        37     9        0.000000        0.525537         3
         4         3        22        37     9      180.000000       -0.000634         4
         4         3        22        38     9        0.000000       -0.240893         1
         4         3        22        38     9      180.000000       -0.056852         2
         4         3        22        38     9        0.000000        0.525537         3
         4         3        22        38     9      180.000000       -0.000634         4
         4         5         6        29     9        0.000000       -0.261835         1
         4         5         6        29     9      180.000000        0.111663         2
         4         5         6        29     9        0.000000        0.394401         3
         4         5         6        29     9      180.000000       -0.003699         4
         4         5         6        30     9        0.000000       -0.261835         1
         4         5         6        30     9      180.000000        0.111663         2
         4         5         6        30     9        0.000000        0.394401         3
         4         5         6        30     9      180.000000       -0.003699         4
         4         5        23        39     9        0.000000       -0.240893         1
         4         5        23        39     9      180.000000       -0.056852         2
         4         5        23        39     9        0.000000        0.525537         3
         4         5        23        39     9      180.000000       -0.000634         4
         4         5        23        40     9        0.000000       -0.240893         1
         4         5        23        40     9      180.000000       -0.056852         2
         4         5        23        40     9        0.000000        0.525537         3
         4         5        23        40     9      180.000000       -0.000634         4
         4         5        23        41     9        0.000000       -0.240893         1
         4         5        23        41     9      180.000000       -0.056852         2
         4         5        23        41     9        0.000000        0.525537         3
         4         5        23        41     9      180.000000       -0.000634         4
         5         4         3        22     9        0.000000       -0.627357         1
         5         4         3        22     9      180.000000        0.499637         2
         5         4         3        22     9        0.000000        0.460398         3
         5         4         3        22     9      180.000000        0.011010         4
         5         4         3        26     9        0.000000       -0.180857         1
         5         4         3        26     9      180.000000        0.066673         2
         5         4         3        26     9        0.000000        0.480853         3
         5         4         3        26     9      180.000000       -0.015400         4
         5         6         1        16     9        0.000000       -0.904949         1
         5         6         1        16     9      180.000000        0.776829         2
         5         6         1        16     9        0.000000        0.433660         3
         5         6         1        16     9      180.000000       -0.034716         4
         6         1         2        24     9        0.000000       -0.020520         1
         6         1         2        24     9      180.000000        0.108916         2
         6         1         2        24     9        0.000000        0.800695         3
         6         1         2        24     9      180.000000        0.047771         4
         6         1         2        25     9        0.000000       -0.020520         1
         6         1         2        25     9      180.000000        0.108916         2
         6         1         2        25     9        0.000000        0.800695         3
         6         1         2        25     9      180.000000        0.047771         4
         6         1        16        15     9        0.000000        3.088794         1
         6         1        16        15     9      180.000000        5.104774         2
         6         1        16        15     9        0.000000        0.099183         3
         6         1        16        15     9      180.000000        0.214534         4
         6         1        16        17     9        0.000000        3.399362         1
         6         1        16        17     9      180.000000        6.068297         2
         6         1        16        17     9        0.000000       -0.081372         3
         6         1        16        17     9      180.000000        0.183301         4
         6         5         4        27     9        0.000000        0.739595         1
         6         5         4        27     9      180.000000       -0.490634         2
         6         5         4        27     9        0.000000        0.378920         3
         6         5         4        27     9      180.000000        0.034467         4
         6         5         4        42     9        0.000000        0.739596         1
         6         5         4        42     9      180.000000       -0.490634         2
         6         5         4        42     9        0.000000        0.378920         3
         6         5         4        42     9      180.000000        0.034467         4
         6         5        23        39     9        0.000000       -0.024254         1
         6         5        23        39     9      180.000000       -0.000679         2
         6         5        23        39     9        0.000000        0.466323         3
         6         5        23        39     9      180.000000        0.040501         4
         6         5        23        40     9        0.000000       -0.024254         1
         6         5        23        40     9      180.000000       -0.000679         2
         6         5        23        40     9        0.000000        0.466323         3
         6         5        23        40     9      180.000000        0.040501         4
         6         5        23        41     9        0.000000       -0.024254         1
         6         5        23        41     9      180.000000       -0.000679         2
         6         5        23        41     9        0.000000        0.466323         3
         6         5        23        41     9      180.000000        0.040501         4
         7         8         9        10     9        0.000000       -0.023187         1
         7         8         9        10     9      180.000000       16.492389         2
         7         8         9        10     9        0.000000       -1.005486         3
         7         8         9        10     9      180.000000       -0.404463         4
         7         8         9        19     9        0.000000        0.201463         1
         7         8         9        19     9      180.000000       16.426029         2
         7         8         9        19     9        0.000000        0.045239         3
         7         8         9        19     9      180.000000       -0.532014         4
         7        12        11        10     9        0.000000       -0.007401         1
         7        12        11        10     9      180.000000       18.930911         2
         7        12        11        10     9        0.000000       -1.593623         3
         7        12        11        10     9      180.000000       -0.486475         4
         7        12        11        32     9        0.000000       -0.003559         1
         7        12        11        32     9      180.000000       14.583289         2
         7        12        11        32     9        0.000000       -0.747987         3
         7        12        11        32     9      180.000000        0.023472         4
         7        13        14        15     9        0.000000       -0.105891         1
         7        13        14        15     9      180.000000       24.500690         2
         7        13        14        15     9        0.000000        0.650011         3
         7        13        14        15     9      180.000000       -0.786461         4
         7        13        18        17     9        0.000000       -0.109074         1
         7        13        18        17     9      180.000000        9.209018         2
         7        13        18        17     9        0.000000        0.051911         3
         7        13        18        17     9      180.000000       -0.553114         4
         7        13        18        21     9        0.000000        0.487701         1
         7        13        18        21     9      180.000000       13.589064         2
         7        13        18        21     9        0.000000        0.264241         3
         7        13        18        21     9      180.000000       -0.685050         4
         8         7        12        11     9        0.000000       -0.045707         1
         8         7        12        11     9      180.000000       18.574712         2
         8         7        12        11     9        0.000000       -1.518571         3
         8         7        12        11     9      180.000000       -0.377134         4
         8         7        12        33     9        0.000000        0.027458         1
         8         7        12        33     9      180.000000       14.296793         2
         8         7        12        33     9        0.000000       -0.645811         3
         8         7        12        33     9      180.000000        0.107702         4
         8         7        13        14     9        0.000000       -2.733759         1
         8         7        13        14     9      180.000000        2.501241         2
         8         7        13        14     9        0.000000        0.550860         3
         8         7        13        14     9      180.000000       -0.250049         4
         8         7        13        18     9        0.000000        3.294068         1
         8         7        13        18     9      180.000000       -1.147928         2
         8         7        13        18     9        0.000000        0.706746         3
         8         7        13        18     9      180.000000        0.009369         4
         8         9        10        11     9        0.000000        0.014733         1
         8         9        10        11     9      180.000000       17.989214         2
         8         9        10        11     9        0.000000       -1.144844         3
         8         9        10        11     9      180.000000       -0.419331         4
         8         9        10        31     9        0.000000        0.118544         1
         8         9        10        31     9      180.000000       13.407008         2
         8         9        10        31     9        0.000000       -0.432892         3
         8         9        10        31     9      180.000000        0.071731         4
         9         8         7        12     9        0.000000       -0.148804         1
         9         8         7        12     9      180.000000       17.267579         2
         9         8         7        12     9        0.000000       -1.255566         3
         9         8         7        12     9      180.000000       -0.507607         4
         9         8         7        13     9        0.000000        0.159831         1
         9         8         7        13     9      180.000000       13.474611         2
         9         8         7        13     9        0.000000       -0.359087         3
         9         8         7        13     9      180.000000       -0.276790         4
         9        10        11        12     9        0.000000       -0.015052         1
         9        10        11        12     9      180.000000       18.787087         2
         9        10        11        12     9        0.000000       -1.441663         3
         9        10        11        12     9      180.000000       -0.417482         4
         9        10        11        32     9        0.000000        0.039096         1
         9        10        11        32     9      180.000000       14.176347         2
         9        10        11        32     9        0.000000       -0.528023         3
         9        10        11        32     9      180.000000        0.072992         4
        10         9         8        20     9        0.000000        0.138716         1
        10         9         8        20     9      180.000000       17.502714         2
        10         9         8        20     9        0.000000        0.086590         3
        10         9         8        20     9      180.000000       -0.504530         4
        10        11        12        33     9        0.000000        0.056214         1
        10        11        12        33     9      180.000000       14.986210         2
        10        11        12        33     9        0.000000       -0.720986         3
        10        11        12        33     9      180.000000        0.071359         4
        11        10         9        19     9        0.000000        0.378297         1
        11        10         9        19     9      180.000000       19.840271         2
        11        10         9        19     9        0.000000        0.460777         3
        11        10         9        19     9      180.000000       -0.662431         4
        11        12         7        13     9        0.000000        0.225024         1
        11        12         7        13     9      180.000000       16.654738         2
        11        12         7        13     9        0.000000       -0.119652         3
        11        12         7        13     9      180.000000       -0.289433         4
        12         7         8        20     9        0.000000        0.449829         1
        12         7         8        20     9      180.000000       18.749042         2
        12         7         8        20     9        0.000000        0.262073         3
        12         7         8        20     9      180.000000       -0.866280         4
        12         7        13        14     9        0.000000        1.181449         1
        12         7        13        14     9      180.000000        3.292958         2
        12         7        13        14     9        0.000000       -0.130775         3
        12         7        13        14     9      180.000000       -0.020786         4
        12         7        13        18     9        0.000000        0.029681         1
        12         7        13        18     9      180.000000        1.193958         2
        12         7        13        18     9        0.000000       -0.119374         3
        12         7        13        18     9      180.000000        0.041536         4
        12        11        10        31     9        0.000000        0.071283         1
        12        11        10        31     9      180.000000       14.058772         2
        12        11        10        31     9        0.000000       -0.744499         3
        12        11        10        31     9      180.000000        0.124991         4
        13         7         8        20     9        0.000000        0.090532         1
        13         7         8        20     9      180.000000       15.932390         2
        13         7         8        20     9        0.000000        0.261722         3
        13         7         8        20     9      180.000000       -0.723019         4
        13         7        12        33     9        0.000000       -0.046255         1
        13         7        12        33     9      180.000000       13.248083         2
        13         7        12        33     9        0.000000       -0.336034         3
        13         7        12        33     9      180.000000        0.183024         4
        13        14        15        16     9        0.000000       -0.234855         1
        13        14        15        16     9      180.000000       21.974599         2
        13        14        15        16     9        0.000000       -0.832354         3
        13        14        15        16     9      180.000000       -0.267029         4
        13        14        15        43     9        0.000000        0.648168         1
        13        14        15        43     9      180.000000       19.948556         2
        13        14        15        43     9        0.000000       -0.070428         3
        13        14        15        43     9      180.000000       -0.087020         4
        13        18        17        16     9        0.000000        0.155316         1
        13        18        17        16     9      180.000000       21.212633         2
        13        18        17        16     9        0.000000       -0.323242         3
        13        18        17        16     9      180.000000       -0.442359         4
        13        18        21        34     9        0.000000       -1.857828         1
        13        18        21        34     9      180.000000        6.959336         2
        13        18        21        34     9        0.000000        0.070225         3
        13        18        21        34     9      180.000000        0.508093         4
        13        18        21        35     9        0.000000       -1.857828         1
        13        18        21        35     9      180.000000        6.959336         2
        13        18        21        35     9        0.000000        0.070225         3
        13        18        21        35     9      180.000000        0.508093         4
        14        13        18        17     9        0.000000       -0.518454         1
        14        13        18        17     9      180.000000        8.384990         2
        14        13        18        17     9        0.000000        0.339742         3
        14        13        18        17     9      180.000000       -0.992058         4
        14        13        18        21     9        0.000000        1.010766         1
        14        13        18        21     9      180.000000       13.212336         2
        14        13        18        21     9        0.000000        0.119265         3
        14        13        18        21     9      180.000000       -0.961934         4
        14        15        16        17     9        0.000000       -1.555203         1
        14        15        16        17     9      180.000000       12.024333         2
        14        15        16        17     9        0.000000       -0.251303         3
        14        15        16        17     9      180.000000       -0.872570         4
        15        14        13        18     9        0.000000        0.047214         1
        15        14        13        18     9      180.000000       22.166909         2
        15        14        13        18     9        0.000000       -0.657733         3
        15        14        13        18     9      180.000000       -0.226006         4
        15        16        17        18     9        0.000000        0.771104         1
        15        16        17        18     9      180.000000       17.678537         2
        15        16        17        18     9        0.000000       -0.199546         3
        15        16        17        18     9      180.000000       -0.343065         4
        16         1         2        24     9        0.000000       -0.190614         1
        16         1         2        24     9      180.000000        0.046469         2
        16         1         2        24     9        0.000000        0.396937         3
        16         1         2        24     9      180.000000        0.033085         4
        16         1         2        25     9        0.000000       -0.190614         1
        16         1         2        25     9      180.000000        0.046469         2
        16         1         2        25     9        0.000000        0.396937         3
        16         1         2        25     9      180.000000        0.033085         4
        16         1         6        29     9        0.000000       -0.190614         1
        16         1         6        29     9      180.000000        0.046469         2
        16         1         6        29     9        0.000000        0.396937         3
        16         1         6        29     9      180.000000        0.033085         4
        16         1         6        30     9        0.000000       -0.190614         1
        16         1         6        30     9      180.000000        0.046469         2
        16         1         6        30     9        0.000000        0.396937         3
        16         1         6        30     9      180.000000        0.033085         4
        16        17        18        21     9        0.000000        0.566929         1
        16        17        18        21     9      180.000000       27.856932         2
        16        17        18        21     9        0.000000        1.109665         3
        16        17        18        21     9      180.000000       -1.060140         4
        17        16        15        43     9        0.000000       -0.209512         1
        17        16        15        43     9      180.000000        9.791389         2
        17        16        15        43     9        0.000000       -0.393828         3
        17        16        15        43     9      180.000000       -0.281030         4
        17        18        21        34     9        0.000000       12.429835         1
        17        18        21        34     9      180.000000        7.688574         2
        17        18        21        34     9        0.000000        0.221701         3
        17        18        21        34     9      180.000000        0.552451         4
        17        18        21        35     9        0.000000       12.429835         1
        17        18        21        35     9      180.000000        7.688574         2
        17        18        21        35     9        0.000000        0.221701         3
        17        18        21        35     9      180.000000        0.552451         4
        19         9         8        20     9        0.000000       -0.205349         1
        19         9         8        20     9      180.000000       19.002199         2
        19         9         8        20     9        0.000000        0.253249         3
        19         9         8        20     9      180.000000       -1.011539         4
        19         9        10        31     9        0.000000        0.106997         1
        19         9        10        31     9      180.000000       13.913808         2
        19         9        10        31     9        0.000000       -0.103000         3
        19         9        10        31     9      180.000000        0.172748         4
        22         3         2        24     9        0.000000       -0.000469         1
        22         3         2        24     9      180.000000       -0.036549         2
        22         3         2        24     9        0.000000        0.613206         3
        22         3         2        24     9      180.000000        0.018208         4
        22         3         2        25     9        0.000000       -0.000469         1
        22         3         2        25     9      180.000000       -0.036549         2
        22         3         2        25     9        0.000000        0.613206         3
        22         3         2        25     9      180.000000        0.018208         4
        22         3         4        27     9        0.000000       -0.401846         1
        22         3         4        27     9      180.000000        0.036719         2
        22         3         4        27     9        0.000000        0.440756         3
        22         3         4        27     9      180.000000        0.041654         4
        22         3         4        42     9        0.000000       -0.401846         1
        22         3         4        42     9      180.000000        0.036719         2
        22         3         4        42     9        0.000000        0.440756         3
        22         3         4        42     9      180.000000        0.041654         4
        23         5         4        27     9        0.000000       -0.401847         1
        23         5         4        27     9      180.000000        0.036719         2
        23         5         4        27     9        0.000000        0.440756         3
        23         5         4        27     9      180.000000        0.041654         4
        23         5         4        42     9        0.000000       -0.401847         1
        23         5         4        42     9      180.000000        0.036720         2
        23         5         4        42     9        0.000000        0.440756         3
        23         5         4        42     9      180.000000        0.041654         4
        23         5         6        29     9        0.000000       -0.000469         1
        23         5         6        29     9      180.000000       -0.036550         2
        23         5         6        29     9        0.000000        0.613206         3
        23         5         6        29     9      180.000000        0.018209         4
        23         5         6        30     9        0.000000       -0.000469         1
        23         5         6        30     9      180.000000       -0.036550         2
        23         5         6        30     9        0.000000        0.613206         3
        23         5         6        30     9      180.000000        0.018209         4
        24         2         3        26     9        0.000000        0.000334         1
        24         2         3        26     9      180.000000        0.083421         2
        24         2         3        26     9        0.000000        0.579727         3
        24         2         3        26     9      180.000000       -0.091433         4
        25         2         3        26     9        0.000000        0.000334         1
        25         2         3        26     9      180.000000        0.083421         2
        25         2         3        26     9        0.000000        0.579727         3
        25         2         3        26     9      180.000000       -0.091433         4
        26         3         4        27     9        0.000000        0.119048         1
        26         3         4        27     9      180.000000       -0.014695         2
        26         3         4        27     9        0.000000        0.465860         3
        26         3         4        27     9      180.000000       -0.021956         4
        26         3         4        42     9        0.000000        0.119047         1
        26         3         4        42     9      180.000000       -0.014695         2
        26         3         4        42     9        0.000000        0.465860         3
        26         3         4        42     9      180.000000       -0.021956         4
        26         3        22        36     9        0.000000       -0.003140         1
        26         3        22        36     9      180.000000        0.073093         2
        26         3        22        36     9        0.000000        0.621463         3
        26         3        22        36     9      180.000000       -0.005802         4
        26         3        22        37     9        0.000000       -0.003140         1
        26         3        22        37     9      180.000000        0.073093         2
        26         3        22        37     9        0.000000        0.621463         3
        26         3        22        37     9      180.000000       -0.005802         4
        26         3        22        38     9        0.000000       -0.003140         1
        26         3        22        38     9      180.000000        0.073093         2
        26         3        22        38     9        0.000000        0.621463         3
        26         3        22        38     9      180.000000       -0.005802         4
        27         4         5        28     9        0.000000        0.119048         1
        27         4         5        28     9      180.000000       -0.014695         2
        27         4         5        28     9        0.000000        0.465860         3
        27         4         5        28     9      180.000000       -0.021956         4
        28         5         4        42     9        0.000000        0.119047         1
        28         5         4        42     9      180.000000       -0.014695         2
        28         5         4        42     9        0.000000        0.465860         3
        28         5         4        42     9      180.000000       -0.021956         4
        28         5         6        29     9        0.000000        0.000334         1
        28         5         6        29     9      180.000000        0.083421         2
        28         5         6        29     9        0.000000        0.579727         3
        28         5         6        29     9      180.000000       -0.091433         4
        28         5         6        30     9        0.000000        0.000334         1
        28         5         6        30     9      180.000000        0.083421         2
        28         5         6        30     9        0.000000        0.579727         3
        28         5         6        30     9      180.000000       -0.091433         4
        28         5        23        39     9        0.000000       -0.003140         1
        28         5        23        39     9      180.000000        0.073094         2
        28         5        23        39     9        0.000000        0.621462         3
        28         5        23        39     9      180.000000       -0.005802         4
        28         5        23        40     9        0.000000       -0.003140         1
        28         5        23        40     9      180.000000        0.073094         2
        28         5        23        40     9        0.000000        0.621462         3
        28         5        23        40     9      180.000000       -0.005802         4
        28         5        23        41     9        0.000000       -0.003140         1
        28         5        23        41     9      180.000000        0.073094         2
        28         5        23        41     9        0.000000        0.621462         3
        28         5        23        41     9      180.000000       -0.005802         4
        31        10        11        32     9        0.000000       -0.213817         1
        31        10        11        32     9      180.000000       11.349868         2
        31        10        11        32     9        0.000000       -0.597407         3
        31        10        11        32     9      180.000000        0.253272         4
        32        11        12        33     9        0.000000       -0.238170         1
        32        11        12        33     9      180.000000       12.190812         2
        32        11        12        33     9        0.000000       -0.736835         3
        32        11        12        33     9      180.000000        0.271760         4

[ dihedrals ] ; impropers
;       ai        aj        ak        al funct           phase               k        pn
        11        10        12        32     4      180.000000        1.660399         2
        11        12        32        10     4      180.000000        1.660399         2
        11        32        10        12     4      180.000000        1.660399         2

[ pairs ]
;       ai        aj funct
         1         4     1
         1        14     1
         1        18     1
         1        22     1
         1        23     1
         1        26     1
         1        28     1
         1        43     1
         2         5     1
         2        15     1
         2        17     1
         2        27     1
         2        29     1
         2        30     1
         2        36     1
         2        37     1
         2        38     1
         2        42     1
         3         6     1
         3        16     1
         3        23     1
         3        28     1
         4        24     1
         4        25     1
         4        29     1
         4        30     1
         4        36     1
         4        37     1
         4        38     1
         4        39     1
         4        40     1
         4        41     1
         5        16     1
         5        22     1
         5        26     1
         6        15     1
         6        17     1
         6        24     1
         6        25     1
         6        27     1
         6        39     1
         6        40     1
         6        41     1
         6        42     1
         7        10     1
         7        15     1
         7        17     1
         7        19     1
         7        21     1
         7        32     1
         8        11     1
         8        14     1
         8        18     1
         8        31     1
         8        33     1
         9        12     1
         9        13     1
         9        32     1
        10        20     1
        10        33     1
        11        13     1
        11        19     1
        12        14     1
        12        18     1
        12        20     1
        12        31     1
        13        16     1
        13        20     1
        13        33     1
        13        34     1
        13        35     1
        13        43     1
        14        17     1
        14        21     1
        15        18     1
        16        21     1
        16        24     1
        16        25     1
        16        29     1
        16        30     1
        17        34     1
        17        35     1
        17        43     1
        19        20     1
        19        31     1
        22        24     1
        22        25     1
        22        27     1
        22        42     1
        23        27     1
        23        29     1
        23        30     1
        23        42     1
        24        26     1
        25        26     1
        26        27     1
        26        36     1
        26        37     1
        26        38     1
        26        42     1
        27        28     1
        28        29     1
        28        30     1
        28        39     1
        28        40     1
        28        41     1
        28        42     1
        31        32     1
        32        33     1
