; ITP file created by ByteFF-ML, 2026-02-21 07:47:40.149706

[ atomtypes ]
;name           bonded.type        at.num        mass        charge   ptype           sigma         epsilon
 n0bf                                   7      0.0000       0.00000       A     3.19026e-01     8.99909e-01
 c1bf                                   6      0.0000       0.00000       A     3.39802e-01     4.51399e-01
 c2bf                                   6      0.0000       0.00000       A     3.39737e-01     4.52316e-01
 c3bf                                   6      0.0000       0.00000       A     3.39953e-01     4.42911e-01
 c4bf                                   6      0.0000       0.00000       A     3.39737e-01     4.52316e-01
 c5bf                                   6      0.0000       0.00000       A     3.39802e-01     4.51399e-01
 c6bf                                   6      0.0000       0.00000       A     3.31352e-01     4.11489e-01
 c7bf                                   6      0.0000       0.00000       A     3.31500e-01     4.13214e-01
 c8bf                                   6      0.0000       0.00000       A     3.39845e-01     4.50839e-01
 c9bf                                   6      0.0000       0.00000       A     3.39836e-01     4.50203e-01
 c10bf                                  6      0.0000       0.00000       A     3.39894e-01     4.51215e-01
 c11bf                                  6      0.0000       0.00000       A     3.39704e-01     4.50372e-01
 c12bf                                  6      0.0000       0.00000       A     3.31500e-01     4.14285e-01
 n13bf                                  7      0.0000       0.00000       A     3.38467e-01     3.90263e-01
 c14bf                                  6      0.0000       0.00000       A     3.31602e-01     4.10980e-01
 c15bf                                  6      0.0000       0.00000       A     3.31347e-01     4.08329e-01
 n16bf                                  7      0.0000       0.00000       A     3.38401e-01     3.92625e-01
 c17bf                                  6      0.0000       0.00000       A     3.31285e-01     4.12381e-01
 n18bf                                  7      0.0000       0.00000       A     3.36717e-01     4.63688e-01
 n19bf                                  7      0.0000       0.00000       A     2.76368e-01     4.74797e+00
 c20bf                                  6      0.0000       0.00000       A     3.39520e-01     4.49397e-01
 h21bf                                  1      0.0000       0.00000       A     2.42252e-01     8.65900e-02
 h22bf                                  1      0.0000       0.00000       A     2.42252e-01     8.65900e-02
 h23bf                                  1      0.0000       0.00000       A     2.59993e-01     8.73289e-02
 h24bf                                  1      0.0000       0.00000       A     2.59993e-01     8.73289e-02
 h25bf                                  1      0.0000       0.00000       A     2.59993e-01     8.73289e-02
 h26bf                                  1      0.0000       0.00000       A     2.59993e-01     8.73289e-02
 h27bf                                  1      0.0000       0.00000       A     2.42252e-01     8.65900e-02
 h28bf                                  1      0.0000       0.00000       A     2.42252e-01     8.65900e-02
 h29bf                                  1      0.0000       0.00000       A     2.62614e-01     6.77531e-02
 h30bf                                  1      0.0000       0.00000       A     2.60084e-01     8.73305e-02
 h31bf                                  1      0.0000       0.00000       A     2.60084e-01     8.73305e-02
 h32bf                                  1      0.0000       0.00000       A     2.59942e-01     8.72236e-02
 h33bf                                  1      0.0000       0.00000       A     2.59942e-01     8.72236e-02
 h34bf                                  1      0.0000       0.00000       A     2.59961e-01     8.73481e-02
 h35bf                                  1      0.0000       0.00000       A     2.59961e-01     8.73481e-02
 h36bf                                  1      0.0000       0.00000       A     2.59865e-01     8.74327e-02
 h37bf                                  1      0.0000       0.00000       A     2.59865e-01     8.74327e-02
 h38bf                                  1      0.0000       0.00000       A     2.53687e-01     6.81841e-02
 h39bf                                  1      0.0000       0.00000       A     1.10348e-01     4.18186e-02
 h40bf                                  1      0.0000       0.00000       A     1.10348e-01     4.18186e-02
 h41bf                                  1      0.0000       0.00000       A     1.10628e-01     4.12153e-02
 h42bf                                  1      0.0000       0.00000       A     1.10628e-01     4.12153e-02
 h43bf                                  1      0.0000       0.00000       A     2.59831e-01     8.81397e-02
 h44bf                                  1      0.0000       0.00000       A     2.59831e-01     8.81397e-02
 h45bf                                  1      0.0000       0.00000       A     2.59831e-01     8.81397e-02
 h46bf                                  1      0.0000       0.00000       A     1.10628e-01     4.12153e-02

[ moleculetype ]
;name             nrexcl
 Example_29            3

[ atoms ]
;       nr            type      resi   res      atom      cgnr      charge          mass ; qtot
         1            n0bf         1   UNL        n0         1    -0.74651       14.0070 ; qtot   -0.747
         2            c1bf         1   UNL        c1         2     0.19684       12.0110 ; qtot   -0.550
         3            c2bf         1   UNL        c2         3    -0.11788       12.0110 ; qtot   -0.668
         4            c3bf         1   UNL        c3         4     0.17018       12.0110 ; qtot   -0.497
         5            c4bf         1   UNL        c4         5    -0.11788       12.0110 ; qtot   -0.615
         6            c5bf         1   UNL        c5         6     0.19684       12.0110 ; qtot   -0.418
         7            c6bf         1   UNL        c6         7    -0.18106       12.0110 ; qtot   -0.599
         8            c7bf         1   UNL        c7         8    -0.18297       12.0110 ; qtot   -0.782
         9            c8bf         1   UNL        c8         9    -0.04607       12.0110 ; qtot   -0.829
        10            c9bf         1   UNL        c9        10    -0.07366       12.0110 ; qtot   -0.902
        11           c10bf         1   UNL       c10        11    -0.07301       12.0110 ; qtot   -0.975
        12           c11bf         1   UNL       c11        12    -0.03347       12.0110 ; qtot   -1.009
        13           c12bf         1   UNL       c12        13     0.27539       12.0110 ; qtot   -0.733
        14           n13bf         1   UNL       n13        14    -0.59459       14.0070 ; qtot   -1.328
        15           c14bf         1   UNL       c14        15     0.19805       12.0110 ; qtot   -1.130
        16           c15bf         1   UNL       c15        16     0.58566       12.0110 ; qtot   -0.544
        17           n16bf         1   UNL       n16        17    -0.79700       14.0070 ; qtot   -1.341
        18           c17bf         1   UNL       c17        18     0.56037       12.0110 ; qtot   -0.781
        19           n18bf         1   UNL       n18        19    -1.01340       14.0070 ; qtot   -1.794
        20           n19bf         1   UNL       n19        20    -0.99988       14.0070 ; qtot   -2.794
        21           c20bf         1   UNL       c20        21    -0.12370       12.0110 ; qtot   -2.918
        22           h21bf         1   UNL       h21        22     0.07540        1.0080 ; qtot   -2.842
        23           h22bf         1   UNL       h22        23     0.07540        1.0080 ; qtot   -2.767
        24           h23bf         1   UNL       h23        24     0.08357        1.0080 ; qtot   -2.683
        25           h24bf         1   UNL       h24        25     0.08357        1.0080 ; qtot   -2.600
        26           h25bf         1   UNL       h25        26     0.08357        1.0080 ; qtot   -2.516
        27           h26bf         1   UNL       h26        27     0.08357        1.0080 ; qtot   -2.433
        28           h27bf         1   UNL       h27        28     0.07540        1.0080 ; qtot   -2.357
        29           h28bf         1   UNL       h28        29     0.07540        1.0080 ; qtot   -2.282
        30           h29bf         1   UNL       h29        30     0.18183        1.0080 ; qtot   -2.100
        31           h30bf         1   UNL       h30        31     0.04831        1.0080 ; qtot   -2.052
        32           h31bf         1   UNL       h31        32     0.04831        1.0080 ; qtot   -2.003
        33           h32bf         1   UNL       h32        33     0.04089        1.0080 ; qtot   -1.963
        34           h33bf         1   UNL       h33        34     0.04089        1.0080 ; qtot   -1.922
        35           h34bf         1   UNL       h34        35     0.04057        1.0080 ; qtot   -1.881
        36           h35bf         1   UNL       h35        36     0.04057        1.0080 ; qtot   -1.840
        37           h36bf         1   UNL       h36        37     0.04996        1.0080 ; qtot   -1.791
        38           h37bf         1   UNL       h37        38     0.04996        1.0080 ; qtot   -1.741
        39           h38bf         1   UNL       h38        39     0.03281        1.0080 ; qtot   -1.708
        40           h39bf         1   UNL       h39        40     0.46048        1.0080 ; qtot   -1.247
        41           h40bf         1   UNL       h40        41     0.46048        1.0080 ; qtot   -0.787
        42           h41bf         1   UNL       h41        42     0.52124        1.0080 ; qtot   -0.266
        43           h42bf         1   UNL       h42        43     0.52124        1.0080 ; qtot    0.256
        44           h43bf         1   UNL       h43        44     0.07436        1.0080 ; qtot    0.330
        45           h44bf         1   UNL       h44        45     0.07436        1.0080 ; qtot    0.404
        46           h45bf         1   UNL       h45        46     0.07436        1.0080 ; qtot    0.479
        47           h46bf         1   UNL       h46        47     0.52125        1.0080 ; qtot    1.000

[ bonds ]
;       ai        aj funct               r               k
         1         2     1        0.146511   188836.836670
         1         6     1        0.146511   188836.836670
         1        16     1        0.138186   283235.272217
         2         3     1        0.154085   170874.544678
         2        22     1        0.109330   299344.974609
         2        23     1        0.109330   299344.974609
         3         4     1        0.153901   170422.129248
         3        24     1        0.109412   300137.493262
         3        25     1        0.109412   300137.493262
         4         5     1        0.153901   170422.129248
         4        20     1        0.155311    81285.091577
         4        21     1        0.152862   185224.433789
         5         6     1        0.154085   170874.544678
         5        26     1        0.109412   300137.493262
         5        27     1        0.109412   300137.493262
         6        28     1        0.109330   299344.974609
         6        29     1        0.109330   299344.974609
         7         8     1        0.134685   469152.349023
         7        12     1        0.151839   186784.061670
         7        13     1        0.148500   205879.154297
         8         9     1        0.150627   204121.447827
         8        30     1        0.108759   314571.527148
         9        10     1        0.153625   186136.555493
         9        31     1        0.109801   287679.520898
         9        32     1        0.109801   287679.520898
        10        11     1        0.153451   187581.036548
        10        33     1        0.109603   293049.157812
        10        34     1        0.109603   293049.157812
        11        12     1        0.153532   186420.451538
        11        35     1        0.109602   292894.760449
        11        36     1        0.109602   292894.760449
        12        37     1        0.109610   292837.633936
        12        38     1        0.109610   292837.633936
        13        14     1        0.134126   298078.487207
        13        18     1        0.142514   218097.639648
        14        15     1        0.132497   360687.307520
        15        16     1        0.142428   229744.834326
        15        39     1        0.108596   318503.782324
        16        17     1        0.134438   289455.345947
        17        18     1        0.133489   321219.168701
        18        19     1        0.138972   293227.764355
        19        40     1        0.101320   417954.173145
        19        41     1        0.101320   417954.173145
        20        42     1        0.102770   380670.861719
        20        43     1        0.102770   380670.861719
        20        47     1        0.102770   380670.861719
        21        44     1        0.109334   304479.006152
        21        45     1        0.109334   304479.006152
        21        46     1        0.109334   304479.006152

[ angles ]
;       ai        aj        ak funct           theta             cth
         1         2         3     1      110.490799      649.030359
         1         2        22     1      109.697311      432.006683
         1         2        23     1      109.697311      432.006683
         1         6         5     1      110.490799      649.030359
         1         6        28     1      109.697311      432.006683
         1         6        29     1      109.697311      432.006683
         1        16        15     1      122.715591      568.701594
         1        16        17     1      117.128281      578.062030
         2         1         6     1      114.291527      468.156312
         2         1        16     1      119.183144      534.130668
         2         3         4     1      111.743065      618.441690
         2         3        24     1      109.261940      501.379453
         2         3        25     1      109.261940      501.379453
         3         2        22     1      109.907776      484.800570
         3         2        23     1      109.907776      484.800570
         3         4         5     1      110.528786      534.982107
         3         4        20     1      106.622520      675.512469
         3         4        21     1      112.587425      600.627258
         4         3        24     1      109.613670      487.526816
         4         3        25     1      109.613670      487.526816
         4         5         6     1      111.743065      618.441690
         4         5        26     1      109.613670      487.526816
         4         5        27     1      109.613670      487.526816
         4        20        42     1      111.194313      445.707501
         4        20        43     1      111.194313      445.707501
         4        20        47     1      111.194313      445.707501
         4        21        44     1      111.123024      496.118936
         4        21        45     1      111.123024      496.118936
         4        21        46     1      111.123024      496.118936
         5         4        20     1      106.622520      675.512469
         5         4        21     1      112.587425      600.627258
         5         6        28     1      109.907776      484.800634
         5         6        29     1      109.907776      484.800634
         6         1        16     1      119.183144      534.130668
         6         5        26     1      109.261940      501.379453
         6         5        27     1      109.261940      501.379453
         7         8         9     1      123.684769      480.130695
         7         8        30     1      118.868019      426.215377
         7        12        11     1      111.981262      622.754078
         7        12        37     1      109.353149      461.339436
         7        12        38     1      109.353149      461.339436
         7        13        14     1      117.392723      497.423883
         7        13        18     1      124.008034      484.344893
         8         7        12     1      121.192162      433.286028
         8         7        13     1      121.360214      473.994542
         8         9        10     1      112.084877      623.542792
         8         9        31     1      109.105690      499.919561
         8         9        32     1      109.105690      499.919561
         9         8        30     1      117.386070      409.645209
         9        10        11     1      110.496384      593.122923
         9        10        33     1      109.640976      511.589317
         9        10        34     1      109.640976      511.589317
        10         9        31     1      110.186546      493.197842
        10         9        32     1      110.186546      493.197842
        10        11        12     1      110.862915      626.811797
        10        11        35     1      110.024940      501.843111
        10        11        36     1      110.024940      501.843111
        11        10        33     1      109.965530      507.278781
        11        10        34     1      109.965530      507.278781
        11        12        37     1      110.024513      501.388551
        11        12        38     1      110.024513      501.388551
        12         7        13     1      117.789207      485.710713
        12        11        35     1      109.412796      513.729167
        12        11        36     1      109.412796      513.729167
        13        14        15     1      119.720261      705.329151
        13        18        17     1      121.625687      653.814737
        13        18        19     1      122.528954      497.549653
        14        13        18     1      118.696854      682.233070
        14        15        16     1      121.618896      803.751788
        14        15        39     1      116.763649      379.374189
        15        16        17     1      119.279991      592.466939
        16        15        39     1      122.268227      369.916968
        16        17        18     1      118.931618      922.168641
        17        18        19     1      116.405617      613.869526
        18        19        40     1      114.056412      469.950230
        18        19        41     1      114.056412      469.950230
        20         4        21     1      106.513611      724.561723
        22         2        23     1      107.284828      347.460113
        24         3        25     1      106.823082      356.804652
        26         5        27     1      106.823082      356.804652
        28         6        29     1      107.284828      347.460113
        31         9        32     1      105.545486      363.933240
        33        10        34     1      106.831955      363.098113
        35        11        36     1      106.788551      361.064689
        37        12        38     1      105.868446      362.785730
        40        19        41     1      114.467148      347.274873
        42        20        43     1      107.909775      400.797366
        42        20        47     1      107.909775      400.797366
        43        20        47     1      107.909775      400.797366
        44        21        45     1      107.934097      360.937961
        44        21        46     1      107.934097      360.937961
        45        21        46     1      107.934082      360.937993

[ dihedrals ] ; propers for gromacs 4.5 or higher, use funct 9
;       ai        aj        ak        al funct           phase               k        pn
         1         2         3         4     9        0.000000        3.493938         1
         1         2         3         4     9      180.000000       -1.749451         2
         1         2         3         4     9        0.000000        0.427505         3
         1         2         3         4     9      180.000000       -0.118074         4
         1         2         3        24     9        0.000000       -0.015747         1
         1         2         3        24     9      180.000000       -0.015028         2
         1         2         3        24     9        0.000000        0.410471         3
         1         2         3        24     9      180.000000       -0.011040         4
         1         2         3        25     9        0.000000       -0.015747         1
         1         2         3        25     9      180.000000       -0.015029         2
         1         2         3        25     9        0.000000        0.410471         3
         1         2         3        25     9      180.000000       -0.011039         4
         1         6         5         4     9        0.000000        3.493938         1
         1         6         5         4     9      180.000000       -1.749451         2
         1         6         5         4     9        0.000000        0.427505         3
         1         6         5         4     9      180.000000       -0.118074         4
         1         6         5        26     9        0.000000       -0.015747         1
         1         6         5        26     9      180.000000       -0.015029         2
         1         6         5        26     9        0.000000        0.410471         3
         1         6         5        26     9      180.000000       -0.011039         4
         1         6         5        27     9        0.000000       -0.015747         1
         1         6         5        27     9      180.000000       -0.015029         2
         1         6         5        27     9        0.000000        0.410471         3
         1         6         5        27     9      180.000000       -0.011039         4
         1        16        15        14     9        0.000000        0.643315         1
         1        16        15        14     9      180.000000       11.305814         2
         1        16        15        14     9        0.000000        0.420216         3
         1        16        15        14     9      180.000000       -0.845171         4
         1        16        15        39     9        0.000000       -0.158800         1
         1        16        15        39     9      180.000000       10.121508         2
         1        16        15        39     9        0.000000       -0.123234         3
         1        16        15        39     9      180.000000       -0.210237         4
         1        16        17        18     9        0.000000        2.027155         1
         1        16        17        18     9      180.000000       19.647582         2
         1        16        17        18     9        0.000000        0.976774         3
         1        16        17        18     9      180.000000       -1.139553         4
         2         1         6         5     9        0.000000        0.097834         1
         2         1         6         5     9      180.000000        0.071711         2
         2         1         6         5     9        0.000000        0.801694         3
         2         1         6         5     9      180.000000        0.019443         4
         2         1         6        28     9        0.000000        0.061239         1
         2         1         6        28     9      180.000000        0.125634         2
         2         1         6        28     9        0.000000        0.910232         3
         2         1         6        28     9      180.000000        0.047377         4
         2         1         6        29     9        0.000000        0.061239         1
         2         1         6        29     9      180.000000        0.125634         2
         2         1         6        29     9        0.000000        0.910232         3
         2         1         6        29     9      180.000000        0.047377         4
         2         1        16        15     9        0.000000        2.757791         1
         2         1        16        15     9      180.000000        6.825664         2
         2         1        16        15     9        0.000000       -0.238677         3
         2         1        16        15     9      180.000000        0.116114         4
         2         1        16        17     9        0.000000        0.632499         1
         2         1        16        17     9      180.000000        7.595872         2
         2         1        16        17     9        0.000000       -0.422134         3
         2         1        16        17     9      180.000000        0.034350         4
         2         3         4         5     9        0.000000        3.305309         1
         2         3         4         5     9      180.000000       -1.662805         2
         2         3         4         5     9        0.000000        0.073143         3
         2         3         4         5     9      180.000000        0.016898         4
         2         3         4        20     9        0.000000        3.630557         1
         2         3         4        20     9      180.000000       -1.235852         2
         2         3         4        20     9        0.000000        0.455688         3
         2         3         4        20     9      180.000000        0.423887         4
         2         3         4        21     9        0.000000       -2.449354         1
         2         3         4        21     9      180.000000        1.049946         2
         2         3         4        21     9        0.000000        0.264187         3
         2         3         4        21     9      180.000000        0.059308         4
         3         2         1         6     9        0.000000        0.097834         1
         3         2         1         6     9      180.000000        0.071711         2
         3         2         1         6     9        0.000000        0.801694         3
         3         2         1         6     9      180.000000        0.019443         4
         3         2         1        16     9        0.000000       -1.074942         1
         3         2         1        16     9      180.000000        0.926658         2
         3         2         1        16     9        0.000000        0.495629         3
         3         2         1        16     9      180.000000        0.049013         4
         3         4         5         6     9        0.000000        3.305309         1
         3         4         5         6     9      180.000000       -1.662805         2
         3         4         5         6     9        0.000000        0.073143         3
         3         4         5         6     9      180.000000        0.016898         4
         3         4         5        26     9        0.000000        0.007174         1
         3         4         5        26     9      180.000000        0.103972         2
         3         4         5        26     9        0.000000        0.342335         3
         3         4         5        26     9      180.000000       -0.008057         4
         3         4         5        27     9        0.000000        0.007174         1
         3         4         5        27     9      180.000000        0.103972         2
         3         4         5        27     9        0.000000        0.342335         3
         3         4         5        27     9      180.000000       -0.008057         4
         3         4        20        42     9        0.000000        0.062222         1
         3         4        20        42     9      180.000000        0.164656         2
         3         4        20        42     9        0.000000        0.559493         3
         3         4        20        42     9      180.000000        0.034876         4
         3         4        20        43     9        0.000000        0.062222         1
         3         4        20        43     9      180.000000        0.164656         2
         3         4        20        43     9        0.000000        0.559493         3
         3         4        20        43     9      180.000000        0.034876         4
         3         4        20        47     9        0.000000        0.062222         1
         3         4        20        47     9      180.000000        0.164656         2
         3         4        20        47     9        0.000000        0.559493         3
         3         4        20        47     9      180.000000        0.034876         4
         3         4        21        44     9        0.000000        0.001962         1
         3         4        21        44     9      180.000000        0.017089         2
         3         4        21        44     9        0.000000        0.502026         3
         3         4        21        44     9      180.000000        0.013943         4
         3         4        21        45     9        0.000000        0.001962         1
         3         4        21        45     9      180.000000        0.017089         2
         3         4        21        45     9        0.000000        0.502026         3
         3         4        21        45     9      180.000000        0.013943         4
         3         4        21        46     9        0.000000        0.001962         1
         3         4        21        46     9      180.000000        0.017089         2
         3         4        21        46     9        0.000000        0.502026         3
         3         4        21        46     9      180.000000        0.013943         4
         4         3         2        22     9        0.000000       -0.110172         1
         4         3         2        22     9      180.000000       -0.011484         2
         4         3         2        22     9        0.000000        0.408420         3
         4         3         2        22     9      180.000000        0.004907         4
         4         3         2        23     9        0.000000       -0.110172         1
         4         3         2        23     9      180.000000       -0.011484         2
         4         3         2        23     9        0.000000        0.408420         3
         4         3         2        23     9      180.000000        0.004907         4
         4         5         6        28     9        0.000000       -0.110172         1
         4         5         6        28     9      180.000000       -0.011484         2
         4         5         6        28     9        0.000000        0.408420         3
         4         5         6        28     9      180.000000        0.004906         4
         4         5         6        29     9        0.000000       -0.110172         1
         4         5         6        29     9      180.000000       -0.011484         2
         4         5         6        29     9        0.000000        0.408420         3
         4         5         6        29     9      180.000000        0.004906         4
         5         4         3        24     9        0.000000        0.007174         1
         5         4         3        24     9      180.000000        0.103971         2
         5         4         3        24     9        0.000000        0.342335         3
         5         4         3        24     9      180.000000       -0.008056         4
         5         4         3        25     9        0.000000        0.007174         1
         5         4         3        25     9      180.000000        0.103972         2
         5         4         3        25     9        0.000000        0.342335         3
         5         4         3        25     9      180.000000       -0.008057         4
         5         4        20        42     9        0.000000        0.062222         1
         5         4        20        42     9      180.000000        0.164656         2
         5         4        20        42     9        0.000000        0.559493         3
         5         4        20        42     9      180.000000        0.034876         4
         5         4        20        43     9        0.000000        0.062222         1
         5         4        20        43     9      180.000000        0.164656         2
         5         4        20        43     9        0.000000        0.559493         3
         5         4        20        43     9      180.000000        0.034876         4
         5         4        20        47     9        0.000000        0.062222         1
         5         4        20        47     9      180.000000        0.164656         2
         5         4        20        47     9        0.000000        0.559493         3
         5         4        20        47     9      180.000000        0.034876         4
         5         4        21        44     9        0.000000        0.001962         1
         5         4        21        44     9      180.000000        0.017089         2
         5         4        21        44     9        0.000000        0.502026         3
         5         4        21        44     9      180.000000        0.013943         4
         5         4        21        45     9        0.000000        0.001962         1
         5         4        21        45     9      180.000000        0.017089         2
         5         4        21        45     9        0.000000        0.502026         3
         5         4        21        45     9      180.000000        0.013943         4
         5         4        21        46     9        0.000000        0.001962         1
         5         4        21        46     9      180.000000        0.017089         2
         5         4        21        46     9        0.000000        0.502026         3
         5         4        21        46     9      180.000000        0.013943         4
         5         6         1        16     9        0.000000       -1.074942         1
         5         6         1        16     9      180.000000        0.926658         2
         5         6         1        16     9        0.000000        0.495629         3
         5         6         1        16     9      180.000000        0.049013         4
         6         1         2        22     9        0.000000        0.061238         1
         6         1         2        22     9      180.000000        0.125634         2
         6         1         2        22     9        0.000000        0.910232         3
         6         1         2        22     9      180.000000        0.047377         4
         6         1         2        23     9        0.000000        0.061238         1
         6         1         2        23     9      180.000000        0.125634         2
         6         1         2        23     9        0.000000        0.910232         3
         6         1         2        23     9      180.000000        0.047377         4
         6         1        16        15     9        0.000000        2.757791         1
         6         1        16        15     9      180.000000        6.825664         2
         6         1        16        15     9        0.000000       -0.238677         3
         6         1        16        15     9      180.000000        0.116114         4
         6         1        16        17     9        0.000000        0.632499         1
         6         1        16        17     9      180.000000        7.595872         2
         6         1        16        17     9        0.000000       -0.422134         3
         6         1        16        17     9      180.000000        0.034350         4
         6         5         4        20     9        0.000000        3.630557         1
         6         5         4        20     9      180.000000       -1.235852         2
         6         5         4        20     9        0.000000        0.455688         3
         6         5         4        20     9      180.000000        0.423887         4
         6         5         4        21     9        0.000000       -2.449354         1
         6         5         4        21     9      180.000000        1.049946         2
         6         5         4        21     9        0.000000        0.264187         3
         6         5         4        21     9      180.000000        0.059308         4
         7         8         9        10     9        0.000000       -0.630317         1
         7         8         9        10     9      180.000000        0.013142         2
         7         8         9        10     9        0.000000       -0.804382         3
         7         8         9        10     9      180.000000        0.221642         4
         7         8         9        31     9        0.000000       -0.013016         1
         7         8         9        31     9      180.000000       -0.157540         2
         7         8         9        31     9        0.000000       -0.785319         3
         7         8         9        31     9      180.000000       -0.110376         4
         7         8         9        32     9        0.000000       -0.013016         1
         7         8         9        32     9      180.000000       -0.157540         2
         7         8         9        32     9        0.000000       -0.785319         3
         7         8         9        32     9      180.000000       -0.110376         4
         7        12        11        10     9        0.000000       -0.025564         1
         7        12        11        10     9      180.000000       -1.191568         2
         7        12        11        10     9        0.000000        0.534820         3
         7        12        11        10     9      180.000000       -0.036443         4
         7        12        11        35     9        0.000000       -0.002028         1
         7        12        11        35     9      180.000000        0.040201         2
         7        12        11        35     9        0.000000        0.437242         3
         7        12        11        35     9      180.000000       -0.005315         4
         7        12        11        36     9        0.000000       -0.002028         1
         7        12        11        36     9      180.000000        0.040201         2
         7        12        11        36     9        0.000000        0.437242         3
         7        12        11        36     9      180.000000       -0.005315         4
         7        13        14        15     9        0.000000        0.566018         1
         7        13        14        15     9      180.000000       24.077470         2
         7        13        14        15     9        0.000000        0.711641         3
         7        13        14        15     9      180.000000       -0.922156         4
         7        13        18        17     9        0.000000       -0.730906         1
         7        13        18        17     9      180.000000        8.060416         2
         7        13        18        17     9        0.000000        0.224617         3
         7        13        18        17     9      180.000000       -0.521718         4
         7        13        18        19     9        0.000000        0.929757         1
         7        13        18        19     9      180.000000       12.252446         2
         7        13        18        19     9        0.000000        0.211230         3
         7        13        18        19     9      180.000000       -0.578363         4
         8         7        12        11     9        0.000000       -0.035241         1
         8         7        12        11     9      180.000000       -0.072199         2
         8         7        12        11     9        0.000000       -0.628568         3
         8         7        12        11     9      180.000000        0.171852         4
         8         7        12        37     9        0.000000       -0.111102         1
         8         7        12        37     9      180.000000       -0.100211         2
         8         7        12        37     9        0.000000       -0.670275         3
         8         7        12        37     9      180.000000       -0.006949         4
         8         7        12        38     9        0.000000       -0.111102         1
         8         7        12        38     9      180.000000       -0.100211         2
         8         7        12        38     9        0.000000       -0.670275         3
         8         7        12        38     9      180.000000       -0.006949         4
         8         7        13        14     9        0.000000        1.391046         1
         8         7        13        14     9      180.000000        3.055432         2
         8         7        13        14     9        0.000000        0.116909         3
         8         7        13        14     9      180.000000       -0.059749         4
         8         7        13        18     9        0.000000        0.109352         1
         8         7        13        18     9      180.000000        2.123023         2
         8         7        13        18     9        0.000000       -0.236472         3
         8         7        13        18     9      180.000000        0.006052         4
         8         9        10        11     9        0.000000        0.065451         1
         8         9        10        11     9      180.000000       -0.565536         2
         8         9        10        11     9        0.000000        0.535178         3
         8         9        10        11     9      180.000000       -0.094089         4
         8         9        10        33     9        0.000000       -0.049686         1
         8         9        10        33     9      180.000000        0.020113         2
         8         9        10        33     9        0.000000        0.477345         3
         8         9        10        33     9      180.000000        0.004142         4
         8         9        10        34     9        0.000000       -0.049686         1
         8         9        10        34     9      180.000000        0.020113         2
         8         9        10        34     9        0.000000        0.477345         3
         8         9        10        34     9      180.000000        0.004142         4
         9         8         7        12     9        0.000000        0.539311         1
         9         8         7        12     9      180.000000       27.804577         2
         9         8         7        12     9        0.000000        0.848122         3
         9         8         7        12     9      180.000000       -1.512905         4
         9         8         7        13     9        0.000000       -0.080567         1
         9         8         7        13     9      180.000000       28.952199         2
         9         8         7        13     9        0.000000        1.250041         3
         9         8         7        13     9      180.000000       -1.917566         4
         9        10        11        12     9        0.000000        0.128388         1
         9        10        11        12     9      180.000000       -0.652034         2
         9        10        11        12     9        0.000000       -0.036162         3
         9        10        11        12     9      180.000000        0.296362         4
         9        10        11        35     9        0.000000        0.000487         1
         9        10        11        35     9      180.000000        0.015819         2
         9        10        11        35     9        0.000000        0.175466         3
         9        10        11        35     9      180.000000        0.004601         4
         9        10        11        36     9        0.000000        0.000487         1
         9        10        11        36     9      180.000000        0.015819         2
         9        10        11        36     9        0.000000        0.175466         3
         9        10        11        36     9      180.000000        0.004601         4
        10         9         8        30     9        0.000000       -0.733810         1
        10         9         8        30     9      180.000000       -0.870054         2
        10         9         8        30     9        0.000000       -0.109348         3
        10         9         8        30     9      180.000000        0.413094         4
        10        11        12        37     9        0.000000       -0.038266         1
        10        11        12        37     9      180.000000        0.044801         2
        10        11        12        37     9        0.000000        0.402763         3
        10        11        12        37     9      180.000000        0.007529         4
        10        11        12        38     9        0.000000       -0.038266         1
        10        11        12        38     9      180.000000        0.044801         2
        10        11        12        38     9        0.000000        0.402763         3
        10        11        12        38     9      180.000000        0.007529         4
        11        10         9        31     9        0.000000       -0.040161         1
        11        10         9        31     9      180.000000        0.019096         2
        11        10         9        31     9        0.000000        0.407015         3
        11        10         9        31     9      180.000000        0.019039         4
        11        10         9        32     9        0.000000       -0.040161         1
        11        10         9        32     9      180.000000        0.019096         2
        11        10         9        32     9        0.000000        0.407015         3
        11        10         9        32     9      180.000000        0.019039         4
        11        12         7        13     9        0.000000       -1.397505         1
        11        12         7        13     9      180.000000       -0.285609         2
        11        12         7        13     9        0.000000        0.375166         3
        11        12         7        13     9      180.000000        0.077449         4
        12         7         8        30     9        0.000000        0.378225         1
        12         7         8        30     9      180.000000       26.012181         2
        12         7         8        30     9        0.000000        0.668592         3
        12         7         8        30     9      180.000000       -0.481468         4
        12         7        13        14     9        0.000000       -3.363015         1
        12         7        13        14     9      180.000000        3.759302         2
        12         7        13        14     9        0.000000       -0.241632         3
        12         7        13        14     9      180.000000        0.130584         4
        12         7        13        18     9        0.000000        3.030712         1
        12         7        13        18     9      180.000000        1.016640         2
        12         7        13        18     9        0.000000        0.679496         3
        12         7        13        18     9      180.000000        0.147454         4
        12        11        10        33     9        0.000000       -0.004760         1
        12        11        10        33     9      180.000000        0.023470         2
        12        11        10        33     9        0.000000        0.195824         3
        12        11        10        33     9      180.000000       -0.006441         4
        12        11        10        34     9        0.000000       -0.004760         1
        12        11        10        34     9      180.000000        0.023470         2
        12        11        10        34     9        0.000000        0.195824         3
        12        11        10        34     9      180.000000       -0.006441         4
        13         7         8        30     9        0.000000        0.406758         1
        13         7         8        30     9      180.000000       25.371715         2
        13         7         8        30     9        0.000000        0.963240         3
        13         7         8        30     9      180.000000       -0.751192         4
        13         7        12        37     9        0.000000        0.179707         1
        13         7        12        37     9      180.000000        0.070014         2
        13         7        12        37     9        0.000000        0.224133         3
        13         7        12        37     9      180.000000       -0.082946         4
        13         7        12        38     9        0.000000        0.179707         1
        13         7        12        38     9      180.000000        0.070014         2
        13         7        12        38     9        0.000000        0.224133         3
        13         7        12        38     9      180.000000       -0.082946         4
        13        14        15        16     9        0.000000       -0.099789         1
        13        14        15        16     9      180.000000       22.494702         2
        13        14        15        16     9        0.000000       -0.986202         3
        13        14        15        16     9      180.000000       -0.282375         4
        13        14        15        39     9        0.000000        0.444191         1
        13        14        15        39     9      180.000000       20.456322         2
        13        14        15        39     9        0.000000        0.002408         3
        13        14        15        39     9      180.000000       -0.074147         4
        13        18        17        16     9        0.000000        0.112905         1
        13        18        17        16     9      180.000000       20.020044         2
        13        18        17        16     9        0.000000       -0.382329         3
        13        18        17        16     9      180.000000       -0.263921         4
        13        18        19        40     9        0.000000        0.440072         1
        13        18        19        40     9      180.000000        6.420911         2
        13        18        19        40     9        0.000000        0.474508         3
        13        18        19        40     9      180.000000        0.427060         4
        13        18        19        41     9        0.000000        0.440072         1
        13        18        19        41     9      180.000000        6.420911         2
        13        18        19        41     9        0.000000        0.474508         3
        13        18        19        41     9      180.000000        0.427060         4
        14        13        18        17     9        0.000000       -1.108049         1
        14        13        18        17     9      180.000000        7.951140         2
        14        13        18        17     9        0.000000        0.188326         3
        14        13        18        17     9      180.000000       -0.655082         4
        14        13        18        19     9        0.000000        1.414075         1
        14        13        18        19     9      180.000000       11.494795         2
        14        13        18        19     9        0.000000        0.235000         3
        14        13        18        19     9      180.000000       -0.855040         4
        14        15        16        17     9        0.000000       -1.133532         1
        14        15        16        17     9      180.000000        8.354551         2
        14        15        16        17     9        0.000000        0.188974         3
        14        15        16        17     9      180.000000       -0.801240         4
        15        14        13        18     9        0.000000        0.094821         1
        15        14        13        18     9      180.000000       21.632306         2
        15        14        13        18     9        0.000000       -0.449648         3
        15        14        13        18     9      180.000000       -0.267921         4
        15        16        17        18     9        0.000000        1.541590         1
        15        16        17        18     9      180.000000       13.035098         2
        15        16        17        18     9        0.000000        0.526906         3
        15        16        17        18     9      180.000000       -0.632772         4
        16         1         2        22     9        0.000000        0.048989         1
        16         1         2        22     9      180.000000        0.020477         2
        16         1         2        22     9        0.000000        0.603697         3
        16         1         2        22     9      180.000000       -0.015968         4
        16         1         2        23     9        0.000000        0.048989         1
        16         1         2        23     9      180.000000        0.020477         2
        16         1         2        23     9        0.000000        0.603697         3
        16         1         2        23     9      180.000000       -0.015968         4
        16         1         6        28     9        0.000000        0.048989         1
        16         1         6        28     9      180.000000        0.020477         2
        16         1         6        28     9        0.000000        0.603697         3
        16         1         6        28     9      180.000000       -0.015968         4
        16         1         6        29     9        0.000000        0.048989         1
        16         1         6        29     9      180.000000        0.020477         2
        16         1         6        29     9        0.000000        0.603697         3
        16         1         6        29     9      180.000000       -0.015968         4
        16        17        18        19     9        0.000000        0.354852         1
        16        17        18        19     9      180.000000       28.887367         2
        16        17        18        19     9        0.000000        0.756607         3
        16        17        18        19     9      180.000000       -1.228955         4
        17        16        15        39     9        0.000000       -0.342430         1
        17        16        15        39     9      180.000000        7.257402         2
        17        16        15        39     9        0.000000       -0.317849         3
        17        16        15        39     9      180.000000       -0.303621         4
        17        18        19        40     9        0.000000       12.014115         1
        17        18        19        40     9      180.000000        7.781978         2
        17        18        19        40     9        0.000000        0.258883         3
        17        18        19        40     9      180.000000        0.559980         4
        17        18        19        41     9        0.000000       12.014115         1
        17        18        19        41     9      180.000000        7.781978         2
        17        18        19        41     9        0.000000        0.258883         3
        17        18        19        41     9      180.000000        0.559980         4
        20         4         3        24     9        0.000000       -0.169322         1
        20         4         3        24     9      180.000000        0.053937         2
        20         4         3        24     9        0.000000        0.536176         3
        20         4         3        24     9      180.000000       -0.087261         4
        20         4         3        25     9        0.000000       -0.169322         1
        20         4         3        25     9      180.000000        0.053936         2
        20         4         3        25     9        0.000000        0.536176         3
        20         4         3        25     9      180.000000       -0.087261         4
        20         4         5        26     9        0.000000       -0.169322         1
        20         4         5        26     9      180.000000        0.053936         2
        20         4         5        26     9        0.000000        0.536176         3
        20         4         5        26     9      180.000000       -0.087261         4
        20         4         5        27     9        0.000000       -0.169322         1
        20         4         5        27     9      180.000000        0.053936         2
        20         4         5        27     9        0.000000        0.536176         3
        20         4         5        27     9      180.000000       -0.087261         4
        20         4        21        44     9        0.000000       -0.256019         1
        20         4        21        44     9      180.000000       -0.145327         2
        20         4        21        44     9        0.000000        0.609264         3
        20         4        21        44     9      180.000000        0.002710         4
        20         4        21        45     9        0.000000       -0.256019         1
        20         4        21        45     9      180.000000       -0.145327         2
        20         4        21        45     9        0.000000        0.609264         3
        20         4        21        45     9      180.000000        0.002710         4
        20         4        21        46     9        0.000000       -0.256019         1
        20         4        21        46     9      180.000000       -0.145327         2
        20         4        21        46     9        0.000000        0.609264         3
        20         4        21        46     9      180.000000        0.002710         4
        21         4         3        24     9        0.000000        0.063473         1
        21         4         3        24     9      180.000000        0.001370         2
        21         4         3        24     9        0.000000        0.453990         3
        21         4         3        24     9      180.000000        0.000725         4
        21         4         3        25     9        0.000000        0.063473         1
        21         4         3        25     9      180.000000        0.001370         2
        21         4         3        25     9        0.000000        0.453990         3
        21         4         3        25     9      180.000000        0.000725         4
        21         4         5        26     9        0.000000        0.063473         1
        21         4         5        26     9      180.000000        0.001370         2
        21         4         5        26     9        0.000000        0.453990         3
        21         4         5        26     9      180.000000        0.000725         4
        21         4         5        27     9        0.000000        0.063473         1
        21         4         5        27     9      180.000000        0.001370         2
        21         4         5        27     9        0.000000        0.453990         3
        21         4         5        27     9      180.000000        0.000725         4
        21         4        20        42     9        0.000000       -0.241237         1
        21         4        20        42     9      180.000000        0.219200         2
        21         4        20        42     9        0.000000        0.596224         3
        21         4        20        42     9      180.000000        0.018226         4
        21         4        20        43     9        0.000000       -0.241237         1
        21         4        20        43     9      180.000000        0.219200         2
        21         4        20        43     9        0.000000        0.596224         3
        21         4        20        43     9      180.000000        0.018226         4
        21         4        20        47     9        0.000000       -0.241237         1
        21         4        20        47     9      180.000000        0.219200         2
        21         4        20        47     9        0.000000        0.596224         3
        21         4        20        47     9      180.000000        0.018226         4
        22         2         3        24     9        0.000000       -0.008238         1
        22         2         3        24     9      180.000000        0.010356         2
        22         2         3        24     9        0.000000        0.419133         3
        22         2         3        24     9      180.000000       -0.004233         4
        22         2         3        25     9        0.000000       -0.008238         1
        22         2         3        25     9      180.000000        0.010356         2
        22         2         3        25     9        0.000000        0.419133         3
        22         2         3        25     9      180.000000       -0.004233         4
        23         2         3        24     9        0.000000       -0.008238         1
        23         2         3        24     9      180.000000        0.010356         2
        23         2         3        24     9        0.000000        0.419133         3
        23         2         3        24     9      180.000000       -0.004233         4
        23         2         3        25     9        0.000000       -0.008238         1
        23         2         3        25     9      180.000000        0.010356         2
        23         2         3        25     9        0.000000        0.419133         3
        23         2         3        25     9      180.000000       -0.004233         4
        26         5         6        28     9        0.000000       -0.008238         1
        26         5         6        28     9      180.000000        0.010357         2
        26         5         6        28     9        0.000000        0.419133         3
        26         5         6        28     9      180.000000       -0.004232         4
        26         5         6        29     9        0.000000       -0.008238         1
        26         5         6        29     9      180.000000        0.010357         2
        26         5         6        29     9        0.000000        0.419133         3
        26         5         6        29     9      180.000000       -0.004232         4
        27         5         6        28     9        0.000000       -0.008238         1
        27         5         6        28     9      180.000000        0.010357         2
        27         5         6        28     9        0.000000        0.419133         3
        27         5         6        28     9      180.000000       -0.004232         4
        27         5         6        29     9        0.000000       -0.008238         1
        27         5         6        29     9      180.000000        0.010357         2
        27         5         6        29     9        0.000000        0.419133         3
        27         5         6        29     9      180.000000       -0.004232         4
        30         8         9        31     9        0.000000        0.159267         1
        30         8         9        31     9      180.000000        0.209168         2
        30         8         9        31     9        0.000000       -0.268854         3
        30         8         9        31     9      180.000000       -0.215694         4
        30         8         9        32     9        0.000000        0.159267         1
        30         8         9        32     9      180.000000        0.209168         2
        30         8         9        32     9        0.000000       -0.268854         3
        30         8         9        32     9      180.000000       -0.215694         4
        31         9        10        33     9        0.000000       -0.013653         1
        31         9        10        33     9      180.000000        0.002783         2
        31         9        10        33     9        0.000000        0.451952         3
        31         9        10        33     9      180.000000       -0.003998         4
        31         9        10        34     9        0.000000       -0.013653         1
        31         9        10        34     9      180.000000        0.002783         2
        31         9        10        34     9        0.000000        0.451952         3
        31         9        10        34     9      180.000000       -0.003998         4
        32         9        10        33     9        0.000000       -0.013653         1
        32         9        10        33     9      180.000000        0.002783         2
        32         9        10        33     9        0.000000        0.451952         3
        32         9        10        33     9      180.000000       -0.003998         4
        32         9        10        34     9        0.000000       -0.013653         1
        32         9        10        34     9      180.000000        0.002783         2
        32         9        10        34     9        0.000000        0.451952         3
        32         9        10        34     9      180.000000       -0.003998         4
        33        10        11        35     9        0.000000        0.014379         1
        33        10        11        35     9      180.000000        0.008158         2
        33        10        11        35     9        0.000000        0.280522         3
        33        10        11        35     9      180.000000       -0.002792         4
        33        10        11        36     9        0.000000        0.014379         1
        33        10        11        36     9      180.000000        0.008158         2
        33        10        11        36     9        0.000000        0.280522         3
        33        10        11        36     9      180.000000       -0.002792         4
        34        10        11        35     9        0.000000        0.014379         1
        34        10        11        35     9      180.000000        0.008158         2
        34        10        11        35     9        0.000000        0.280522         3
        34        10        11        35     9      180.000000       -0.002792         4
        34        10        11        36     9        0.000000        0.014379         1
        34        10        11        36     9      180.000000        0.008158         2
        34        10        11        36     9        0.000000        0.280522         3
        34        10        11        36     9      180.000000       -0.002792         4
        35        11        12        37     9        0.000000       -0.011547         1
        35        11        12        37     9      180.000000       -0.005198         2
        35        11        12        37     9        0.000000        0.393515         3
        35        11        12        37     9      180.000000        0.007441         4
        35        11        12        38     9        0.000000       -0.011547         1
        35        11        12        38     9      180.000000       -0.005198         2
        35        11        12        38     9        0.000000        0.393515         3
        35        11        12        38     9      180.000000        0.007441         4
        36        11        12        37     9        0.000000       -0.011547         1
        36        11        12        37     9      180.000000       -0.005198         2
        36        11        12        37     9        0.000000        0.393515         3
        36        11        12        37     9      180.000000        0.007441         4
        36        11        12        38     9        0.000000       -0.011547         1
        36        11        12        38     9      180.000000       -0.005198         2
        36        11        12        38     9        0.000000        0.393515         3
        36        11        12        38     9      180.000000        0.007441         4

[ dihedrals ] ; impropers
;       ai        aj        ak        al funct           phase               k        pn
         8         7         9        30     4      180.000000        2.483421         2
         8         9        30         7     4      180.000000        2.483421         2
         8        30         7         9     4      180.000000        2.483421         2

[ pairs ]
;       ai        aj funct
         1         4     1
         1        14     1
         1        18     1
         1        24     1
         1        25     1
         1        26     1
         1        27     1
         1        39     1
         2         5     1
         2        15     1
         2        17     1
         2        20     1
         2        21     1
         2        28     1
         2        29     1
         3         6     1
         3        16     1
         3        26     1
         3        27     1
         3        42     1
         3        43     1
         3        44     1
         3        45     1
         3        46     1
         3        47     1
         4        22     1
         4        23     1
         4        28     1
         4        29     1
         5        16     1
         5        24     1
         5        25     1
         5        42     1
         5        43     1
         5        44     1
         5        45     1
         5        46     1
         5        47     1
         6        15     1
         6        17     1
         6        20     1
         6        21     1
         6        22     1
         6        23     1
         7        10     1
         7        15     1
         7        17     1
         7        19     1
         7        31     1
         7        32     1
         7        35     1
         7        36     1
         8        11     1
         8        14     1
         8        18     1
         8        33     1
         8        34     1
         8        37     1
         8        38     1
         9        12     1
         9        13     1
         9        35     1
         9        36     1
        10        30     1
        10        37     1
        10        38     1
        11        13     1
        11        31     1
        11        32     1
        12        14     1
        12        18     1
        12        30     1
        12        33     1
        12        34     1
        13        16     1
        13        30     1
        13        37     1
        13        38     1
        13        39     1
        13        40     1
        13        41     1
        14        17     1
        14        19     1
        15        18     1
        16        19     1
        16        22     1
        16        23     1
        16        28     1
        16        29     1
        17        39     1
        17        40     1
        17        41     1
        20        24     1
        20        25     1
        20        26     1
        20        27     1
        20        44     1
        20        45     1
        20        46     1
        21        24     1
        21        25     1
        21        26     1
        21        27     1
        21        42     1
        21        43     1
        21        47     1
        22        24     1
        22        25     1
        23        24     1
        23        25     1
        26        28     1
        26        29     1
        27        28     1
        27        29     1
        30        31     1
        30        32     1
        31        33     1
        31        34     1
        32        33     1
        32        34     1
        33        35     1
        33        36     1
        34        35     1
        34        36     1
        35        37     1
        35        38     1
        36        37     1
        36        38     1
