clashed crystal waters from misc/galectin3_extra
9
    3SOL     OW    7   1.452  -0.630  -0.201
    3SOL    HW1    8   1.441  -0.730  -0.193
    3SOL    HW2    9   1.466  -0.591  -0.111
   75SOL     OW  223   1.589  -0.892   0.154
   75SOL    HW1  224   1.588  -0.954   0.232
   75SOL    HW2  225   1.519  -0.919   0.088
   93SOL     OW  277   0.543  -0.933   0.208
   93SOL    HW1  278   0.493  -0.858   0.165
   93SOL    HW2  279   0.478  -0.997   0.249
    4.1837    4.1837    4.1837
