Generated by PDBParser
486
    1SOL     OW    1   1.516  -1.178   1.745
    1SOL    HW1    2   1.518  -1.107   1.675
    1SOL    HW2    3   1.531  -1.137   1.834
    2SOL     OW    4   0.856  -0.027  -0.308
    2SOL    HW1    5   0.828  -0.122  -0.300
    2SOL    HW2    6   0.794   0.021  -0.370
    3SOL     OW    7   1.452  -0.630  -0.201
    3SOL    HW1    8   1.441  -0.730  -0.193
    3SOL    HW2    9   1.466  -0.591  -0.111
    4SOL     OW   10   0.476  -0.265  -0.117
    4SOL    HW1   11   0.439  -0.218  -0.037
    4SOL    HW2   12   0.472  -0.204  -0.196
    5SOL     OW   13   2.610   1.369   0.559
    5SOL    HW1   14   2.539   1.435   0.580
    5SOL    HW2   15   2.660   1.397   0.478
    6SOL     OW   16   1.370  -0.346  -0.981
    6SOL    HW1   17   1.385  -0.440  -0.949
    6SOL    HW2   18   1.455  -0.309  -1.018
    7SOL     OW   19  -0.114  -0.739   0.823
    7SOL    HW1   20  -0.161  -0.674   0.763
    7SOL    HW2   21  -0.071  -0.811   0.767
    8SOL     OW   22   0.910  -0.340   0.112
    8SOL    HW1   23   0.880  -0.253   0.152
    8SOL    HW2   24   1.009  -0.348   0.120
    9SOL     OW   25   2.318   1.968   0.687
    9SOL    HW1   26   2.336   1.870   0.679
    9SOL    HW2   27   2.270   2.000   0.606
   10SOL     OW   28   1.223  -0.541  -0.034
   10SOL    HW1   29   1.191  -0.447  -0.021
   10SOL    HW2   30   1.164  -0.605   0.015
   11SOL     OW   31   2.229  -0.943   1.641
   11SOL    HW1   32   2.207  -0.957   1.545
   11SOL    HW2   33   2.244  -0.845   1.657
   12SOL     OW   34  -0.082  -1.012   0.056
   12SOL    HW1   35  -0.024  -0.956   0.116
   12SOL    HW2   36  -0.056  -0.997  -0.039
   13SOL     OW   37   1.032  -0.152  -0.890
   13SOL    HW1   38   1.114  -0.154  -0.834
   13SOL    HW2   39   0.955  -0.191  -0.839
   14SOL     OW   40   1.234  -1.588   1.370
   14SOL    HW1   41   1.222  -1.562   1.275
   14SOL    HW2   42   1.290  -1.671   1.375
   15SOL     OW   43   1.891   0.563  -1.134
   15SOL    HW1   44   1.895   0.491  -1.203
   15SOL    HW2   45   1.834   0.533  -1.057
   16SOL     OW   46   0.125   0.456   1.256
   16SOL    HW1   47   0.211   0.451   1.206
   16SOL    HW2   48   0.100   0.364   1.289
   17SOL     OW   49   2.129   0.582  -1.511
   17SOL    HW1   50   2.127   0.507  -1.445
   17SOL    HW2   51   2.200   0.563  -1.579
   18SOL     OW   52   2.450  -2.152   0.792
   18SOL    HW1   53   2.497  -2.139   0.879
   18SOL    HW2   54   2.465  -2.073   0.733
   19SOL     OW   55   2.516  -1.314   0.913
   19SOL    HW1   56   2.450  -1.387   0.928
   19SOL    HW2   57   2.560  -1.326   0.824
   20SOL     OW   58   0.928   1.715  -0.057
   20SOL    HW1   59   0.989   1.653  -0.006
   20SOL    HW2   60   0.867   1.662  -0.115
   21SOL     OW   61   0.162   0.935   1.252
   21SOL    HW1   62   0.090   0.999   1.222
   21SOL    HW2   63   0.145   0.845   1.212
   22SOL     OW   64   2.532  -2.035   1.548
   22SOL    HW1   65   2.472  -1.960   1.522
   22SOL    HW2   66   2.604  -2.002   1.609
   23SOL     OW   67   1.967   0.343   2.142
   23SOL    HW1   68   1.936   0.329   2.048
   23SOL    HW2   69   1.889   0.369   2.199
   24SOL     OW   70   1.089   2.075   0.663
   24SOL    HW1   71   1.098   1.978   0.689
   24SOL    HW2   72   1.172   2.124   0.690
   25SOL     OW   73   1.088  -1.307   2.504
   25SOL    HW1   74   1.081  -1.315   2.603
   25SOL    HW2   75   1.183  -1.321   2.475
   26SOL     OW   76   1.129  -0.237  -0.514
   26SOL    HW1   77   1.186  -0.294  -0.455
   26SOL    HW2   78   1.050  -0.290  -0.546
   27SOL     OW   79   1.530   1.625   1.360
   27SOL    HW1   80   1.574   1.713   1.377
   27SOL    HW2   81   1.599   1.553   1.355
   28SOL     OW   82   0.517   0.821   1.646
   28SOL    HW1   83   0.611   0.802   1.677
   28SOL    HW2   84   0.508   0.795   1.550
   29SOL     OW   85   2.331   0.263   0.840
   29SOL    HW1   86   2.307   0.354   0.873
   29SOL    HW2   87   2.395   0.271   0.763
   30SOL     OW   88   0.050  -1.001   0.729
   30SOL    HW1   89   0.131  -0.968   0.777
   30SOL    HW2   90   0.072  -1.084   0.678
   31SOL     OW   91   2.918  -0.384   0.332
   31SOL    HW1   92   2.849  -0.315   0.352
   31SOL    HW2   93   2.901  -0.424   0.242
   32SOL     OW   94   0.430   0.950   1.249
   32SOL    HW1   95   0.330   0.944   1.250
   32SOL    HW2   96   0.460   0.989   1.161
   33SOL     OW   97   1.028   0.391   1.790
   33SOL    HW1   98   1.123   0.383   1.759
   33SOL    HW2   99   0.969   0.337   1.730
   34SOL     OW  100   2.477  -0.978   1.323
   34SOL    HW1  101   2.379  -0.979   1.342
   34SOL    HW2  102   2.526  -1.024   1.397
   35SOL     OW  103   2.174  -0.147  -1.463
   35SOL    HW1  104   2.112  -0.131  -1.386
   35SOL    HW2  105   2.173  -0.066  -1.522
   36SOL     OW  106   2.233   0.129   1.767
   36SOL    HW1  107   2.156   0.109   1.827
   36SOL    HW2  108   2.199   0.163   1.679
   37SOL     OW  109   1.270  -0.156  -0.725
   37SOL    HW1  110   1.308  -0.073  -0.765
   37SOL    HW2  111   1.314  -0.173  -0.636
   38SOL     OW  112   1.762   0.731  -0.750
   38SOL    HW1  113   1.738   0.696  -0.660
   38SOL    HW2  114   1.770   0.654  -0.814
   39SOL     OW  115   1.792   0.463  -1.551
   39SOL    HW1  116   1.833   0.426  -1.468
   39SOL    HW2  117   1.711   0.517  -1.527
   40SOL     OW  118   0.240   1.647   1.416
   40SOL    HW1  119   0.318   1.678   1.361
   40SOL    HW2  120   0.273   1.615   1.505
   41SOL     OW  121   0.805   0.372  -0.693
   41SOL    HW1  122   0.898   0.356  -0.726
   41SOL    HW2  123   0.794   0.470  -0.673
   42SOL     OW  124   1.987   0.063   1.959
   42SOL    HW1  125   1.941  -0.020   1.927
   42SOL    HW2  126   1.923   0.139   1.958
   43SOL     OW  127  -0.244  -0.931   0.964
   43SOL    HW1  128  -0.165  -0.983   0.997
   43SOL    HW2  129  -0.212  -0.854   0.908
   44SOL     OW  130   1.090   1.497  -1.106
   44SOL    HW1  131   1.171   1.484  -1.048
   44SOL    HW2  132   1.021   1.549  -1.055
   45SOL     OW  133   2.494   0.600   0.657
   45SOL    HW1  134   2.496   0.500   0.651
   45SOL    HW2  135   2.583   0.633   0.691
   46SOL     OW  136   2.679   0.283   0.842
   46SOL    HW1  137   2.613   0.300   0.768
   46SOL    HW2  138   2.655   0.198   0.889
   47SOL     OW  139   0.373  -1.129   0.465
   47SOL    HW1  140   0.445  -1.076   0.511
   47SOL    HW2  141   0.328  -1.189   0.532
   48SOL     OW  142   1.806   1.251   1.789
   48SOL    HW1  143   1.898   1.283   1.768
   48SOL    HW2  144   1.810   1.157   1.822
   49SOL     OW  145   2.432   0.578   0.308
   49SOL    HW1  146   2.375   0.626   0.374
   49SOL    HW2  147   2.476   0.500   0.353
   50SOL     OW  148   1.589  -0.829   2.040
   50SOL    HW1  149   1.641  -0.784   1.968
   50SOL    HW2  150   1.555  -0.917   2.007
   51SOL     OW  151   2.635  -0.123   1.669
   51SOL    HW1  152   2.554  -0.149   1.617
   51SOL    HW2  153   2.623  -0.149   1.765
   52SOL     OW  154   1.936   0.740   0.007
   52SOL    HW1  155   1.875   0.818   0.024
   52SOL    HW2  156   1.881   0.657  -0.004
   53SOL     OW  157   1.584   0.186  -1.183
   53SOL    HW1  158   1.524   0.107  -1.168
   53SOL    HW2  159   1.615   0.222  -1.095
   54SOL     OW  160   2.159   0.574  -1.136
   54SOL    HW1  161   2.146   0.505  -1.208
   54SOL    HW2  162   2.070   0.603  -1.101
   55SOL     OW  163   1.912   1.839   0.317
   55SOL    HW1  164   1.928   1.752   0.362
   55SOL    HW2  165   1.814   1.851   0.300
   56SOL     OW  166   1.582  -1.156  -0.187
   56SOL    HW1  167   1.671  -1.110  -0.189
   56SOL    HW2  168   1.518  -1.108  -0.248
   57SOL     OW  169   2.360   0.613   1.498
   57SOL    HW1  170   2.372   0.557   1.415
   57SOL    HW2  171   2.263   0.613   1.524
   58SOL     OW  172   2.521   0.928  -0.333
   58SOL    HW1  173   2.422   0.940  -0.331
   58SOL    HW2  174   2.565   1.018  -0.328
   59SOL     OW  175   1.675   0.029  -0.907
   59SOL    HW1  176   1.578   0.042  -0.884
   59SOL    HW2  177   1.732   0.072  -0.837
   60SOL     OW  178   2.180   1.918   0.390
   60SOL    HW1  179   2.216   1.830   0.418
   60SOL    HW2  180   2.085   1.908   0.360
   61SOL     OW  181  -0.053  -0.621  -0.144
   61SOL    HW1  182  -0.061  -0.716  -0.116
   61SOL    HW2  183   0.004  -0.571  -0.079
   62SOL     OW  184   1.496   1.416  -1.155
   62SOL    HW1  185   1.430   1.432  -1.081
   62SOL    HW2  186   1.452   1.432  -1.243
   63SOL     OW  187  -0.050   0.870   0.190
   63SOL    HW1  188   0.047   0.857   0.168
   63SOL    HW2  189  -0.062   0.955   0.240
   64SOL     OW  190   1.676  -1.411   0.758
   64SOL    HW1  191   1.588  -1.369   0.781
   64SOL    HW2  192   1.661  -1.490   0.698
   65SOL     OW  193   2.296  -1.266   1.590
   65SOL    HW1  194   2.276  -1.170   1.605
   65SOL    HW2  195   2.340  -1.304   1.671
   66SOL     OW  196   1.774   0.949   0.053
   66SOL    HW1  197   1.810   1.004  -0.023
   66SOL    HW2  198   1.792   0.996   0.139
   67SOL     OW  199   1.234   1.757   0.004
   67SOL    HW1  200   1.194   1.673   0.039
   67SOL    HW2  201   1.312   1.783   0.061
   68SOL     OW  202   1.777   1.095  -1.232
   68SOL    HW1  203   1.867   1.071  -1.267
   68SOL    HW2  204   1.711   1.097  -1.307
   69SOL     OW  205   2.375   0.136  -1.029
   69SOL    HW1  206   2.412   0.121  -0.937
   69SOL    HW2  207   2.278   0.116  -1.030
   70SOL     OW  208   1.010  -0.565   1.974
   70SOL    HW1  209   1.043  -0.625   2.047
   70SOL    HW2  210   0.987  -0.619   1.894
   71SOL     OW  211   1.662  -0.730  -0.526
   71SOL    HW1  212   1.600  -0.677  -0.583
   71SOL    HW2  213   1.612  -0.765  -0.446
   72SOL     OW  214   2.283  -1.319   0.275
   72SOL    HW1  215   2.292  -1.267   0.360
   72SOL    HW2  216   2.373  -1.327   0.232
   73SOL     OW  217   0.844   0.717  -0.651
   73SOL    HW1  218   0.903   0.697  -0.573
   73SOL    HW2  219   0.783   0.793  -0.628
   74SOL     OW  220   0.042  -0.795   1.904
   74SOL    HW1  221   0.088  -0.773   1.818
   74SOL    HW2  222   0.018  -0.892   1.905
   75SOL     OW  223   1.589  -0.892   0.154
   75SOL    HW1  224   1.588  -0.954   0.232
   75SOL    HW2  225   1.519  -0.919   0.088
   76SOL     OW  226   2.593   1.038  -0.029
   76SOL    HW1  227   2.692   1.040  -0.017
   76SOL    HW2  228   2.553   0.976   0.039
   77SOL     OW  229   2.631  -2.100   1.127
   77SOL    HW1  230   2.533  -2.112   1.137
   77SOL    HW2  231   2.658  -2.010   1.163
   78SOL     OW  232   2.243   0.831  -0.585
   78SOL    HW1  233   2.162   0.847  -0.641
   78SOL    HW2  234   2.235   0.879  -0.499
   79SOL     OW  235  -0.457   0.136   1.049
   79SOL    HW1  236  -0.399   0.064   1.087
   79SOL    HW2  237  -0.401   0.202   0.999
   80SOL     OW  238   0.945  -0.712   1.748
   80SOL    HW1  239   0.849  -0.739   1.752
   80SOL    HW2  240   0.965  -0.669   1.660
   81SOL     OW  241  -0.020  -0.251  -0.257
   81SOL    HW1  242  -0.030  -0.196  -0.340
   81SOL    HW2  243  -0.074  -0.335  -0.266
   82SOL     OW  244  -0.239   1.177   0.191
   82SOL    HW1  245  -0.227   1.252   0.125
   82SOL    HW2  246  -0.307   1.203   0.259
   83SOL     OW  247   2.961  -0.076   0.519
   83SOL    HW1  248   2.883  -0.118   0.473
   83SOL    HW2  249   2.941  -0.065   0.617
   84SOL     OW  250   1.990   1.228  -0.970
   84SOL    HW1  251   1.986   1.140  -1.018
   84SOL    HW2  252   1.970   1.214  -0.873
   85SOL     OW  253   1.369  -0.353  -0.274
   85SOL    HW1  254   1.355  -0.298  -0.191
   85SOL    HW2  255   1.397  -0.446  -0.248
   86SOL     OW  256   1.709   0.674   2.195
   86SOL    HW1  257   1.627   0.674   2.251
   86SOL    HW2  258   1.724   0.765   2.157
   87SOL     OW  259   1.622   0.790   1.649
   87SOL    HW1  260   1.542   0.809   1.592
   87SOL    HW2  261   1.599   0.720   1.716
   88SOL     OW  262   0.715   2.086   1.031
   88SOL    HW1  263   0.749   2.034   1.110
   88SOL    HW2  264   0.685   2.022   0.960
   89SOL     OW  265  -0.527  -0.244   1.135
   89SOL    HW1  266  -0.446  -0.186   1.143
   89SOL    HW2  267  -0.539  -0.297   1.219
   90SOL     OW  268   2.551  -0.531  -0.662
   90SOL    HW1  269   2.570  -0.451  -0.718
   90SOL    HW2  270   2.453  -0.550  -0.661
   91SOL     OW  271   2.715   0.209  -0.282
   91SOL    HW1  272   2.622   0.240  -0.301
   91SOL    HW2  273   2.757   0.271  -0.216
   92SOL     OW  274   2.741  -0.379   1.387
   92SOL    HW1  275   2.833  -0.354   1.417
   92SOL    HW2  276   2.687  -0.296   1.373
   93SOL     OW  277   0.543  -0.933   0.208
   93SOL    HW1  278   0.493  -0.858   0.165
   93SOL    HW2  279   0.478  -0.997   0.249
   94SOL     OW  280   1.621   0.028   1.877
   94SOL    HW1  281   1.527   0.050   1.901
   94SOL    HW2  282   1.677   0.111   1.882
   95SOL     OW  283   2.259  -0.596  -0.743
   95SOL    HW1  284   2.226  -0.673  -0.689
   95SOL    HW2  285   2.256  -0.619  -0.840
   96SOL     OW  286   1.873  -0.554  -1.438
   96SOL    HW1  287   1.922  -0.633  -1.400
   96SOL    HW2  288   1.937  -0.477  -1.447
   97SOL     OW  289   2.400   0.434   1.233
   97SOL    HW1  290   2.445   0.475   1.155
   97SOL    HW2  291   2.451   0.354   1.264
   98SOL     OW  292  -0.109  -0.107  -0.040
   98SOL    HW1  293  -0.142  -0.195  -0.007
   98SOL    HW2  294  -0.064  -0.120  -0.129
   99SOL     OW  295   2.556   0.574   0.965
   99SOL    HW1  296   2.456   0.572   0.961
   99SOL    HW2  297   2.590   0.650   0.910
  100SOL     OW  298   2.111  -1.805   0.605
  100SOL    HW1  299   2.170  -1.846   0.535
  100SOL    HW2  300   2.059  -1.730   0.564
  101SOL     OW  301  -0.137  -0.914   0.532
  101SOL    HW1  302  -0.071  -0.944   0.601
  101SOL    HW2  303  -0.154  -0.988   0.467
  102SOL     OW  304   2.809  -0.471   0.032
  102SOL    HW1  305   2.817  -0.570   0.021
  102SOL    HW2  306   2.864  -0.425  -0.038
  103SOL     OW  307   1.457  -0.102   2.121
  103SOL    HW1  308   1.416  -0.068   2.205
  103SOL    HW2  309   1.423  -0.049   2.043
  104SOL     OW  310   1.400   1.637   1.129
  104SOL    HW1  311   1.447   1.722   1.103
  104SOL    HW2  312   1.432   1.607   1.219
  105SOL     OW  313   2.102   1.609   0.927
  105SOL    HW1  314   2.176   1.675   0.927
  105SOL    HW2  315   2.130   1.528   0.979
  106SOL     OW  316   1.845  -0.938  -0.480
  106SOL    HW1  317   1.780  -0.864  -0.496
  106SOL    HW2  318   1.861  -0.988  -0.565
  107SOL     OW  319   2.064  -0.650   1.996
  107SOL    HW1  320   2.074  -0.749   1.996
  107SOL    HW2  321   1.996  -0.622   2.063
  108SOL     OW  322  -0.187   0.395   0.169
  108SOL    HW1  323  -0.114   0.341   0.127
  108SOL    HW2  324  -0.215   0.351   0.255
  109SOL     OW  325   2.324   0.141  -0.551
  109SOL    HW1  326   2.261   0.102  -0.484
  109SOL    HW2  327   2.275   0.207  -0.608
  110SOL     OW  328   1.345  -0.009   2.350
  110SOL    HW1  329   1.276   0.053   2.311
  110SOL    HW2  330   1.325  -0.026   2.446
  111SOL     OW  331   1.334  -1.351   1.727
  111SOL    HW1  332   1.406  -1.282   1.734
  111SOL    HW2  333   1.376  -1.442   1.725
  112SOL     OW  334  -0.062   1.133   1.159
  112SOL    HW1  335   0.006   1.141   1.086
  112SOL    HW2  336  -0.075   1.223   1.202
  113SOL     OW  337   2.854  -0.227   0.729
  113SOL    HW1  338   2.897  -0.317   0.717
  113SOL    HW2  339   2.893  -0.184   0.810
  114SOL     OW  340   2.335  -0.678  -0.246
  114SOL    HW1  341   2.373  -0.764  -0.213
  114SOL    HW2  342   2.409  -0.619  -0.277
  115SOL     OW  343   2.706  -0.660   1.129
  115SOL    HW1  344   2.619  -0.611   1.133
  115SOL    HW2  345   2.778  -0.598   1.097
  116SOL     OW  346  -0.049   0.983   0.742
  116SOL    HW1  347  -0.105   1.031   0.809
  116SOL    HW2  348  -0.096   0.899   0.712
  117SOL     OW  349   2.637  -0.485  -0.406
  117SOL    HW1  350   2.606  -0.502  -0.499
  117SOL    HW2  351   2.595  -0.402  -0.371
  118SOL     OW  352  -0.509  -0.279   0.367
  118SOL    HW1  353  -0.603  -0.309   0.377
  118SOL    HW2  354  -0.488  -0.265   0.270
  119SOL     OW  355  -0.258   0.326   0.899
  119SOL    HW1  356  -0.284   0.408   0.951
  119SOL    HW2  357  -0.268   0.344   0.802
  120SOL     OW  358   2.435   0.303  -0.340
  120SOL    HW1  359   2.469   0.397  -0.349
  120SOL    HW2  360   2.340   0.299  -0.371
  121SOL     OW  361  -0.203  -0.360   0.056
  121SOL    HW1  362  -0.165  -0.391   0.143
  121SOL    HW2  363  -0.181  -0.426  -0.015
  122SOL     OW  364  -0.150   0.257  -0.197
  122SOL    HW1  365  -0.086   0.246  -0.122
  122SOL    HW2  366  -0.102   0.291  -0.278
  123SOL     OW  367   0.243  -0.260   1.749
  123SOL    HW1  368   0.334  -0.236   1.717
  123SOL    HW2  369   0.202  -0.181   1.796
  124SOL     OW  370   1.328  -0.355   2.142
  124SOL    HW1  371   1.332  -0.424   2.070
  124SOL    HW2  372   1.368  -0.392   2.226
  125SOL     OW  373   2.683  -0.895   0.939
  125SOL    HW1  374   2.691  -0.818   1.001
  125SOL    HW2  375   2.652  -0.976   0.989
  126SOL     OW  376   1.585  -1.050   0.352
  126SOL    HW1  377   1.671  -1.043   0.402
  126SOL    HW2  378   1.573  -1.144   0.319
  127SOL     OW  379   0.440   0.697   1.890
  127SOL    HW1  380   0.467   0.740   1.804
  127SOL    HW2  381   0.356   0.645   1.876
  128SOL     OW  382   2.676  -0.102  -0.731
  128SOL    HW1  383   2.699  -0.135  -0.822
  128SOL    HW2  384   2.642  -0.178  -0.675
  129SOL     OW  385   0.198   1.878   1.147
  129SOL    HW1  386   0.279   1.832   1.183
  129SOL    HW2  387   0.219   1.973   1.126
  130SOL     OW  388   2.350   0.230  -1.500
  130SOL    HW1  389   2.279   0.278  -1.448
  130SOL    HW2  390   2.328   0.133  -1.504
  131SOL     OW  391   1.402   0.841   1.491
  131SOL    HW1  392   1.427   0.818   1.397
  131SOL    HW2  393   1.314   0.888   1.492
  132SOL     OW  394   2.647   0.058   0.994
  132SOL    HW1  395   2.633  -0.040   1.007
  132SOL    HW2  396   2.733   0.086   1.036
  133SOL     OW  397   1.886  -1.930   1.361
  133SOL    HW1  398   1.864  -1.938   1.263
  133SOL    HW2  399   1.808  -1.892   1.410
  134SOL     OW  400   1.395   2.311   1.065
  134SOL    HW1  401   1.428   2.241   1.001
  134SOL    HW2  402   1.425   2.401   1.034
  135SOL     OW  403   2.640   0.760   0.202
  135SOL    HW1  404   2.610   0.849   0.237
  135SOL    HW2  405   2.691   0.712   0.273
  136SOL     OW  406   2.054  -1.050   1.828
  136SOL    HW1  407   2.117  -1.012   1.761
  136SOL    HW2  408   1.972  -1.083   1.782
  137SOL     OW  409   1.668  -1.307   0.471
  137SOL    HW1  410   1.757  -1.343   0.496
  137SOL    HW2  411   1.609  -1.302   0.553
  138SOL     OW  412   1.907  -1.403   0.539
  138SOL    HW1  413   1.939  -1.496   0.520
  138SOL    HW2  414   1.984  -1.348   0.573
  139SOL     OW  415   2.337   0.022   0.943
  139SOL    HW1  416   2.334   0.114   0.904
  139SOL    HW2  417   2.430   0.000   0.972
  140SOL     OW  418  -0.331   0.553   1.042
  140SOL    HW1  419  -0.430   0.554   1.055
  140SOL    HW2  420  -0.304   0.635   0.992
  141SOL     OW  421   0.278   0.795  -0.537
  141SOL    HW1  422   0.346   0.803  -0.464
  141SOL    HW2  423   0.250   0.699  -0.545
  142SOL     OW  424   2.486   0.089  -0.749
  142SOL    HW1  425   2.556   0.018  -0.743
  142SOL    HW2  426   2.435   0.093  -0.663
  143SOL     OW  427   2.910  -0.384  -0.276
  143SOL    HW1  428   2.929  -0.286  -0.279
  143SOL    HW2  429   2.838  -0.406  -0.342
  144SOL     OW  430   2.752   0.665   0.543
  144SOL    HW1  431   2.822   0.661   0.614
  144SOL    HW2  432   2.749   0.757   0.504
  145SOL     OW  433   1.540   1.887   1.054
  145SOL    HW1  434   1.523   1.964   0.992
  145SOL    HW2  435   1.635   1.888   1.084
  146SOL     OW  436   0.369   1.046   1.551
  146SOL    HW1  437   0.388   1.016   1.457
  146SOL    HW2  438   0.412   0.982   1.615
  147SOL     OW  439   2.021   0.875  -0.737
  147SOL    HW1  440   1.934   0.826  -0.742
  147SOL    HW2  441   2.004   0.971  -0.714
  148SOL     OW  442   0.712  -0.355  -0.101
  148SOL    HW1  443   0.618  -0.320  -0.108
  148SOL    HW2  444   0.751  -0.331  -0.013
  149SOL     OW  445   2.898   0.130  -0.465
  149SOL    HW1  446   2.932   0.199  -0.529
  149SOL    HW2  447   2.814   0.163  -0.423
  150SOL     OW  448   2.083   0.837  -0.992
  150SOL    HW1  449   2.059   0.851  -0.896
  150SOL    HW2  450   2.180   0.815  -1.000
  151SOL     OW  451  -0.528  -0.396   1.426
  151SOL    HW1  452  -0.578  -0.340   1.493
  151SOL    HW2  453  -0.434  -0.409   1.458
  152SOL     OW  454   2.602  -1.097   1.089
  152SOL    HW1  455   2.573  -1.171   1.029
  152SOL    HW2  456   2.533  -1.083   1.160
  153SOL     OW  457  -0.302  -0.505  -0.155
  153SOL    HW1  458  -0.383  -0.555  -0.126
  153SOL    HW2  459  -0.232  -0.569  -0.187
  154SOL     OW  460   3.101   0.079  -0.255
  154SOL    HW1  461   3.032   0.096  -0.326
  154SOL    HW2  462   3.184   0.131  -0.276
  155SOL     OW  463  -0.443  -0.247   0.094
  155SOL    HW1  464  -0.513  -0.292   0.038
  155SOL    HW2  465  -0.354  -0.288   0.076
  156SOL     OW  466   2.187   0.027   2.139
  156SOL    HW1  467   2.113   0.040   2.073
  156SOL    HW2  468   2.175   0.091   2.216
  157SOL     OW  469   2.672   0.743  -0.233
  157SOL    HW1  470   2.614   0.815  -0.271
  157SOL    HW2  471   2.655   0.736  -0.134
  158SOL     OW  472   2.518   0.563  -0.430
  158SOL    HW1  473   2.568   0.621  -0.366
  158SOL    HW2  474   2.433   0.608  -0.457
  159SOL     OW  475   1.049   2.189   0.406
  159SOL    HW1  476   1.063   2.149   0.496
  159SOL    HW2  477   1.077   2.124   0.335
  160SOL     OW  478   1.493   2.106   0.878
  160SOL    HW1  479   1.576   2.139   0.833
  160SOL    HW2  480   1.423   2.087   0.809
  161SOL     OW  481   1.662   1.950   0.233
  161SOL    HW1  482   1.606   1.877   0.192
  161SOL    HW2  483   1.679   2.021   0.165
  162SOL     OW  484   1.487   2.542   0.964
  162SOL    HW1  485   1.410   2.602   0.943
  162SOL    HW2  486   1.539   2.524   0.881
    4.1837    4.1837    4.1837
