; ITP file created by ByteFF-ML, 2025-12-06 08:18:48.237660

[ atomtypes ]
;name           bonded.type        at.num        mass        charge   ptype           sigma         epsilon
 c0bf                                   6      0.0000       0.00000       A     3.39780e-01     4.52449e-01
 c1bf                                   6      0.0000       0.00000       A     3.31677e-01     4.11079e-01
 c2bf                                   6      0.0000       0.00000       A     3.31436e-01     4.13961e-01
 c3bf                                   6      0.0000       0.00000       A     3.31619e-01     4.12202e-01
 c4bf                                   6      0.0000       0.00000       A     3.31283e-01     4.13674e-01
 c5bf                                   6      0.0000       0.00000       A     3.31519e-01     4.11933e-01
 c6bf                                   6      0.0000       0.00000       A     3.31494e-01     4.12038e-01
 c7bf                                   6      0.0000       0.00000       A     3.31137e-01     4.12407e-01
 c8bf                                   6      0.0000       0.00000       A     3.39817e-01     4.50591e-01
 c9bf                                   6      0.0000       0.00000       A     3.39753e-01     4.49851e-01
 o10bf                                  8      0.0000       0.00000       A     3.15848e-01     3.02640e-01
 n11bf                                  7      0.0000       0.00000       A     3.18394e-01     6.90651e-01
 n12bf                                  7      0.0000       0.00000       A     3.20387e-01     8.50073e-01
 o13bf                                  8      0.0000       0.00000       A     3.04574e-01     6.12042e-01
 c14bf                                  6      0.0000       0.00000       A     3.31405e-01     4.10954e-01
 c15bf                                  6      0.0000       0.00000       A     3.31495e-01     4.12544e-01
 c16bf                                  6      0.0000       0.00000       A     3.31524e-01     4.13594e-01
 c17bf                                  6      0.0000       0.00000       A     3.31494e-01     4.12882e-01
 c18bf                                  6      0.0000       0.00000       A     3.31576e-01     4.14600e-01
 c19bf                                  6      0.0000       0.00000       A     3.31558e-01     4.14408e-01
 c20bf                                  6      0.0000       0.00000       A     3.31576e-01     4.12846e-01
 o21bf                                  8      0.0000       0.00000       A     3.04774e-01     6.12524e-01
 n22bf                                  7      0.0000       0.00000       A     3.18135e-01     6.84460e-01
 c23bf                                  6      0.0000       0.00000       A     3.39815e-01     4.50770e-01
 c24bf                                  6      0.0000       0.00000       A     3.39815e-01     4.50768e-01
 h25bf                                  1      0.0000       0.00000       A     2.42077e-01     8.76896e-02
 h26bf                                  1      0.0000       0.00000       A     2.42077e-01     8.76896e-02
 h27bf                                  1      0.0000       0.00000       A     2.53674e-01     6.67333e-02
 h28bf                                  1      0.0000       0.00000       A     2.62759e-01     6.72328e-02
 h29bf                                  1      0.0000       0.00000       A     2.53920e-01     6.76318e-02
 h30bf                                  1      0.0000       0.00000       A     2.42051e-01     8.69411e-02
 h31bf                                  1      0.0000       0.00000       A     2.42051e-01     8.69411e-02
 h32bf                                  1      0.0000       0.00000       A     2.42032e-01     8.71661e-02
 h33bf                                  1      0.0000       0.00000       A     2.42032e-01     8.71661e-02
 h34bf                                  1      0.0000       0.00000       A     2.42032e-01     8.71661e-02
 h35bf                                  1      0.0000       0.00000       A     1.11019e-01     4.21570e-02
 h36bf                                  1      0.0000       0.00000       A     2.62483e-01     6.75552e-02
 h37bf                                  1      0.0000       0.00000       A     2.62513e-01     6.76542e-02
 h38bf                                  1      0.0000       0.00000       A     2.62499e-01     6.70748e-02
 h39bf                                  1      0.0000       0.00000       A     2.62386e-01     6.73876e-02
 h40bf                                  1      0.0000       0.00000       A     2.41996e-01     8.72811e-02
 h41bf                                  1      0.0000       0.00000       A     2.41996e-01     8.72811e-02
 h42bf                                  1      0.0000       0.00000       A     2.41996e-01     8.72811e-02
 h43bf                                  1      0.0000       0.00000       A     2.41996e-01     8.72811e-02
 h44bf                                  1      0.0000       0.00000       A     2.41996e-01     8.72811e-02
 h45bf                                  1      0.0000       0.00000       A     2.41996e-01     8.72811e-02

[ moleculetype ]
;name             nrexcl
 cmpd_9_methoxyethyl       3

[ atoms ]
;       nr            type      resi   res      atom      cgnr      charge          mass ; qtot
         1            c0bf         1   UNL        c0         1     0.07272       12.0110 ; qtot    0.073
         2            c1bf         1   UNL        c1         2     0.58472       12.0110 ; qtot    0.657
         3            c2bf         1   UNL        c2         3    -0.04243       12.0110 ; qtot    0.615
         4            c3bf         1   UNL        c3         4    -0.08122       12.0110 ; qtot    0.534
         5            c4bf         1   UNL        c4         5    -0.03829       12.0110 ; qtot    0.496
         6            c5bf         1   UNL        c5         6    -0.20087       12.0110 ; qtot    0.295
         7            c6bf         1   UNL        c6         7    -0.15357       12.0110 ; qtot    0.141
         8            c7bf         1   UNL        c7         8    -0.25802       12.0110 ; qtot   -0.117
         9            c8bf         1   UNL        c8         9     0.13207       12.0110 ; qtot    0.015
        10            c9bf         1   UNL        c9        10     0.13999       12.0110 ; qtot    0.155
        11           o10bf         1   UNL       o10        11    -0.45834       15.9990 ; qtot   -0.303
        12           n11bf         1   UNL       n11        12    -0.28703       14.0070 ; qtot   -0.590
        13           n12bf         1   UNL       n12        13    -0.10418       14.0070 ; qtot   -0.694
        14           o13bf         1   UNL       o13        14    -0.57930       15.9990 ; qtot   -1.274
        15           c14bf         1   UNL       c14        15    -0.03142       12.0110 ; qtot   -1.305
        16           c15bf         1   UNL       c15        16    -0.08842       12.0110 ; qtot   -1.394
        17           c16bf         1   UNL       c16        17    -0.12356       12.0110 ; qtot   -1.517
        18           c17bf         1   UNL       c17        18    -0.06666       12.0110 ; qtot   -1.584
        19           c18bf         1   UNL       c18        19    -0.14799       12.0110 ; qtot   -1.732
        20           c19bf         1   UNL       c19        20    -0.05947       12.0110 ; qtot   -1.791
        21           c20bf         1   UNL       c20        21     0.60947       12.0110 ; qtot   -1.182
        22           o21bf         1   UNL       o21        22    -0.59410       15.9990 ; qtot   -1.776
        23           n22bf         1   UNL       n22        23    -0.41226       14.0070 ; qtot   -2.188
        24           c23bf         1   UNL       c23        24     0.08049       12.0110 ; qtot   -2.108
        25           c24bf         1   UNL       c24        25     0.08049       12.0110 ; qtot   -2.027
        26           h25bf         1   UNL       h25        26     0.07458        1.0080 ; qtot   -1.953
        27           h26bf         1   UNL       h26        27     0.07458        1.0080 ; qtot   -1.878
        28           h27bf         1   UNL       h27        28     0.19948        1.0080 ; qtot   -1.679
        29           h28bf         1   UNL       h28        29     0.17950        1.0080 ; qtot   -1.499
        30           h29bf         1   UNL       h29        30     0.16962        1.0080 ; qtot   -1.329
        31           h30bf         1   UNL       h30        31     0.04759        1.0080 ; qtot   -1.282
        32           h31bf         1   UNL       h31        32     0.04759        1.0080 ; qtot   -1.234
        33           h32bf         1   UNL       h32        33     0.03303        1.0080 ; qtot   -1.201
        34           h33bf         1   UNL       h33        34     0.03303        1.0080 ; qtot   -1.168
        35           h34bf         1   UNL       h34        35     0.03303        1.0080 ; qtot   -1.135
        36           h35bf         1   UNL       h35        36     0.36596        1.0080 ; qtot   -0.769
        37           h36bf         1   UNL       h36        37     0.11948        1.0080 ; qtot   -0.650
        38           h37bf         1   UNL       h37        38     0.12034        1.0080 ; qtot   -0.529
        39           h38bf         1   UNL       h38        39     0.12617        1.0080 ; qtot   -0.403
        40           h39bf         1   UNL       h39        40     0.13075        1.0080 ; qtot   -0.272
        41           h40bf         1   UNL       h40        41     0.04541        1.0080 ; qtot   -0.227
        42           h41bf         1   UNL       h41        42     0.04541        1.0080 ; qtot   -0.182
        43           h42bf         1   UNL       h42        43     0.04541        1.0080 ; qtot   -0.136
        44           h43bf         1   UNL       h43        44     0.04541        1.0080 ; qtot   -0.091
        45           h44bf         1   UNL       h44        45     0.04541        1.0080 ; qtot   -0.045
        46           h45bf         1   UNL       h45        46     0.04540        1.0080 ; qtot    0.000

[ bonds ]
;       ai        aj funct               r               k
         1         9     1        0.153115   184914.681421
         1        12     1        0.146850   184094.135791
         1        26     1        0.109107   305891.335986
         1        27     1        0.109107   305891.335986
         2         8     1        0.143449   242736.915332
         2        12     1        0.140710   184287.145264
         2        14     1        0.124284   552325.233105
         3         4     1        0.136923   376963.690625
         3        12     1        0.138419   269727.367139
         3        28     1        0.108341   326132.942676
         4         5     1        0.143697   248564.407080
         4        15     1        0.147987   220491.922412
         5         6     1        0.143416   250365.564941
         5         8     1        0.140213   293985.986670
         6         7     1        0.138454   357195.235498
         6        29     1        0.108079   336768.280469
         7        13     1        0.137425   300936.906934
         7        30     1        0.108116   337573.567676
         8        13     1        0.137481   288703.814355
         9        11     1        0.141884   210701.914014
         9        31     1        0.109833   286409.228467
         9        32     1        0.109833   286409.228467
        10        11     1        0.142125   216492.836621
        10        33     1        0.109670   290627.499268
        10        34     1        0.109670   290627.499268
        10        35     1        0.109670   290627.499268
        13        36     1        0.101122   429371.967969
        15        16     1        0.140532   285678.049951
        15        20     1        0.140341   285815.005469
        16        17     1        0.139697   312978.190283
        16        37     1        0.108565   319678.642578
        17        18     1        0.139665   313070.302637
        17        38     1        0.108614   320119.106641
        18        19     1        0.140179   294779.399121
        18        39     1        0.108529   321792.655566
        19        20     1        0.140050   295287.076855
        19        21     1        0.150440   180560.170142
        20        40     1        0.108488   321757.107910
        21        22     1        0.123508   583127.328320
        21        23     1        0.137625   277546.012842
        23        24     1        0.146079   206762.738281
        23        25     1        0.146079   206762.712744
        24        41     1        0.109325   300883.687598
        24        42     1        0.109325   300883.687598
        24        43     1        0.109325   300883.687598
        25        44     1        0.109325   300883.687598
        25        45     1        0.109325   300883.687598
        25        46     1        0.109325   300883.687598

[ angles ]
;       ai        aj        ak funct           theta             cth
         1         9        11     1      110.329147      578.089610
         1         9        31     1      109.580299      464.478203
         1         9        32     1      109.580299      464.478203
         1        12         2     1      116.764198      609.002728
         1        12         3     1      119.204117      512.986133
         2         8         5     1      125.513901      655.121917
         2         8        13     1      126.008278      390.001362
         2        12         3     1      123.724510      675.798293
         3         4         5     1      116.337021      663.023674
         3         4        15     1      120.598694      496.878187
         4         3        12     1      123.736862      510.161665
         4         3        28     1      121.455772      376.474195
         4         5         6     1      135.100418      439.630978
         4         5         8     1      118.334473      731.982679
         4        15        16     1      120.893700      480.728327
         4        15        20     1      120.709877      428.944943
         5         4        15     1      123.072472      434.623023
         5         6         7     1      106.993881      473.963994
         5         6        29     1      127.430405      395.538222
         5         8        13     1      108.470421      167.360000
         6         5         8     1      106.429703      310.809956
         6         7        13     1      109.218887      197.545374
         6         7        30     1      129.882980      344.895676
         7         6        29     1      125.761856      392.001077
         7        13         8     1      108.925797      348.758611
         7        13        36     1      127.756271      385.858700
         8         2        12     1      112.009521      706.108608
         8         2        14     1      125.726074      405.723698
         8        13        36     1      123.576111      391.324695
         9         1        12     1      111.614731      548.518340
         9         1        26     1      109.905411      470.337980
         9         1        27     1      109.905411      470.337980
         9        11        10     1      113.369278      620.957287
        11         9        31     1      109.629395      466.427035
        11         9        32     1      109.629395      466.427035
        11        10        33     1      109.980667      467.768659
        11        10        34     1      109.980667      467.768659
        11        10        35     1      109.980667      467.768659
        12         1        26     1      108.079422      530.924931
        12         1        27     1      108.079422      530.924931
        12         2        14     1      122.179726      635.110145
        12         3        28     1      115.015236      424.584641
        13         7        30     1      120.963646      469.459599
        15        16        17     1      120.656433      706.654655
        15        16        37     1      119.493996      422.935965
        15        20        19     1      121.144363      689.362840
        15        20        40     1      119.526794      412.314315
        16        15        20     1      118.465714      685.629761
        16        17        18     1      120.361618      728.334256
        16        17        38     1      119.767746      439.227045
        17        16        37     1      119.858231      420.823440
        17        18        19     1      119.828125      700.777353
        17        18        39     1      120.494614      414.163840
        18        17        38     1      119.968002      437.300621
        18        19        20     1      119.575462      702.454375
        18        19        21     1      120.414406      540.046978
        19        18        39     1      119.603439      406.149402
        19        20        40     1      119.023903      403.181511
        19        21        22     1      119.817490      584.276549
        19        21        23     1      117.958389      409.940896
        20        19        21     1      119.569031      513.697086
        21        23        24     1      121.067299      480.685361
        21        23        25     1      121.067299      480.685425
        22        21        23     1      122.013527      584.943515
        23        24        41     1      110.214767      486.946613
        23        24        42     1      110.214767      486.946613
        23        24        43     1      110.214767      486.946613
        23        25        44     1      110.214767      486.946613
        23        25        45     1      110.214767      486.946613
        23        25        46     1      110.214767      486.946613
        24        23        25     1      114.953896      631.592408
        26         1        27     1      108.726768      343.733865
        31         9        32     1      108.224266      340.020067
        33        10        34     1      109.039627      343.032010
        33        10        35     1      109.039627      343.032010
        34        10        35     1      109.039627      343.032010
        41        24        42     1      108.828331      347.002520
        41        24        43     1      108.828331      347.002520
        42        24        43     1      108.828331      347.002520
        44        25        45     1      108.828331      347.002520
        44        25        46     1      108.828331      347.002520
        45        25        46     1      108.828331      347.002488

[ dihedrals ] ; propers for gromacs 4.5 or higher, use funct 9
;       ai        aj        ak        al funct           phase               k        pn
         1         9        11        10     9        0.000000       -0.043181         1
         1         9        11        10     9      180.000000       -0.303863         2
         1         9        11        10     9        0.000000        1.174151         3
         1         9        11        10     9      180.000000       -0.143908         4
         1        12         2         8     9        0.000000        0.663556         1
         1        12         2         8     9      180.000000        8.751228         2
         1        12         2         8     9        0.000000        0.395549         3
         1        12         2         8     9      180.000000       -0.173840         4
         1        12         2        14     9        0.000000       -0.710973         1
         1        12         2        14     9      180.000000       10.889979         2
         1        12         2        14     9        0.000000       -0.931742         3
         1        12         2        14     9      180.000000       -0.112026         4
         1        12         3         4     9        0.000000        0.951754         1
         1        12         3         4     9      180.000000        7.742315         2
         1        12         3         4     9        0.000000        0.367846         3
         1        12         3         4     9      180.000000       -0.192721         4
         1        12         3        28     9        0.000000       -0.269389         1
         1        12         3        28     9      180.000000        3.857420         2
         1        12         3        28     9        0.000000        0.018759         3
         1        12         3        28     9      180.000000        0.065154         4
         2         8         5         4     9        0.000000       -0.320434         1
         2         8         5         4     9      180.000000        8.614384         2
         2         8         5         4     9        0.000000       -1.154323         3
         2         8         5         4     9      180.000000        0.097152         4
         2         8         5         6     9        0.000000        0.030365         1
         2         8         5         6     9      180.000000        8.180220         2
         2         8         5         6     9        0.000000       -1.487787         3
         2         8         5         6     9      180.000000        0.200467         4
         2         8        13         7     9        0.000000       -0.870898         1
         2         8        13         7     9      180.000000        3.329477         2
         2         8        13         7     9        0.000000        0.288666         3
         2         8        13         7     9      180.000000        0.099451         4
         2         8        13        36     9        0.000000       -0.417527         1
         2         8        13        36     9      180.000000        0.589373         2
         2         8        13        36     9        0.000000        0.234206         3
         2         8        13        36     9      180.000000       -0.234602         4
         2        12         1         9     9        0.000000       -0.246536         1
         2        12         1         9     9      180.000000       -1.389856         2
         2        12         1         9     9        0.000000        0.266389         3
         2        12         1         9     9      180.000000        0.041791         4
         2        12         1        26     9        0.000000        0.212096         1
         2        12         1        26     9      180.000000        0.035760         2
         2        12         1        26     9        0.000000       -0.061094         3
         2        12         1        26     9      180.000000        0.130141         4
         2        12         1        27     9        0.000000        0.212096         1
         2        12         1        27     9      180.000000        0.035760         2
         2        12         1        27     9        0.000000       -0.061094         3
         2        12         1        27     9      180.000000        0.130141         4
         2        12         3         4     9        0.000000       -0.157981         1
         2        12         3         4     9      180.000000        9.398992         2
         2        12         3         4     9        0.000000       -0.547348         3
         2        12         3         4     9      180.000000       -0.066993         4
         2        12         3        28     9        0.000000        0.341833         1
         2        12         3        28     9      180.000000        4.972509         2
         2        12         3        28     9        0.000000       -0.400607         3
         2        12         3        28     9      180.000000       -0.018731         4
         3         4         5         6     9        0.000000       -0.152022         1
         3         4         5         6     9      180.000000        5.857845         2
         3         4         5         6     9        0.000000       -0.230570         3
         3         4         5         6     9      180.000000        0.049484         4
         3         4         5         8     9        0.000000       -0.218768         1
         3         4         5         8     9      180.000000       15.149366         2
         3         4         5         8     9        0.000000       -2.314159         3
         3         4         5         8     9      180.000000       -0.052766         4
         3         4        15        16     9        0.000000        0.014252         1
         3         4        15        16     9      180.000000        4.166849         2
         3         4        15        16     9        0.000000        0.376866         3
         3         4        15        16     9      180.000000        0.246313         4
         3         4        15        20     9        0.000000       -0.072012         1
         3         4        15        20     9      180.000000        4.177477         2
         3         4        15        20     9        0.000000        0.402479         3
         3         4        15        20     9      180.000000        0.232295         4
         3        12         1         9     9        0.000000       -0.334518         1
         3        12         1         9     9      180.000000       -0.038217         2
         3        12         1         9     9        0.000000        0.080623         3
         3        12         1         9     9      180.000000        0.171200         4
         3        12         1        26     9        0.000000       -0.036290         1
         3        12         1        26     9      180.000000        0.028418         2
         3        12         1        26     9        0.000000        0.197260         3
         3        12         1        26     9      180.000000        0.046685         4
         3        12         1        27     9        0.000000       -0.036290         1
         3        12         1        27     9      180.000000        0.028418         2
         3        12         1        27     9        0.000000        0.197260         3
         3        12         1        27     9      180.000000        0.046685         4
         3        12         2         8     9        0.000000        0.958382         1
         3        12         2         8     9      180.000000        7.134597         2
         3        12         2         8     9        0.000000        0.087250         3
         3        12         2         8     9      180.000000        0.020802         4
         3        12         2        14     9        0.000000        0.493089         1
         3        12         2        14     9      180.000000       10.954080         2
         3        12         2        14     9        0.000000       -0.270861         3
         3        12         2        14     9      180.000000       -0.428069         4
         4         5         6         7     9        0.000000        0.787460         1
         4         5         6         7     9      180.000000        8.254752         2
         4         5         6         7     9        0.000000       -0.042567         3
         4         5         6         7     9      180.000000       -0.282614         4
         4         5         6        29     9        0.000000       -0.530528         1
         4         5         6        29     9      180.000000        6.093858         2
         4         5         6        29     9        0.000000       -0.010587         3
         4         5         6        29     9      180.000000        0.027468         4
         4         5         8        13     9        0.000000        0.096816         1
         4         5         8        13     9      180.000000       13.802150         2
         4         5         8        13     9        0.000000       -2.507217         3
         4         5         8        13     9      180.000000       -0.180055         4
         4        15        16        17     9        0.000000        0.444323         1
         4        15        16        17     9      180.000000       16.475871         2
         4        15        16        17     9        0.000000        0.031835         3
         4        15        16        17     9      180.000000       -0.237176         4
         4        15        16        37     9        0.000000        0.064343         1
         4        15        16        37     9      180.000000       13.217121         2
         4        15        16        37     9        0.000000       -0.185765         3
         4        15        16        37     9      180.000000        0.240779         4
         4        15        20        19     9        0.000000        0.229144         1
         4        15        20        19     9      180.000000       16.077305         2
         4        15        20        19     9        0.000000        0.008591         3
         4        15        20        19     9      180.000000       -0.309414         4
         4        15        20        40     9        0.000000        0.017209         1
         4        15        20        40     9      180.000000       13.123782         2
         4        15        20        40     9        0.000000       -0.177528         3
         4        15        20        40     9      180.000000        0.229394         4
         5         4         3        12     9        0.000000       -0.395579         1
         5         4         3        12     9      180.000000       29.155091         2
         5         4         3        12     9        0.000000       -1.968556         3
         5         4         3        12     9      180.000000       -1.369827         4
         5         4         3        28     9        0.000000        0.067209         1
         5         4         3        28     9      180.000000       20.238403         2
         5         4         3        28     9        0.000000       -0.421391         3
         5         4         3        28     9      180.000000       -0.517879         4
         5         4        15        16     9        0.000000       -0.041333         1
         5         4        15        16     9      180.000000        3.648173         2
         5         4        15        16     9        0.000000       -0.143112         3
         5         4        15        16     9      180.000000        0.377482         4
         5         4        15        20     9        0.000000       -0.039724         1
         5         4        15        20     9      180.000000        3.652696         2
         5         4        15        20     9        0.000000       -0.197127         3
         5         4        15        20     9      180.000000        0.351914         4
         5         6         7        13     9        0.000000       -0.081660         1
         5         6         7        13     9      180.000000       32.935477         2
         5         6         7        13     9        0.000000       -6.226720         3
         5         6         7        13     9      180.000000       -0.569461         4
         5         6         7        30     9        0.000000        0.251536         1
         5         6         7        30     9      180.000000       17.389800         2
         5         6         7        30     9        0.000000       -0.203112         3
         5         6         7        30     9      180.000000       -0.588585         4
         5         8         2        12     9        0.000000       -0.287088         1
         5         8         2        12     9      180.000000        8.235236         2
         5         8         2        12     9        0.000000       -0.326796         3
         5         8         2        12     9      180.000000       -0.053167         4
         5         8         2        14     9        0.000000       -0.678833         1
         5         8         2        14     9      180.000000       10.268300         2
         5         8         2        14     9        0.000000       -0.053752         3
         5         8         2        14     9      180.000000       -0.529247         4
         5         8        13         7     9        0.000000       -0.020285         1
         5         8        13         7     9      180.000000       21.323921         2
         5         8        13         7     9        0.000000       -7.580479         3
         5         8        13         7     9      180.000000       -0.091748         4
         5         8        13        36     9        0.000000        0.906825         1
         5         8        13        36     9      180.000000        2.606302         2
         5         8        13        36     9        0.000000        0.635687         3
         5         8        13        36     9      180.000000        0.143392         4
         6         5         4        15     9        0.000000        0.278463         1
         6         5         4        15     9      180.000000       10.056129         2
         6         5         4        15     9        0.000000        0.125745         3
         6         5         4        15     9      180.000000       -0.230188         4
         6         5         8        13     9        0.000000        0.126516         1
         6         5         8        13     9      180.000000       18.389514         2
         6         5         8        13     9        0.000000       -6.087120         3
         6         5         8        13     9      180.000000       -0.148963         4
         6         7        13         8     9        0.000000        0.489421         1
         6         7        13         8     9      180.000000       25.277056         2
         6         7        13         8     9        0.000000       -5.313109         3
         6         7        13         8     9      180.000000       -0.653144         4
         6         7        13        36     9        0.000000        0.002516         1
         6         7        13        36     9      180.000000        4.363406         2
         6         7        13        36     9        0.000000        0.749617         3
         6         7        13        36     9      180.000000        0.130700         4
         7         6         5         8     9        0.000000        0.029166         1
         7         6         5         8     9      180.000000       26.689025         2
         7         6         5         8     9        0.000000       -9.371721         3
         7         6         5         8     9      180.000000       -0.112216         4
         8         5         4        15     9        0.000000        0.463953         1
         8         5         4        15     9      180.000000       12.987038         2
         8         5         4        15     9        0.000000       -0.110659         3
         8         5         4        15     9      180.000000       -0.480915         4
         8         5         6        29     9        0.000000        0.345013         1
         8         5         6        29     9      180.000000       10.647313         2
         8         5         6        29     9        0.000000       -0.619623         3
         8         5         6        29     9      180.000000        0.081299         4
         8        13         7        30     9        0.000000        1.048687         1
         8        13         7        30     9      180.000000       11.426326         2
         8        13         7        30     9        0.000000        0.156526         3
         8        13         7        30     9      180.000000       -0.201627         4
         9        11        10        33     9        0.000000       -0.048319         1
         9        11        10        33     9      180.000000        0.121277         2
         9        11        10        33     9        0.000000        1.073641         3
         9        11        10        33     9      180.000000        0.029718         4
         9        11        10        34     9        0.000000       -0.048319         1
         9        11        10        34     9      180.000000        0.121277         2
         9        11        10        34     9        0.000000        1.073641         3
         9        11        10        34     9      180.000000        0.029718         4
         9        11        10        35     9        0.000000       -0.048319         1
         9        11        10        35     9      180.000000        0.121277         2
         9        11        10        35     9        0.000000        1.073641         3
         9        11        10        35     9      180.000000        0.029718         4
        10        11         9        31     9        0.000000       -0.062112         1
        10        11         9        31     9      180.000000        0.178105         2
        10        11         9        31     9        0.000000        1.417991         3
        10        11         9        31     9      180.000000        0.171420         4
        10        11         9        32     9        0.000000       -0.062112         1
        10        11         9        32     9      180.000000        0.178105         2
        10        11         9        32     9        0.000000        1.417991         3
        10        11         9        32     9      180.000000        0.171420         4
        11         9         1        12     9        0.000000       -3.541496         1
        11         9         1        12     9      180.000000       -0.527899         2
        11         9         1        12     9        0.000000        0.398746         3
        11         9         1        12     9      180.000000        0.018739         4
        11         9         1        26     9        0.000000        0.156892         1
        11         9         1        26     9      180.000000        0.205090         2
        11         9         1        26     9        0.000000        0.513494         3
        11         9         1        26     9      180.000000        0.065948         4
        11         9         1        27     9        0.000000        0.156892         1
        11         9         1        27     9      180.000000        0.205090         2
        11         9         1        27     9        0.000000        0.513494         3
        11         9         1        27     9      180.000000        0.065948         4
        12         1         9        31     9        0.000000        0.250978         1
        12         1         9        31     9      180.000000        0.191700         2
        12         1         9        31     9        0.000000        0.634450         3
        12         1         9        31     9      180.000000        0.033539         4
        12         1         9        32     9        0.000000        0.250978         1
        12         1         9        32     9      180.000000        0.191700         2
        12         1         9        32     9        0.000000        0.634450         3
        12         1         9        32     9      180.000000        0.033539         4
        12         2         8        13     9        0.000000        0.430604         1
        12         2         8        13     9      180.000000        8.012857         2
        12         2         8        13     9        0.000000        0.317036         3
        12         2         8        13     9      180.000000        0.238630         4
        12         3         4        15     9        0.000000        0.185303         1
        12         3         4        15     9      180.000000       24.718426         2
        12         3         4        15     9        0.000000       -0.013364         3
        12         3         4        15     9      180.000000       -1.510628         4
        13         7         6        29     9        0.000000        0.212104         1
        13         7         6        29     9      180.000000       15.747341         2
        13         7         6        29     9        0.000000       -0.031275         3
        13         7         6        29     9      180.000000       -0.345392         4
        13         8         2        14     9        0.000000       -0.971704         1
        13         8         2        14     9      180.000000       11.842344         2
        13         8         2        14     9        0.000000        0.174168         3
        13         8         2        14     9      180.000000       -0.230249         4
        15         4         3        28     9        0.000000        0.198685         1
        15         4         3        28     9      180.000000       16.058052         2
        15         4         3        28     9        0.000000        0.184678         3
        15         4         3        28     9      180.000000       -0.108232         4
        15        16        17        18     9        0.000000       -0.053169         1
        15        16        17        18     9      180.000000       18.821815         2
        15        16        17        18     9        0.000000       -1.448138         3
        15        16        17        18     9      180.000000       -0.384808         4
        15        16        17        38     9        0.000000       -0.059698         1
        15        16        17        38     9      180.000000       14.817641         2
        15        16        17        38     9        0.000000       -0.580372         3
        15        16        17        38     9      180.000000        0.085526         4
        15        20        19        18     9        0.000000       -0.031737         1
        15        20        19        18     9      180.000000       18.542499         2
        15        20        19        18     9        0.000000       -1.233008         3
        15        20        19        18     9      180.000000       -0.454043         4
        15        20        19        21     9        0.000000        0.032923         1
        15        20        19        21     9      180.000000       14.477798         2
        15        20        19        21     9        0.000000       -0.182858         3
        15        20        19        21     9      180.000000       -0.298786         4
        16        15        20        19     9        0.000000       -0.169804         1
        16        15        20        19     9      180.000000       18.206429         2
        16        15        20        19     9        0.000000       -1.334021         3
        16        15        20        19     9      180.000000       -0.437303         4
        16        15        20        40     9        0.000000       -0.055520         1
        16        15        20        40     9      180.000000       13.603101         2
        16        15        20        40     9        0.000000       -0.533825         3
        16        15        20        40     9      180.000000        0.071593         4
        16        17        18        19     9        0.000000       -0.008505         1
        16        17        18        19     9      180.000000       18.704799         2
        16        17        18        19     9        0.000000       -1.510477         3
        16        17        18        19     9      180.000000       -0.525561         4
        16        17        18        39     9        0.000000        0.042769         1
        16        17        18        39     9      180.000000       14.228987         2
        16        17        18        39     9        0.000000       -0.612785         3
        16        17        18        39     9      180.000000        0.126008         4
        17        16        15        20     9        0.000000       -0.078785         1
        17        16        15        20     9      180.000000       18.293311         2
        17        16        15        20     9        0.000000       -1.255401         3
        17        16        15        20     9      180.000000       -0.291199         4
        17        18        19        20     9        0.000000       -0.001413         1
        17        18        19        20     9      180.000000       18.077652         2
        17        18        19        20     9        0.000000       -1.231924         3
        17        18        19        20     9      180.000000       -0.384306         4
        17        18        19        21     9        0.000000        0.081817         1
        17        18        19        21     9      180.000000       13.995879         2
        17        18        19        21     9        0.000000       -0.087460         3
        17        18        19        21     9      180.000000       -0.253832         4
        18        17        16        37     9        0.000000        0.105911         1
        18        17        16        37     9      180.000000       14.451310         2
        18        17        16        37     9        0.000000       -0.640234         3
        18        17        16        37     9      180.000000        0.155196         4
        18        19        20        40     9        0.000000        0.124757         1
        18        19        20        40     9      180.000000       13.855055         2
        18        19        20        40     9        0.000000       -0.522092         3
        18        19        20        40     9      180.000000        0.054871         4
        18        19        21        22     9        0.000000       -0.138017         1
        18        19        21        22     9      180.000000        1.383887         2
        18        19        21        22     9        0.000000        0.038359         3
        18        19        21        22     9      180.000000       -0.055268         4
        18        19        21        23     9        0.000000       -0.100524         1
        18        19        21        23     9      180.000000        4.397651         2
        18        19        21        23     9        0.000000        0.091193         3
        18        19        21        23     9      180.000000        0.084588         4
        19        18        17        38     9        0.000000       -0.063986         1
        19        18        17        38     9      180.000000       14.728804         2
        19        18        17        38     9        0.000000       -0.527149         3
        19        18        17        38     9      180.000000        0.034988         4
        19        21        23        24     9        0.000000       11.187295         1
        19        21        23        24     9      180.000000       13.388733         2
        19        21        23        24     9        0.000000        1.465821         3
        19        21        23        24     9      180.000000       -0.264838         4
        19        21        23        25     9        0.000000       11.187292         1
        19        21        23        25     9      180.000000       13.388729         2
        19        21        23        25     9        0.000000        1.465821         3
        19        21        23        25     9      180.000000       -0.264837         4
        20        15        16        37     9        0.000000       -0.001446         1
        20        15        16        37     9      180.000000       13.751018         2
        20        15        16        37     9        0.000000       -0.560992         3
        20        15        16        37     9      180.000000        0.109020         4
        20        19        18        39     9        0.000000        0.043759         1
        20        19        18        39     9      180.000000       13.699020         2
        20        19        18        39     9        0.000000       -0.576113         3
        20        19        18        39     9      180.000000        0.033828         4
        20        19        21        22     9        0.000000       -0.274559         1
        20        19        21        22     9      180.000000        1.471602         2
        20        19        21        22     9        0.000000        0.052141         3
        20        19        21        22     9      180.000000       -0.056564         4
        20        19        21        23     9        0.000000       -0.067303         1
        20        19        21        23     9      180.000000        4.448565         2
        20        19        21        23     9        0.000000        0.024247         3
        20        19        21        23     9      180.000000        0.111184         4
        21        19        18        39     9        0.000000       -0.122553         1
        21        19        18        39     9      180.000000       12.225159         2
        21        19        18        39     9        0.000000       -0.377936         3
        21        19        18        39     9      180.000000        0.072531         4
        21        19        20        40     9        0.000000       -0.035286         1
        21        19        20        40     9      180.000000       12.439966         2
        21        19        20        40     9        0.000000       -0.414620         3
        21        19        20        40     9      180.000000        0.119947         4
        21        23        24        41     9        0.000000       -0.015930         1
        21        23        24        41     9      180.000000        0.024465         2
        21        23        24        41     9        0.000000        0.107830         3
        21        23        24        41     9      180.000000       -0.003711         4
        21        23        24        42     9        0.000000       -0.015930         1
        21        23        24        42     9      180.000000        0.024465         2
        21        23        24        42     9        0.000000        0.107830         3
        21        23        24        42     9      180.000000       -0.003711         4
        21        23        24        43     9        0.000000       -0.015930         1
        21        23        24        43     9      180.000000        0.024465         2
        21        23        24        43     9        0.000000        0.107830         3
        21        23        24        43     9      180.000000       -0.003711         4
        21        23        25        44     9        0.000000       -0.015930         1
        21        23        25        44     9      180.000000        0.024465         2
        21        23        25        44     9        0.000000        0.107830         3
        21        23        25        44     9      180.000000       -0.003711         4
        21        23        25        45     9        0.000000       -0.015930         1
        21        23        25        45     9      180.000000        0.024465         2
        21        23        25        45     9        0.000000        0.107830         3
        21        23        25        45     9      180.000000       -0.003711         4
        21        23        25        46     9        0.000000       -0.015930         1
        21        23        25        46     9      180.000000        0.024465         2
        21        23        25        46     9        0.000000        0.107830         3
        21        23        25        46     9      180.000000       -0.003711         4
        22        21        23        24     9        0.000000       -0.870296         1
        22        21        23        24     9      180.000000       11.444963         2
        22        21        23        24     9        0.000000       -1.492396         3
        22        21        23        24     9      180.000000       -0.029979         4
        22        21        23        25     9        0.000000       -0.870296         1
        22        21        23        25     9      180.000000       11.444963         2
        22        21        23        25     9        0.000000       -1.492396         3
        22        21        23        25     9      180.000000       -0.029979         4
        24        23        25        44     9        0.000000       -0.047806         1
        24        23        25        44     9      180.000000        0.069354         2
        24        23        25        44     9        0.000000        1.311238         3
        24        23        25        44     9      180.000000        0.000234         4
        24        23        25        45     9        0.000000       -0.047806         1
        24        23        25        45     9      180.000000        0.069354         2
        24        23        25        45     9        0.000000        1.311238         3
        24        23        25        45     9      180.000000        0.000234         4
        24        23        25        46     9        0.000000       -0.047806         1
        24        23        25        46     9      180.000000        0.069354         2
        24        23        25        46     9        0.000000        1.311238         3
        24        23        25        46     9      180.000000        0.000234         4
        25        23        24        41     9        0.000000       -0.047806         1
        25        23        24        41     9      180.000000        0.069354         2
        25        23        24        41     9        0.000000        1.311237         3
        25        23        24        41     9      180.000000        0.000234         4
        25        23        24        42     9        0.000000       -0.047806         1
        25        23        24        42     9      180.000000        0.069354         2
        25        23        24        42     9        0.000000        1.311237         3
        25        23        24        42     9      180.000000        0.000234         4
        25        23        24        43     9        0.000000       -0.047806         1
        25        23        24        43     9      180.000000        0.069354         2
        25        23        24        43     9        0.000000        1.311237         3
        25        23        24        43     9      180.000000        0.000234         4
        26         1         9        31     9        0.000000       -0.054703         1
        26         1         9        31     9      180.000000       -0.006948         2
        26         1         9        31     9        0.000000        0.699769         3
        26         1         9        31     9      180.000000       -0.015438         4
        26         1         9        32     9        0.000000       -0.054703         1
        26         1         9        32     9      180.000000       -0.006948         2
        26         1         9        32     9        0.000000        0.699769         3
        26         1         9        32     9      180.000000       -0.015438         4
        27         1         9        31     9        0.000000       -0.054703         1
        27         1         9        31     9      180.000000       -0.006948         2
        27         1         9        31     9        0.000000        0.699769         3
        27         1         9        31     9      180.000000       -0.015438         4
        27         1         9        32     9        0.000000       -0.054703         1
        27         1         9        32     9      180.000000       -0.006948         2
        27         1         9        32     9        0.000000        0.699769         3
        27         1         9        32     9      180.000000       -0.015438         4
        29         6         7        30     9        0.000000        0.041459         1
        29         6         7        30     9      180.000000       10.856146         2
        29         6         7        30     9        0.000000       -0.439658         3
        29         6         7        30     9      180.000000        0.034612         4
        30         7        13        36     9        0.000000       -1.748239         1
        30         7        13        36     9      180.000000        0.605142         2
        30         7        13        36     9        0.000000        0.059435         3
        30         7        13        36     9      180.000000       -0.065714         4
        37        16        17        38     9        0.000000       -0.190064         1
        37        16        17        38     9      180.000000       11.781090         2
        37        16        17        38     9        0.000000       -0.674062         3
        37        16        17        38     9      180.000000        0.295296         4
        38        17        18        39     9        0.000000       -0.183620         1
        38        17        18        39     9      180.000000       11.932156         2
        38        17        18        39     9        0.000000       -0.651141         3
        38        17        18        39     9      180.000000        0.293845         4

[ dihedrals ] ; impropers
;       ai        aj        ak        al funct           phase               k        pn
         2         8        12        14     4      180.000000       21.858098         2
         2        12        14         8     4      180.000000       21.858098         2
         2        14         8        12     4      180.000000       21.858098         2

[ pairs ]
;       ai        aj funct
         1         4     1
         1         8     1
         1        10     1
         1        14     1
         1        28     1
         2         4     1
         2         6     1
         2         7     1
         2         9     1
         2        26     1
         2        27     1
         2        28     1
         2        36     1
         3         6     1
         3         8     1
         3         9     1
         3        14     1
         3        16     1
         3        20     1
         3        26     1
         3        27     1
         4         7     1
         4        13     1
         4        17     1
         4        19     1
         4        29     1
         4        37     1
         4        40     1
         5        12     1
         5        14     1
         5        16     1
         5        20     1
         5        28     1
         5        30     1
         5        36     1
         6        15     1
         6        36     1
         8        15     1
         8        29     1
         8        30     1
         9        33     1
         9        34     1
         9        35     1
        10        31     1
        10        32     1
        11        12     1
        11        26     1
        11        27     1
        12        13     1
        12        15     1
        12        31     1
        12        32     1
        13        14     1
        13        29     1
        15        18     1
        15        21     1
        15        28     1
        15        38     1
        16        19     1
        16        39     1
        16        40     1
        17        20     1
        17        21     1
        18        22     1
        18        23     1
        18        37     1
        18        40     1
        19        24     1
        19        25     1
        19        38     1
        20        22     1
        20        23     1
        20        37     1
        20        39     1
        21        39     1
        21        40     1
        21        41     1
        21        42     1
        21        43     1
        21        44     1
        21        45     1
        21        46     1
        22        24     1
        22        25     1
        24        44     1
        24        45     1
        24        46     1
        25        41     1
        25        42     1
        25        43     1
        26        31     1
        26        32     1
        27        31     1
        27        32     1
        29        30     1
        30        36     1
        37        38     1
        38        39     1
