; ITP file created by ByteFF-ML, 2026-02-21 07:48:10.547166

[ atomtypes ]
;name           bonded.type        at.num        mass        charge   ptype           sigma         epsilon
 c0bf                                   6      0.0000       0.00000       A     3.39724e-01     4.49702e-01
 o1bf                                   8      0.0000       0.00000       A     3.15445e-01     3.03194e-01
 c2bf                                   6      0.0000       0.00000       A     3.31542e-01     4.11819e-01
 o3bf                                   8      0.0000       0.00000       A     3.04727e-01     6.10437e-01
 c4bf                                   6      0.0000       0.00000       A     3.31457e-01     4.13237e-01
 c5bf                                   6      0.0000       0.00000       A     3.31517e-01     4.12822e-01
 c6bf                                   6      0.0000       0.00000       A     3.31609e-01     4.12822e-01
 c7bf                                   6      0.0000       0.00000       A     3.31427e-01     4.13551e-01
 n8bf                                   7      0.0000       0.00000       A     3.27071e-01     4.89574e-01
 c9bf                                   6      0.0000       0.00000       A     3.31400e-01     4.13420e-01
 o10bf                                  8      0.0000       0.00000       A     3.04652e-01     6.12749e-01
 c11bf                                  6      0.0000       0.00000       A     3.31409e-01     4.13987e-01
 c12bf                                  6      0.0000       0.00000       A     3.31488e-01     4.13084e-01
 c13bf                                  6      0.0000       0.00000       A     3.31529e-01     4.13917e-01
 c14bf                                  6      0.0000       0.00000       A     3.31449e-01     4.12292e-01
 c15bf                                  6      0.0000       0.00000       A     3.31327e-01     4.12479e-01
 c16bf                                  6      0.0000       0.00000       A     3.31544e-01     4.15013e-01
 c17bf                                  6      0.0000       0.00000       A     3.31466e-01     4.10308e-01
 c18bf                                  6      0.0000       0.00000       A     3.31502e-01     4.12996e-01
 n19bf                                  7      0.0000       0.00000       A     3.20544e-01     8.50304e-01
 c20bf                                  6      0.0000       0.00000       A     3.31513e-01     4.11965e-01
 c21bf                                  6      0.0000       0.00000       A     3.31488e-01     4.12482e-01
 n22bf                                  7      0.0000       0.00000       A     3.38571e-01     3.94678e-01
 c23bf                                  6      0.0000       0.00000       A     3.31524e-01     4.13157e-01
 c24bf                                  6      0.0000       0.00000       A     3.31293e-01     4.14462e-01
 n25bf                                  7      0.0000       0.00000       A     3.27838e-01     6.48903e-01
 c26bf                                  6      0.0000       0.00000       A     3.31310e-01     4.12073e-01
 c27bf                                  6      0.0000       0.00000       A     3.31371e-01     4.12570e-01
 c28bf                                  6      0.0000       0.00000       A     3.31460e-01     4.13344e-01
 c29bf                                  6      0.0000       0.00000       A     3.31494e-01     4.13273e-01
 o30bf                                  8      0.0000       0.00000       A     3.15802e-01     3.03422e-01
 c31bf                                  6      0.0000       0.00000       A     3.39799e-01     4.50095e-01
 c32bf                                  6      0.0000       0.00000       A     3.31334e-01     4.12096e-01
 o33bf                                  8      0.0000       0.00000       A     3.15839e-01     3.04251e-01
 c34bf                                  6      0.0000       0.00000       A     3.39799e-01     4.50095e-01
 c35bf                                  6      0.0000       0.00000       A     3.31426e-01     4.12512e-01
 n36bf                                  7      0.0000       0.00000       A     3.38681e-01     3.94196e-01
 c37bf                                  6      0.0000       0.00000       A     3.31609e-01     4.12822e-01
 c38bf                                  6      0.0000       0.00000       A     3.31517e-01     4.12822e-01
 h39bf                                  1      0.0000       0.00000       A     2.42003e-01     8.72443e-02
 h40bf                                  1      0.0000       0.00000       A     2.42003e-01     8.72443e-02
 h41bf                                  1      0.0000       0.00000       A     2.42003e-01     8.72443e-02
 h42bf                                  1      0.0000       0.00000       A     2.62623e-01     6.73605e-02
 h43bf                                  1      0.0000       0.00000       A     2.62602e-01     6.76909e-02
 h44bf                                  1      0.0000       0.00000       A     1.10552e-01     4.15186e-02
 h45bf                                  1      0.0000       0.00000       A     2.62499e-01     6.70748e-02
 h46bf                                  1      0.0000       0.00000       A     2.62513e-01     6.76542e-02
 h47bf                                  1      0.0000       0.00000       A     2.62488e-01     6.75042e-02
 h48bf                                  1      0.0000       0.00000       A     2.62516e-01     6.75728e-02
 h49bf                                  1      0.0000       0.00000       A     2.53936e-01     6.71690e-02
 h50bf                                  1      0.0000       0.00000       A     2.54157e-01     6.73717e-02
 h51bf                                  1      0.0000       0.00000       A     2.53844e-01     6.71387e-02
 h52bf                                  1      0.0000       0.00000       A     1.10437e-01     4.36637e-02
 h53bf                                  1      0.0000       0.00000       A     2.62478e-01     6.76031e-02
 h54bf                                  1      0.0000       0.00000       A     2.62545e-01     6.69663e-02
 h55bf                                  1      0.0000       0.00000       A     2.42080e-01     8.75859e-02
 h56bf                                  1      0.0000       0.00000       A     2.42080e-01     8.75859e-02
 h57bf                                  1      0.0000       0.00000       A     2.42080e-01     8.75859e-02
 h58bf                                  1      0.0000       0.00000       A     2.42080e-01     8.75859e-02
 h59bf                                  1      0.0000       0.00000       A     2.42080e-01     8.75859e-02
 h60bf                                  1      0.0000       0.00000       A     2.42080e-01     8.75859e-02
 h61bf                                  1      0.0000       0.00000       A     2.62385e-01     6.71291e-02
 h62bf                                  1      0.0000       0.00000       A     2.62602e-01     6.76909e-02
 h63bf                                  1      0.0000       0.00000       A     2.62623e-01     6.73605e-02

[ moleculetype ]
;name             nrexcl
 CHEMBL3264996         3

[ atoms ]
;       nr            type      resi   res      atom      cgnr      charge          mass ; qtot
         1            c0bf         1   UNL        c0         1     0.14928       12.0110 ; qtot    0.149
         2            o1bf         1   UNL        o1         2    -0.44612       15.9990 ; qtot   -0.297
         3            c2bf         1   UNL        c2         3     0.60426       12.0110 ; qtot    0.307
         4            o3bf         1   UNL        o3         4    -0.48370       15.9990 ; qtot   -0.176
         5            c4bf         1   UNL        c4         5    -0.18577       12.0110 ; qtot   -0.362
         6            c5bf         1   UNL        c5         6    -0.02111       12.0110 ; qtot   -0.383
         7            c6bf         1   UNL        c6         7    -0.17307       12.0110 ; qtot   -0.556
         8            c7bf         1   UNL        c7         8     0.01734       12.0110 ; qtot   -0.539
         9            n8bf         1   UNL        n8         9    -0.15116       14.0070 ; qtot   -0.690
        10            c9bf         1   UNL        c9        10     0.62255       12.0110 ; qtot   -0.067
        11           o10bf         1   UNL       o10        11    -0.57926       15.9990 ; qtot   -0.647
        12           c11bf         1   UNL       c11        12    -0.15749       12.0110 ; qtot   -0.804
        13           c12bf         1   UNL       c12        13    -0.05966       12.0110 ; qtot   -0.864
        14           c13bf         1   UNL       c13        14    -0.12433       12.0110 ; qtot   -0.988
        15           c14bf         1   UNL       c14        15    -0.06706       12.0110 ; qtot   -1.055
        16           c15bf         1   UNL       c15        16    -0.13091       12.0110 ; qtot   -1.186
        17           c16bf         1   UNL       c16        17    -0.02993       12.0110 ; qtot   -1.216
        18           c17bf         1   UNL       c17        18     0.38739       12.0110 ; qtot   -0.829
        19           c18bf         1   UNL       c18        19    -0.18080       12.0110 ; qtot   -1.010
        20           n19bf         1   UNL       n19        20     0.16114       14.0070 ; qtot   -0.848
        21           c20bf         1   UNL       c20        21    -0.26112       12.0110 ; qtot   -1.110
        22           c21bf         1   UNL       c21        22    -0.04248       12.0110 ; qtot   -1.152
        23           n22bf         1   UNL       n22        23    -0.27126       14.0070 ; qtot   -1.423
        24           c23bf         1   UNL       c23        24    -0.16948       12.0110 ; qtot   -1.593
        25           c24bf         1   UNL       c24        25     0.67905       12.0110 ; qtot   -0.914
        26           n25bf         1   UNL       n25        26    -0.91203       14.0070 ; qtot   -1.826
        27           c26bf         1   UNL       c26        27     0.30239       12.0110 ; qtot   -1.523
        28           c27bf         1   UNL       c27        28    -0.13475       12.0110 ; qtot   -1.658
        29           c28bf         1   UNL       c28        29    -0.13937       12.0110 ; qtot   -1.797
        30           c29bf         1   UNL       c29        30     0.08002       12.0110 ; qtot   -1.717
        31           o30bf         1   UNL       o30        31    -0.33647       15.9990 ; qtot   -2.054
        32           c31bf         1   UNL       c31        32     0.14145       12.0110 ; qtot   -1.912
        33           c32bf         1   UNL       c32        33     0.11411       12.0110 ; qtot   -1.798
        34           o33bf         1   UNL       o33        34    -0.33842       15.9990 ; qtot   -2.137
        35           c34bf         1   UNL       c34        35     0.14175       12.0110 ; qtot   -1.995
        36           c35bf         1   UNL       c35        36    -0.18949       12.0110 ; qtot   -2.185
        37           n36bf         1   UNL       n36        37    -0.75823       14.0070 ; qtot   -2.943
        38           c37bf         1   UNL       c37        38    -0.17307       12.0110 ; qtot   -3.116
        39           c38bf         1   UNL       c38        39    -0.02111       12.0110 ; qtot   -3.137
        40           h39bf         1   UNL       h39        40     0.05393        1.0080 ; qtot   -3.083
        41           h40bf         1   UNL       h40        41     0.05393        1.0080 ; qtot   -3.029
        42           h41bf         1   UNL       h41        42     0.05393        1.0080 ; qtot   -2.975
        43           h42bf         1   UNL       h42        43     0.13601        1.0080 ; qtot   -2.839
        44           h43bf         1   UNL       h43        44     0.13835        1.0080 ; qtot   -2.701
        45           h44bf         1   UNL       h44        45     0.15521        1.0080 ; qtot   -2.546
        46           h45bf         1   UNL       h45        46     0.12793        1.0080 ; qtot   -2.418
        47           h46bf         1   UNL       h46        47     0.12077        1.0080 ; qtot   -2.297
        48           h47bf         1   UNL       h47        48     0.12393        1.0080 ; qtot   -2.173
        49           h48bf         1   UNL       h48        49     0.13666        1.0080 ; qtot   -2.036
        50           h49bf         1   UNL       h49        50     0.15431        1.0080 ; qtot   -1.882
        51           h50bf         1   UNL       h50        51     0.22767        1.0080 ; qtot   -1.654
        52           h51bf         1   UNL       h51        52     0.22246        1.0080 ; qtot   -1.432
        53           h52bf         1   UNL       h52        53     0.50588        1.0080 ; qtot   -0.926
        54           h53bf         1   UNL       h53        54     0.13132        1.0080 ; qtot   -0.795
        55           h54bf         1   UNL       h54        55     0.12393        1.0080 ; qtot   -0.671
        56           h55bf         1   UNL       h55        56     0.04404        1.0080 ; qtot   -0.627
        57           h56bf         1   UNL       h56        57     0.04404        1.0080 ; qtot   -0.583
        58           h57bf         1   UNL       h57        58     0.04404        1.0080 ; qtot   -0.539
        59           h58bf         1   UNL       h58        59     0.04404        1.0080 ; qtot   -0.495
        60           h59bf         1   UNL       h59        60     0.04404        1.0080 ; qtot   -0.451
        61           h60bf         1   UNL       h60        61     0.04404        1.0080 ; qtot   -0.406
        62           h61bf         1   UNL       h61        62     0.13212        1.0080 ; qtot   -0.274
        63           h62bf         1   UNL       h62        63     0.13835        1.0080 ; qtot   -0.136
        64           h63bf         1   UNL       h63        64     0.13599        1.0080 ; qtot   -0.000

[ bonds ]
;       ai        aj funct               r               k
         1         2     1        0.144281   182375.999072
         1        40     1        0.109098   309415.737988
         1        41     1        0.109098   309415.737988
         1        42     1        0.109098   309415.737988
         2         3     1        0.135639   235167.869336
         3         4     1        0.122012   642825.582129
         3         5     1        0.148474   192090.443164
         5         6     1        0.140294   296507.750684
         5        39     1        0.140294   296507.725146
         6         7     1        0.138985   334941.917480
         6        43     1        0.108453   324367.077100
         7         8     1        0.140799   279538.315967
         7        44     1        0.108368   326052.500781
         8         9     1        0.140832   247181.802441
         8        38     1        0.140799   279538.315967
         9        10     1        0.137774   260679.799121
         9        45     1        0.101060   420963.925781
        10        11     1        0.123099   599049.818164
        10        12     1        0.150346   173180.967017
        12        13     1        0.140351   292927.550098
        12        17     1        0.140060   296553.972852
        13        14     1        0.139620   314663.869336
        13        46     1        0.108519   322051.499707
        14        15     1        0.139594   317089.639355
        14        47     1        0.108609   320221.791357
        15        16     1        0.140513   288215.978955
        15        48     1        0.108514   321359.137598
        16        17     1        0.140241   290040.222363
        16        18     1        0.148326   208877.185400
        17        49     1        0.108450   322961.540137
        18        19     1        0.137534   346710.030371
        18        37     1        0.137702   243451.418115
        19        20     1        0.137841   276178.653857
        19        50     1        0.108180   332005.354199
        20        21     1        0.137750   263209.096582
        20        24     1        0.138998   204565.857373
        21        22     1        0.138746   337814.127246
        21        51     1        0.107915   345078.311230
        22        23     1        0.136744   275913.399902
        22        52     1        0.108260   332273.212939
        23        24     1        0.133378   321390.292871
        24        25     1        0.143870   235848.075781
        25        26     1        0.136729   311607.766846
        25        37     1        0.132079   353344.852295
        26        27     1        0.141092   252182.734570
        26        53     1        0.101302   413497.768799
        27        28     1        0.140061   293503.054395
        27        36     1        0.140674   282765.542627
        28        29     1        0.140005   315466.551758
        28        54     1        0.108414   324178.076953
        29        30     1        0.139488   304008.331689
        29        55     1        0.108446   322299.133057
        30        31     1        0.137015   270782.126367
        30        33     1        0.141529   250914.408496
        31        32     1        0.142750   205228.507056
        32        56     1        0.109386   299034.341211
        32        57     1        0.109386   299034.341211
        32        58     1        0.109386   299034.341211
        33        34     1        0.136800   272579.836719
        33        36     1        0.139409   309212.462598
        34        35     1        0.142754   205101.332251
        35        59     1        0.109386   299034.366748
        35        60     1        0.109386   299034.366748
        35        61     1        0.109386   299034.366748
        36        62     1        0.108244   326136.952002
        38        39     1        0.138985   334941.917480
        38        63     1        0.108368   326052.500781
        39        64     1        0.108453   324367.102637

[ angles ]
;       ai        aj        ak funct           theta             cth
         1         2         3     1      115.143631      555.817101
         2         1        40     1      108.710037      474.366810
         2         1        41     1      108.710037      474.366810
         2         1        42     1      108.710037      474.366810
         2         3         4     1      122.858093      579.491214
         2         3         5     1      112.549362      479.205485
         3         5         6     1      120.666504      538.117139
         3         5        39     1      120.666489      538.117139
         4         3         5     1      124.579674      511.400279
         5         6         7     1      120.899490      632.832362
         5         6        43     1      119.246437      423.274492
         5        39        38     1      120.899490      632.832234
         5        39        64     1      119.246437      423.274492
         6         5        39     1      118.752640      610.633974
         6         7         8     1      119.801292      747.481023
         6         7        44     1      120.234360      409.831821
         7         6        43     1      119.852005      409.442540
         7         8         9     1      120.308670      610.431082
         7         8        38     1      119.357468      463.062170
         8         7        44     1      119.798805      457.243412
         8         9        10     1      129.327301      479.112083
         8         9        45     1      114.639549      456.376427
         8        38        39     1      119.801292      747.481087
         8        38        63     1      119.798805      457.243412
         9         8        38     1      120.308670      610.431082
         9        10        11     1      123.664795      582.724659
         9        10        12     1      114.767807      460.182861
        10         9        45     1      116.096329      428.413164
        10        12        13     1      120.498398      547.227758
        10        12        17     1      119.579239      508.085051
        11        10        12     1      121.422562      648.057651
        12        13        14     1      119.889915      674.343253
        12        13        46     1      119.833374      412.181873
        12        17        16     1      120.851807      667.680940
        12        17        49     1      119.418274      406.895181
        13        12        17     1      119.431374      670.343631
        13        14        15     1      120.318016      731.884744
        13        14        47     1      119.938904      443.962487
        14        13        46     1      120.301353      417.496178
        14        15        16     1      120.426010      693.452544
        14        15        48     1      119.993393      420.392278
        15        14        47     1      119.819260      444.895006
        15        16        17     1      118.808350      642.855997
        15        16        18     1      120.875320      534.916541
        16        15        48     1      119.651489      426.259013
        16        17        49     1      119.534767      416.613073
        16        18        19     1      121.389755      451.340509
        16        18        37     1      116.210670      496.142431
        17        16        18     1      120.648270      468.353555
        18        19        20     1      118.140015      872.310500
        18        19        50     1      124.923782      345.661438
        18        37        25     1      119.723656      660.395075
        19        18        37     1      122.073318      386.369793
        19        20        21     1      132.322876      451.336934
        19        20        24     1      121.408890      768.949752
        20        19        50     1      117.425148      489.799140
        20        21        22     1      105.222717      375.666967
        20        21        51     1      122.391075      461.871917
        20        24        23     1      111.412987      167.360000
        20        24        25     1      117.476013      691.884757
        21        20        24     1      106.439148      167.360000
        21        22        23     1      111.710037      296.607716
        21        22        52     1      126.932030      353.254674
        22        21        51     1      132.665771      296.979153
        22        23        24     1      105.148094      501.387242
        23        22        52     1      121.224686      373.698758
        23        24        25     1      131.168365      328.267251
        24        25        26     1      116.105576      347.689596
        24        25        37     1      121.162231      641.675097
        25        26        27     1      130.908600      390.906684
        25        26        53     1      112.198647      485.186500
        26        25        37     1      121.356186      603.895561
        26        27        28     1      121.161964      571.797075
        26        27        36     1      119.328491      531.273608
        27        26        53     1      115.466995      445.927919
        27        28        29     1      119.989258      692.295649
        27        28        54     1      119.993568      438.163871
        27        36        33     1      120.440453      771.725955
        27        36        62     1      119.557449      428.763885
        28        27        36     1      119.274185      562.540766
        28        29        30     1      121.105545      730.301061
        28        29        55     1      119.168861      430.731806
        29        28        54     1      119.981018      402.478985
        29        30        31     1      124.061974      526.185180
        29        30        33     1      118.961632      615.309053
        30        29        55     1      119.820435      430.270000
        30        31        32     1      117.082443      547.136527
        30        33        34     1      116.770729      382.344570
        30        33        36     1      119.959702      641.355245
        31        30        33     1      116.730186      403.093057
        31        32        56     1      109.406631      448.806110
        31        32        57     1      109.406631      448.806110
        31        32        58     1      109.406631      448.806110
        33        34        35     1      117.278854      548.766496
        33        36        62     1      120.054489      415.811750
        34        33        36     1      123.114540      463.233875
        34        35        59     1      109.407089      448.359562
        34        35        60     1      109.407089      448.359562
        34        35        61     1      109.407089      448.359562
        38        39        64     1      119.852005      409.442540
        39        38        63     1      120.234375      409.831853
        40         1        41     1      110.334000      330.800756
        40         1        42     1      110.334000      330.800756
        41         1        42     1      110.334000      330.800756
        56        32        57     1      109.654236      343.283167
        56        32        58     1      109.654236      343.283167
        57        32        58     1      109.654236      343.283167
        59        35        60     1      109.654221      343.283167
        59        35        61     1      109.654221      343.283167
        60        35        61     1      109.654221      343.283167

[ dihedrals ] ; propers for gromacs 4.5 or higher, use funct 9
;       ai        aj        ak        al funct           phase               k        pn
         1         2         3         4     9        0.000000       -0.037353         1
         1         2         3         4     9      180.000000        9.651042         2
         1         2         3         4     9        0.000000       -0.838080         3
         1         2         3         4     9      180.000000        0.162657         4
         1         2         3         5     9        0.000000        0.478278         1
         1         2         3         5     9      180.000000       12.093379         2
         1         2         3         5     9        0.000000        0.620871         3
         1         2         3         5     9      180.000000       -0.090280         4
         2         3         5         6     9        0.000000        0.199277         1
         2         3         5         6     9      180.000000        4.693891         2
         2         3         5         6     9        0.000000        0.076537         3
         2         3         5         6     9      180.000000        0.159794         4
         2         3         5        39     9        0.000000        0.199278         1
         2         3         5        39     9      180.000000        4.693892         2
         2         3         5        39     9        0.000000        0.076537         3
         2         3         5        39     9      180.000000        0.159794         4
         3         2         1        40     9        0.000000        0.033347         1
         3         2         1        40     9      180.000000        0.010374         2
         3         2         1        40     9        0.000000        0.101041         3
         3         2         1        40     9      180.000000       -0.000718         4
         3         2         1        41     9        0.000000        0.033347         1
         3         2         1        41     9      180.000000        0.010374         2
         3         2         1        41     9        0.000000        0.101041         3
         3         2         1        41     9      180.000000       -0.000718         4
         3         2         1        42     9        0.000000        0.033347         1
         3         2         1        42     9      180.000000        0.010374         2
         3         2         1        42     9        0.000000        0.101041         3
         3         2         1        42     9      180.000000       -0.000718         4
         3         5         6         7     9        0.000000        0.031900         1
         3         5         6         7     9      180.000000       13.315793         2
         3         5         6         7     9        0.000000       -0.159465         3
         3         5         6         7     9      180.000000       -0.208655         4
         3         5         6        43     9        0.000000        0.044683         1
         3         5         6        43     9      180.000000       11.539260         2
         3         5         6        43     9        0.000000       -0.224690         3
         3         5         6        43     9      180.000000       -0.003222         4
         3         5        39        38     9        0.000000        0.031900         1
         3         5        39        38     9      180.000000       13.315793         2
         3         5        39        38     9        0.000000       -0.159465         3
         3         5        39        38     9      180.000000       -0.208655         4
         3         5        39        64     9        0.000000        0.044684         1
         3         5        39        64     9      180.000000       11.539257         2
         3         5        39        64     9        0.000000       -0.224689         3
         3         5        39        64     9      180.000000       -0.003222         4
         4         3         5         6     9        0.000000       -0.132770         1
         4         3         5         6     9      180.000000        3.766307         2
         4         3         5         6     9        0.000000       -0.053273         3
         4         3         5         6     9      180.000000        0.019850         4
         4         3         5        39     9        0.000000       -0.132771         1
         4         3         5        39     9      180.000000        3.766307         2
         4         3         5        39     9        0.000000       -0.053273         3
         4         3         5        39     9      180.000000        0.019850         4
         5         6         7         8     9        0.000000       -0.223139         1
         5         6         7         8     9      180.000000       18.850688         2
         5         6         7         8     9        0.000000       -1.557946         3
         5         6         7         8     9      180.000000       -0.519785         4
         5         6         7        44     9        0.000000       -0.022306         1
         5         6         7        44     9      180.000000       15.241834         2
         5         6         7        44     9        0.000000       -0.526062         3
         5         6         7        44     9      180.000000        0.010619         4
         5        39        38         8     9        0.000000       -0.223140         1
         5        39        38         8     9      180.000000       18.850686         2
         5        39        38         8     9        0.000000       -1.557947         3
         5        39        38         8     9      180.000000       -0.519785         4
         5        39        38        63     9        0.000000       -0.022305         1
         5        39        38        63     9      180.000000       15.241835         2
         5        39        38        63     9        0.000000       -0.526062         3
         5        39        38        63     9      180.000000        0.010619         4
         6         5        39        38     9        0.000000        0.004263         1
         6         5        39        38     9      180.000000       17.235755         2
         6         5        39        38     9        0.000000       -1.415577         3
         6         5        39        38     9      180.000000       -0.277095         4
         6         5        39        64     9        0.000000        0.067031         1
         6         5        39        64     9      180.000000       13.430315         2
         6         5        39        64     9        0.000000       -0.522829         3
         6         5        39        64     9      180.000000        0.028763         4
         6         7         8         9     9        0.000000        0.446407         1
         6         7         8         9     9      180.000000       16.961808         2
         6         7         8         9     9        0.000000        0.148384         3
         6         7         8         9     9      180.000000       -0.333212         4
         6         7         8        38     9        0.000000        0.038275         1
         6         7         8        38     9      180.000000       15.822989         2
         6         7         8        38     9        0.000000       -0.872189         3
         6         7         8        38     9      180.000000       -0.184318         4
         7         6         5        39     9        0.000000        0.004262         1
         7         6         5        39     9      180.000000       17.235757         2
         7         6         5        39     9        0.000000       -1.415577         3
         7         6         5        39     9      180.000000       -0.277095         4
         7         8         9        10     9        0.000000       -0.129964         1
         7         8         9        10     9      180.000000        3.013438         2
         7         8         9        10     9        0.000000        0.006934         3
         7         8         9        10     9      180.000000        0.135248         4
         7         8         9        45     9        0.000000        0.046956         1
         7         8         9        45     9      180.000000        3.011117         2
         7         8         9        45     9        0.000000        0.040793         3
         7         8         9        45     9      180.000000        0.072972         4
         7         8        38        39     9        0.000000        0.038275         1
         7         8        38        39     9      180.000000       15.822989         2
         7         8        38        39     9        0.000000       -0.872189         3
         7         8        38        39     9      180.000000       -0.184319         4
         7         8        38        63     9        0.000000        0.152086         1
         7         8        38        63     9      180.000000       12.780132         2
         7         8        38        63     9        0.000000       -0.426406         3
         7         8        38        63     9      180.000000        0.145205         4
         8         7         6        43     9        0.000000       -0.073847         1
         8         7         6        43     9      180.000000       14.852293         2
         8         7         6        43     9        0.000000       -0.623690         3
         8         7         6        43     9      180.000000        0.032255         4
         8         9        10        11     9        0.000000       -3.614921         1
         8         9        10        11     9      180.000000        7.395805         2
         8         9        10        11     9        0.000000       -0.043643         3
         8         9        10        11     9      180.000000       -0.413204         4
         8         9        10        12     9        0.000000        2.781903         1
         8         9        10        12     9      180.000000        7.601179         2
         8         9        10        12     9        0.000000        1.108325         3
         8         9        10        12     9      180.000000       -0.509628         4
         8        38        39        64     9        0.000000       -0.073847         1
         8        38        39        64     9      180.000000       14.852297         2
         8        38        39        64     9        0.000000       -0.623690         3
         8        38        39        64     9      180.000000        0.032256         4
         9         8         7        44     9        0.000000       -0.035701         1
         9         8         7        44     9      180.000000       13.580743         2
         9         8         7        44     9        0.000000       -0.074157         3
         9         8         7        44     9      180.000000        0.292148         4
         9         8        38        39     9        0.000000        0.446407         1
         9         8        38        39     9      180.000000       16.961808         2
         9         8        38        39     9        0.000000        0.148384         3
         9         8        38        39     9      180.000000       -0.333212         4
         9         8        38        63     9        0.000000       -0.035701         1
         9         8        38        63     9      180.000000       13.580743         2
         9         8        38        63     9        0.000000       -0.074157         3
         9         8        38        63     9      180.000000        0.292148         4
         9        10        12        13     9        0.000000        0.067208         1
         9        10        12        13     9      180.000000        2.602227         2
         9        10        12        13     9        0.000000        0.041500         3
         9        10        12        13     9      180.000000       -0.174446         4
         9        10        12        17     9        0.000000        0.043926         1
         9        10        12        17     9      180.000000        2.572274         2
         9        10        12        17     9        0.000000       -0.000916         3
         9        10        12        17     9      180.000000       -0.196725         4
        10         9         8        38     9        0.000000       -0.129964         1
        10         9         8        38     9      180.000000        3.013438         2
        10         9         8        38     9        0.000000        0.006934         3
        10         9         8        38     9      180.000000        0.135248         4
        10        12        13        14     9        0.000000        0.145371         1
        10        12        13        14     9      180.000000       14.069128         2
        10        12        13        14     9        0.000000       -0.203521         3
        10        12        13        14     9      180.000000       -0.239924         4
        10        12        13        46     9        0.000000        0.095868         1
        10        12        13        46     9      180.000000       12.517239         2
        10        12        13        46     9        0.000000       -0.345401         3
        10        12        13        46     9      180.000000        0.051389         4
        10        12        17        16     9        0.000000       -0.026724         1
        10        12        17        16     9      180.000000       14.388546         2
        10        12        17        16     9        0.000000       -0.276132         3
        10        12        17        16     9      180.000000       -0.351163         4
        10        12        17        49     9        0.000000        0.100387         1
        10        12        17        49     9      180.000000       12.734848         2
        10        12        17        49     9        0.000000       -0.255006         3
        10        12        17        49     9      180.000000        0.053044         4
        11        10         9        45     9        0.000000       -1.016182         1
        11        10         9        45     9      180.000000        9.014645         2
        11        10         9        45     9        0.000000        0.594482         3
        11        10         9        45     9      180.000000        0.310451         4
        11        10        12        13     9        0.000000        0.135039         1
        11        10        12        13     9      180.000000        3.468454         2
        11        10        12        13     9        0.000000        0.090970         3
        11        10        12        13     9      180.000000        0.070506         4
        11        10        12        17     9        0.000000        0.224622         1
        11        10        12        17     9      180.000000        3.542608         2
        11        10        12        17     9        0.000000        0.097870         3
        11        10        12        17     9      180.000000        0.070549         4
        12        10         9        45     9        0.000000        1.494399         1
        12        10         9        45     9      180.000000        8.605949         2
        12        10         9        45     9        0.000000        0.130869         3
        12        10         9        45     9      180.000000        0.584496         4
        12        13        14        15     9        0.000000        0.011109         1
        12        13        14        15     9      180.000000       18.845242         2
        12        13        14        15     9        0.000000       -1.552920         3
        12        13        14        15     9      180.000000       -0.491477         4
        12        13        14        47     9        0.000000       -0.016827         1
        12        13        14        47     9      180.000000       14.741156         2
        12        13        14        47     9        0.000000       -0.533206         3
        12        13        14        47     9      180.000000        0.098091         4
        12        17        16        15     9        0.000000       -0.133746         1
        12        17        16        15     9      180.000000       18.182059         2
        12        17        16        15     9        0.000000       -1.400240         3
        12        17        16        15     9      180.000000       -0.377173         4
        12        17        16        18     9        0.000000        0.134785         1
        12        17        16        18     9      180.000000       15.865858         2
        12        17        16        18     9        0.000000       -0.049765         3
        12        17        16        18     9      180.000000       -0.342145         4
        13        12        17        16     9        0.000000       -0.069077         1
        13        12        17        16     9      180.000000       18.808979         2
        13        12        17        16     9        0.000000       -1.402794         3
        13        12        17        16     9      180.000000       -0.509349         4
        13        12        17        49     9        0.000000        0.081051         1
        13        12        17        49     9      180.000000       13.940945         2
        13        12        17        49     9        0.000000       -0.518421         3
        13        12        17        49     9      180.000000        0.106029         4
        13        14        15        16     9        0.000000        0.015891         1
        13        14        15        16     9      180.000000       19.096888         2
        13        14        15        16     9        0.000000       -1.525263         3
        13        14        15        16     9      180.000000       -0.448506         4
        13        14        15        48     9        0.000000        0.051452         1
        13        14        15        48     9      180.000000       14.645317         2
        13        14        15        48     9        0.000000       -0.634929         3
        13        14        15        48     9      180.000000        0.161347         4
        14        13        12        17     9        0.000000        0.045946         1
        14        13        12        17     9      180.000000       18.408733         2
        14        13        12        17     9        0.000000       -1.320229         3
        14        13        12        17     9      180.000000       -0.441812         4
        14        15        16        17     9        0.000000       -0.112993         1
        14        15        16        17     9      180.000000       18.098906         2
        14        15        16        17     9        0.000000       -1.345766         3
        14        15        16        17     9      180.000000       -0.298964         4
        14        15        16        18     9        0.000000        0.174884         1
        14        15        16        18     9      180.000000       15.784522         2
        14        15        16        18     9        0.000000       -0.112468         3
        14        15        16        18     9      180.000000       -0.242402         4
        15        14        13        46     9        0.000000       -0.031501         1
        15        14        13        46     9      180.000000       14.440509         2
        15        14        13        46     9        0.000000       -0.616965         3
        15        14        13        46     9      180.000000        0.134307         4
        15        16        17        49     9        0.000000       -0.135125         1
        15        16        17        49     9      180.000000       13.914622         2
        15        16        17        49     9        0.000000       -0.506433         3
        15        16        17        49     9      180.000000        0.103393         4
        15        16        18        19     9        0.000000       -0.221291         1
        15        16        18        19     9      180.000000        3.275720         2
        15        16        18        19     9        0.000000        0.192136         3
        15        16        18        19     9      180.000000       -0.197230         4
        15        16        18        37     9        0.000000       -0.299337         1
        15        16        18        37     9      180.000000        4.054356         2
        15        16        18        37     9        0.000000        0.010569         3
        15        16        18        37     9      180.000000        0.039839         4
        16        15        14        47     9        0.000000       -0.041600         1
        16        15        14        47     9      180.000000       14.961508         2
        16        15        14        47     9        0.000000       -0.548935         3
        16        15        14        47     9      180.000000        0.072534         4
        16        18        19        20     9        0.000000        0.181145         1
        16        18        19        20     9      180.000000       26.715898         2
        16        18        19        20     9        0.000000        0.409266         3
        16        18        19        20     9      180.000000       -1.827917         4
        16        18        19        50     9        0.000000       -0.041887         1
        16        18        19        50     9      180.000000       15.049990         2
        16        18        19        50     9        0.000000        0.318743         3
        16        18        19        50     9      180.000000       -0.032420         4
        16        18        37        25     9        0.000000        1.452569         1
        16        18        37        25     9      180.000000       18.029776         2
        16        18        37        25     9        0.000000        0.698410         3
        16        18        37        25     9      180.000000       -1.025730         4
        17        12        13        46     9        0.000000        0.015578         1
        17        12        13        46     9      180.000000       13.846684         2
        17        12        13        46     9        0.000000       -0.593206         3
        17        12        13        46     9      180.000000        0.076468         4
        17        16        15        48     9        0.000000       -0.126499         1
        17        16        15        48     9      180.000000       13.833971         2
        17        16        15        48     9        0.000000       -0.628352         3
        17        16        15        48     9      180.000000        0.114538         4
        17        16        18        19     9        0.000000       -0.368391         1
        17        16        18        19     9      180.000000        3.324208         2
        17        16        18        19     9        0.000000        0.205505         3
        17        16        18        19     9      180.000000       -0.197058         4
        17        16        18        37     9        0.000000       -0.072946         1
        17        16        18        37     9      180.000000        4.069630         2
        17        16        18        37     9        0.000000       -0.020634         3
        17        16        18        37     9      180.000000        0.038871         4
        18        16        15        48     9        0.000000       -0.128499         1
        18        16        15        48     9      180.000000       12.509089         2
        18        16        15        48     9        0.000000       -0.204270         3
        18        16        15        48     9      180.000000        0.175566         4
        18        16        17        49     9        0.000000       -0.158024         1
        18        16        17        49     9      180.000000       12.526605         2
        18        16        17        49     9        0.000000       -0.153023         3
        18        16        17        49     9      180.000000        0.220686         4
        18        19        20        21     9        0.000000        0.471966         1
        18        19        20        21     9      180.000000        4.973018         2
        18        19        20        21     9        0.000000        0.246173         3
        18        19        20        21     9      180.000000        0.108343         4
        18        19        20        24     9        0.000000       -0.637452         1
        18        19        20        24     9      180.000000        9.281698         2
        18        19        20        24     9        0.000000       -1.036308         3
        18        19        20        24     9      180.000000       -0.051108         4
        18        37        25        24     9        0.000000        0.950279         1
        18        37        25        24     9      180.000000       22.114476         2
        18        37        25        24     9        0.000000        0.588585         3
        18        37        25        24     9      180.000000       -0.565663         4
        18        37        25        26     9        0.000000        1.964183         1
        18        37        25        26     9      180.000000       24.409538         2
        18        37        25        26     9        0.000000        0.721435         3
        18        37        25        26     9      180.000000       -0.981985         4
        19        18        37        25     9        0.000000        0.932418         1
        19        18        37        25     9      180.000000       13.725355         2
        19        18        37        25     9        0.000000       -0.291373         3
        19        18        37        25     9      180.000000       -0.023212         4
        19        20        21        22     9        0.000000        0.965502         1
        19        20        21        22     9      180.000000        5.223293         2
        19        20        21        22     9        0.000000        0.739375         3
        19        20        21        22     9      180.000000       -0.040295         4
        19        20        21        51     9        0.000000        0.156546         1
        19        20        21        51     9      180.000000        3.679928         2
        19        20        21        51     9        0.000000        0.374386         3
        19        20        21        51     9      180.000000        0.064056         4
        19        20        24        23     9        0.000000        0.555178         1
        19        20        24        23     9      180.000000        7.752462         2
        19        20        24        23     9        0.000000       -0.729378         3
        19        20        24        23     9      180.000000        0.134979         4
        19        20        24        25     9        0.000000        0.337955         1
        19        20        24        25     9      180.000000        5.783879         2
        19        20        24        25     9        0.000000       -0.143386         3
        19        20        24        25     9      180.000000        0.124531         4
        20        19        18        37     9        0.000000       -0.644093         1
        20        19        18        37     9      180.000000       29.876525         2
        20        19        18        37     9        0.000000       -1.098483         3
        20        19        18        37     9      180.000000       -1.727717         4
        20        21        22        23     9        0.000000       -0.258793         1
        20        21        22        23     9      180.000000       36.323035         2
        20        21        22        23     9        0.000000       -7.442936         3
        20        21        22        23     9      180.000000       -0.839992         4
        20        21        22        52     9        0.000000        0.279819         1
        20        21        22        52     9      180.000000       18.770135         2
        20        21        22        52     9        0.000000       -0.507969         3
        20        21        22        52     9      180.000000       -0.564047         4
        20        24        23        22     9        0.000000       -0.172777         1
        20        24        23        22     9      180.000000       37.627793         2
        20        24        23        22     9        0.000000       -7.120095         3
        20        24        23        22     9      180.000000        0.116817         4
        20        24        25        26     9        0.000000        0.532709         1
        20        24        25        26     9      180.000000       12.023476         2
        20        24        25        26     9        0.000000        0.177022         3
        20        24        25        26     9      180.000000       -0.593145         4
        20        24        25        37     9        0.000000       -0.061702         1
        20        24        25        37     9      180.000000        9.290063         2
        20        24        25        37     9        0.000000       -0.534588         3
        20        24        25        37     9      180.000000       -0.340850         4
        21        20        19        50     9        0.000000       -0.211391         1
        21        20        19        50     9      180.000000        3.543756         2
        21        20        19        50     9        0.000000        0.304368         3
        21        20        19        50     9      180.000000        0.067334         4
        21        20        24        23     9        0.000000        0.131711         1
        21        20        24        23     9      180.000000       15.566773         2
        21        20        24        23     9        0.000000       -7.866552         3
        21        20        24        23     9      180.000000        0.257374         4
        21        20        24        25     9        0.000000       -0.529938         1
        21        20        24        25     9      180.000000        7.254573         2
        21        20        24        25     9        0.000000       -2.285935         3
        21        20        24        25     9      180.000000        0.374904         4
        21        22        23        24     9        0.000000       -0.255847         1
        21        22        23        24     9      180.000000       31.025341         2
        21        22        23        24     9        0.000000       -4.653101         3
        21        22        23        24     9      180.000000        0.341646         4
        22        21        20        24     9        0.000000        0.086046         1
        22        21        20        24     9      180.000000       25.283693         2
        22        21        20        24     9        0.000000       -9.272057         3
        22        21        20        24     9      180.000000        0.296509         4
        22        23        24        25     9        0.000000        1.546000         1
        22        23        24        25     9      180.000000       16.470757         2
        22        23        24        25     9        0.000000       -0.373495         3
        22        23        24        25     9      180.000000        0.010419         4
        23        22        21        51     9        0.000000        0.292780         1
        23        22        21        51     9      180.000000       15.681650         2
        23        22        21        51     9        0.000000       -0.422047         3
        23        22        21        51     9      180.000000       -0.479005         4
        23        24        25        26     9        0.000000       -0.356301         1
        23        24        25        26     9      180.000000       10.853864         2
        23        24        25        26     9        0.000000       -0.107328         3
        23        24        25        26     9      180.000000       -0.464327         4
        23        24        25        37     9        0.000000       -1.860286         1
        23        24        25        37     9      180.000000        6.551764         2
        23        24        25        37     9        0.000000       -0.109909         3
        23        24        25        37     9      180.000000       -0.440551         4
        24        20        19        50     9        0.000000        0.560808         1
        24        20        19        50     9      180.000000        4.562282         2
        24        20        19        50     9        0.000000        0.396933         3
        24        20        19        50     9      180.000000        0.102239         4
        24        20        21        51     9        0.000000        1.026521         1
        24        20        21        51     9      180.000000        6.099848         2
        24        20        21        51     9        0.000000        0.349086         3
        24        20        21        51     9      180.000000        0.232409         4
        24        23        22        52     9        0.000000        2.009586         1
        24        23        22        52     9      180.000000       22.682236         2
        24        23        22        52     9        0.000000        0.566970         3
        24        23        22        52     9      180.000000       -0.265561         4
        24        25        26        27     9        0.000000        2.326493         1
        24        25        26        27     9      180.000000        5.951174         2
        24        25        26        27     9        0.000000        0.374078         3
        24        25        26        27     9      180.000000       -0.366443         4
        24        25        26        53     9        0.000000        3.047131         1
        24        25        26        53     9      180.000000        7.216451         2
        24        25        26        53     9        0.000000       -0.156868         3
        24        25        26        53     9      180.000000        0.486791         4
        25        26        27        28     9        0.000000        0.443063         1
        25        26        27        28     9      180.000000        3.120267         2
        25        26        27        28     9        0.000000       -0.198859         3
        25        26        27        28     9      180.000000        0.465135         4
        25        26        27        36     9        0.000000       -0.444928         1
        25        26        27        36     9      180.000000        3.391439         2
        25        26        27        36     9        0.000000       -0.254058         3
        25        26        27        36     9      180.000000        0.430933         4
        26        27        28        29     9        0.000000        0.132129         1
        26        27        28        29     9      180.000000       17.832524         2
        26        27        28        29     9        0.000000        0.097463         3
        26        27        28        29     9      180.000000       -0.336846         4
        26        27        28        54     9        0.000000       -0.024103         1
        26        27        28        54     9      180.000000       14.277812         2
        26        27        28        54     9        0.000000       -0.040261         3
        26        27        28        54     9      180.000000        0.129898         4
        26        27        36        33     9        0.000000       -0.012405         1
        26        27        36        33     9      180.000000       16.138687         2
        26        27        36        33     9        0.000000       -0.036311         3
        26        27        36        33     9      180.000000       -0.361374         4
        26        27        36        62     9        0.000000       -0.145209         1
        26        27        36        62     9      180.000000       13.428408         2
        26        27        36        62     9        0.000000       -0.139710         3
        26        27        36        62     9      180.000000        0.230595         4
        27        26        25        37     9        0.000000       -0.142315         1
        27        26        25        37     9      180.000000        7.089439         2
        27        26        25        37     9        0.000000        0.006697         3
        27        26        25        37     9      180.000000       -0.538884         4
        27        28        29        30     9        0.000000       -0.173495         1
        27        28        29        30     9      180.000000       17.663552         2
        27        28        29        30     9        0.000000       -1.660357         3
        27        28        29        30     9      180.000000       -0.412935         4
        27        28        29        55     9        0.000000        0.111932         1
        27        28        29        55     9      180.000000       13.581335         2
        27        28        29        55     9        0.000000       -0.541303         3
        27        28        29        55     9      180.000000        0.103443         4
        27        36        33        30     9        0.000000       -0.132618         1
        27        36        33        30     9      180.000000       16.584041         2
        27        36        33        30     9        0.000000       -1.316973         3
        27        36        33        30     9      180.000000       -0.328534         4
        27        36        33        34     9        0.000000        0.361152         1
        27        36        33        34     9      180.000000       18.377753         2
        27        36        33        34     9        0.000000        0.246867         3
        27        36        33        34     9      180.000000       -0.381466         4
        28        27        26        53     9        0.000000       -0.086586         1
        28        27        26        53     9      180.000000        3.309235         2
        28        27        26        53     9        0.000000        0.058469         3
        28        27        26        53     9      180.000000        0.892657         4
        28        27        36        33     9        0.000000        0.041058         1
        28        27        36        33     9      180.000000       15.861907         2
        28        27        36        33     9        0.000000       -1.469750         3
        28        27        36        33     9      180.000000       -0.131811         4
        28        27        36        62     9        0.000000        0.034995         1
        28        27        36        62     9      180.000000       12.257032         2
        28        27        36        62     9        0.000000       -0.533826         3
        28        27        36        62     9      180.000000        0.241321         4
        28        29        30        31     9        0.000000        0.412383         1
        28        29        30        31     9      180.000000       18.405153         2
        28        29        30        31     9        0.000000        0.286762         3
        28        29        30        31     9      180.000000       -0.248269         4
        28        29        30        33     9        0.000000        0.101367         1
        28        29        30        33     9      180.000000       16.812105         2
        28        29        30        33     9        0.000000       -1.160185         3
        28        29        30        33     9      180.000000       -0.311314         4
        29        28        27        36     9        0.000000       -0.023969         1
        29        28        27        36     9      180.000000       17.298060         2
        29        28        27        36     9        0.000000       -1.297560         3
        29        28        27        36     9      180.000000       -0.244555         4
        29        30        31        32     9        0.000000       -0.020471         1
        29        30        31        32     9      180.000000        4.264586         2
        29        30        31        32     9        0.000000       -0.661221         3
        29        30        31        32     9      180.000000        0.423658         4
        29        30        33        34     9        0.000000        0.312919         1
        29        30        33        34     9      180.000000       12.963701         2
        29        30        33        34     9        0.000000       -0.020336         3
        29        30        33        34     9      180.000000        0.087698         4
        29        30        33        36     9        0.000000        0.246300         1
        29        30        33        36     9      180.000000       12.038169         2
        29        30        33        36     9        0.000000       -0.447743         3
        29        30        33        36     9      180.000000       -0.093295         4
        30        29        28        54     9        0.000000        0.149236         1
        30        29        28        54     9      180.000000       14.141559         2
        30        29        28        54     9        0.000000       -0.494779         3
        30        29        28        54     9      180.000000        0.094378         4
        30        31        32        56     9        0.000000       -0.002787         1
        30        31        32        56     9      180.000000       -0.013204         2
        30        31        32        56     9        0.000000        0.475746         3
        30        31        32        56     9      180.000000       -0.002909         4
        30        31        32        57     9        0.000000       -0.002787         1
        30        31        32        57     9      180.000000       -0.013204         2
        30        31        32        57     9        0.000000        0.475746         3
        30        31        32        57     9      180.000000       -0.002909         4
        30        31        32        58     9        0.000000       -0.002787         1
        30        31        32        58     9      180.000000       -0.013204         2
        30        31        32        58     9        0.000000        0.475746         3
        30        31        32        58     9      180.000000       -0.002909         4
        30        33        34        35     9        0.000000        0.802289         1
        30        33        34        35     9      180.000000        3.527080         2
        30        33        34        35     9        0.000000        1.195050         3
        30        33        34        35     9      180.000000        0.043134         4
        30        33        36        62     9        0.000000        0.166399         1
        30        33        36        62     9      180.000000       12.784532         2
        30        33        36        62     9        0.000000       -0.336160         3
        30        33        36        62     9      180.000000        0.291888         4
        31        30        29        55     9        0.000000        0.002516         1
        31        30        29        55     9      180.000000       13.550905         2
        31        30        29        55     9        0.000000       -0.035816         3
        31        30        29        55     9      180.000000        0.307723         4
        31        30        33        34     9        0.000000       -0.231151         1
        31        30        33        34     9      180.000000       16.200535         2
        31        30        33        34     9        0.000000       -0.225093         3
        31        30        33        34     9      180.000000       -0.129585         4
        31        30        33        36     9        0.000000        0.190228         1
        31        30        33        36     9      180.000000       12.913656         2
        31        30        33        36     9        0.000000       -0.036672         3
        31        30        33        36     9      180.000000        0.087434         4
        32        31        30        33     9        0.000000        0.687110         1
        32        31        30        33     9      180.000000        3.031874         2
        32        31        30        33     9        0.000000        1.138396         3
        32        31        30        33     9      180.000000        0.057396         4
        33        30        29        55     9        0.000000        0.222425         1
        33        30        29        55     9      180.000000       12.890976         2
        33        30        29        55     9        0.000000       -0.414498         3
        33        30        29        55     9      180.000000        0.189834         4
        33        34        35        59     9        0.000000       -0.006342         1
        33        34        35        59     9      180.000000       -0.005041         2
        33        34        35        59     9        0.000000        0.433370         3
        33        34        35        59     9      180.000000       -0.009039         4
        33        34        35        60     9        0.000000       -0.006342         1
        33        34        35        60     9      180.000000       -0.005041         2
        33        34        35        60     9        0.000000        0.433370         3
        33        34        35        60     9      180.000000       -0.009039         4
        33        34        35        61     9        0.000000       -0.006342         1
        33        34        35        61     9      180.000000       -0.005041         2
        33        34        35        61     9        0.000000        0.433370         3
        33        34        35        61     9      180.000000       -0.009039         4
        34        33        36        62     9        0.000000        0.102563         1
        34        33        36        62     9      180.000000       13.836842         2
        34        33        36        62     9        0.000000       -0.050823         3
        34        33        36        62     9      180.000000        0.307532         4
        35        34        33        36     9        0.000000        0.123069         1
        35        34        33        36     9      180.000000        4.737590         2
        35        34        33        36     9        0.000000       -0.815850         3
        35        34        33        36     9      180.000000        0.427563         4
        36        27        26        53     9        0.000000        1.575094         1
        36        27        26        53     9      180.000000        3.198189         2
        36        27        26        53     9        0.000000        0.467524         3
        36        27        26        53     9      180.000000        0.863764         4
        36        27        28        54     9        0.000000        0.074273         1
        36        27        28        54     9      180.000000       12.990242         2
        36        27        28        54     9        0.000000       -0.520767         3
        36        27        28        54     9      180.000000        0.132469         4
        37        18        19        50     9        0.000000        0.308595         1
        37        18        19        50     9      180.000000       17.753436         2
        37        18        19        50     9        0.000000        0.220188         3
        37        18        19        50     9      180.000000       -0.557953         4
        37        25        26        53     9        0.000000       11.455043         1
        37        25        26        53     9      180.000000        6.774555         2
        37        25        26        53     9        0.000000       -0.382910         3
        37        25        26        53     9      180.000000        0.129605         4
        38         8         7        44     9        0.000000        0.152086         1
        38         8         7        44     9      180.000000       12.780132         2
        38         8         7        44     9        0.000000       -0.426407         3
        38         8         7        44     9      180.000000        0.145205         4
        38         8         9        45     9        0.000000        0.046957         1
        38         8         9        45     9      180.000000        3.011117         2
        38         8         9        45     9        0.000000        0.040793         3
        38         8         9        45     9      180.000000        0.072971         4
        39         5         6        43     9        0.000000        0.067031         1
        39         5         6        43     9      180.000000       13.430315         2
        39         5         6        43     9        0.000000       -0.522829         3
        39         5         6        43     9      180.000000        0.028762         4
        43         6         7        44     9        0.000000       -0.176365         1
        43         6         7        44     9      180.000000       12.611296         2
        43         6         7        44     9        0.000000       -0.762128         3
        43         6         7        44     9      180.000000        0.354964         4
        46        13        14        47     9        0.000000       -0.179984         1
        46        13        14        47     9      180.000000       12.019638         2
        46        13        14        47     9        0.000000       -0.697513         3
        46        13        14        47     9      180.000000        0.332030         4
        47        14        15        48     9        0.000000       -0.213595         1
        47        14        15        48     9      180.000000       11.901332         2
        47        14        15        48     9        0.000000       -0.691874         3
        47        14        15        48     9      180.000000        0.345165         4
        51        21        22        52     9        0.000000       -0.357708         1
        51        21        22        52     9      180.000000        9.061504         2
        51        21        22        52     9        0.000000       -0.277917         3
        51        21        22        52     9      180.000000        0.193706         4
        54        28        29        55     9        0.000000       -0.192419         1
        54        28        29        55     9      180.000000       11.734675         2
        54        28        29        55     9        0.000000       -0.700234         3
        54        28        29        55     9      180.000000        0.222006         4
        63        38        39        64     9        0.000000       -0.176364         1
        63        38        39        64     9      180.000000       12.611296         2
        63        38        39        64     9        0.000000       -0.762128         3
        63        38        39        64     9      180.000000        0.354964         4

[ dihedrals ] ; impropers
;       ai        aj        ak        al funct           phase               k        pn
         3         2         4         5     4      180.000000       27.893333         2
         3         4         5         2     4      180.000000       27.893333         2
         3         5         2         4     4      180.000000       27.893333         2
        10         9        11        12     4      180.000000       27.510859         2
        10        11        12         9     4      180.000000       27.510859         2
        10        12         9        11     4      180.000000       27.510859         2

[ pairs ]
;       ai        aj funct
         1         4     1
         1         5     1
         2         6     1
         2        39     1
         3         7     1
         3        38     1
         3        40     1
         3        41     1
         3        42     1
         3        43     1
         3        64     1
         4         6     1
         4        39     1
         5         8     1
         5        44     1
         5        63     1
         6         9     1
         6        38     1
         6        64     1
         7        10     1
         7        39     1
         7        45     1
         7        63     1
         8        11     1
         8        12     1
         8        43     1
         8        64     1
         9        13     1
         9        17     1
         9        39     1
         9        44     1
         9        63     1
        10        14     1
        10        16     1
        10        38     1
        10        46     1
        10        49     1
        11        13     1
        11        17     1
        11        45     1
        12        15     1
        12        18     1
        12        45     1
        12        47     1
        13        16     1
        13        48     1
        13        49     1
        14        17     1
        14        18     1
        15        19     1
        15        37     1
        15        46     1
        15        49     1
        16        20     1
        16        25     1
        16        47     1
        16        50     1
        17        19     1
        17        37     1
        17        46     1
        17        48     1
        18        21     1
        18        24     1
        18        26     1
        18        48     1
        18        49     1
        19        22     1
        19        23     1
        19        25     1
        19        51     1
        20        26     1
        20        37     1
        20        52     1
        21        25     1
        21        50     1
        22        25     1
        23        26     1
        23        37     1
        23        51     1
        24        27     1
        24        50     1
        24        51     1
        24        52     1
        24        53     1
        25        28     1
        25        36     1
        26        29     1
        26        33     1
        26        54     1
        26        62     1
        27        30     1
        27        34     1
        27        37     1
        27        55     1
        28        31     1
        28        33     1
        28        53     1
        28        62     1
        29        32     1
        29        34     1
        29        36     1
        30        35     1
        30        54     1
        30        56     1
        30        57     1
        30        58     1
        30        62     1
        31        34     1
        31        36     1
        31        55     1
        32        33     1
        33        55     1
        33        59     1
        33        60     1
        33        61     1
        34        62     1
        35        36     1
        36        53     1
        36        54     1
        37        50     1
        37        53     1
        38        44     1
        38        45     1
        39        43     1
        43        44     1
        46        47     1
        47        48     1
        51        52     1
        54        55     1
        63        64     1
