; ITP file created by ByteFF-ML, 2026-02-21 07:49:58.051329

[ atomtypes ]
;name           bonded.type        at.num        mass        charge   ptype           sigma         epsilon
 c0bf                                   6      0.0000       0.00000       A     3.39799e-01     4.50095e-01
 o1bf                                   8      0.0000       0.00000       A     3.15802e-01     3.03422e-01
 c2bf                                   6      0.0000       0.00000       A     3.31494e-01     4.13273e-01
 c3bf                                   6      0.0000       0.00000       A     3.31460e-01     4.13344e-01
 c4bf                                   6      0.0000       0.00000       A     3.31371e-01     4.12570e-01
 c5bf                                   6      0.0000       0.00000       A     3.31310e-01     4.12073e-01
 n6bf                                   7      0.0000       0.00000       A     3.27838e-01     6.48901e-01
 c7bf                                   6      0.0000       0.00000       A     3.31293e-01     4.14462e-01
 n8bf                                   7      0.0000       0.00000       A     3.38684e-01     3.94200e-01
 c9bf                                   6      0.0000       0.00000       A     3.31476e-01     4.10910e-01
 c10bf                                  6      0.0000       0.00000       A     3.31501e-01     4.13060e-01
 n11bf                                  7      0.0000       0.00000       A     3.20544e-01     8.50304e-01
 c12bf                                  6      0.0000       0.00000       A     3.31513e-01     4.11963e-01
 c13bf                                  6      0.0000       0.00000       A     3.31488e-01     4.12482e-01
 n14bf                                  7      0.0000       0.00000       A     3.38571e-01     3.94678e-01
 c15bf                                  6      0.0000       0.00000       A     3.31524e-01     4.13157e-01
 c16bf                                  6      0.0000       0.00000       A     3.31318e-01     4.11677e-01
 c17bf                                  6      0.0000       0.00000       A     3.31468e-01     4.12479e-01
 c18bf                                  6      0.0000       0.00000       A     3.31493e-01     4.11764e-01
 c19bf                                  6      0.0000       0.00000       A     3.31290e-01     4.11912e-01
 o20bf                                  8      0.0000       0.00000       A     3.15269e-01     3.02805e-01
 c21bf                                  6      0.0000       0.00000       A     3.39749e-01     4.52428e-01
 c22bf                                  6      0.0000       0.00000       A     3.31531e-01     4.12357e-01
 o23bf                                  8      0.0000       0.00000       A     3.04695e-01     6.11759e-01
 n24bf                                  7      0.0000       0.00000       A     3.26829e-01     4.90771e-01
 c25bf                                  6      0.0000       0.00000       A     3.31361e-01     4.12080e-01
 c26bf                                  6      0.0000       0.00000       A     3.31401e-01     4.12533e-01
 c27bf                                  6      0.0000       0.00000       A     3.31426e-01     4.12512e-01
 c28bf                                  6      0.0000       0.00000       A     3.31334e-01     4.12096e-01
 o29bf                                  8      0.0000       0.00000       A     3.15839e-01     3.04251e-01
 c30bf                                  6      0.0000       0.00000       A     3.39799e-01     4.50095e-01
 h31bf                                  1      0.0000       0.00000       A     2.42080e-01     8.75859e-02
 h32bf                                  1      0.0000       0.00000       A     2.42080e-01     8.75859e-02
 h33bf                                  1      0.0000       0.00000       A     2.42080e-01     8.75859e-02
 h34bf                                  1      0.0000       0.00000       A     2.62545e-01     6.69663e-02
 h35bf                                  1      0.0000       0.00000       A     2.62478e-01     6.76031e-02
 h36bf                                  1      0.0000       0.00000       A     1.10437e-01     4.36637e-02
 h37bf                                  1      0.0000       0.00000       A     2.53936e-01     6.71690e-02
 h38bf                                  1      0.0000       0.00000       A     2.54157e-01     6.73717e-02
 h39bf                                  1      0.0000       0.00000       A     2.53844e-01     6.71387e-02
 h40bf                                  1      0.0000       0.00000       A     2.62490e-01     6.75441e-02
 h41bf                                  1      0.0000       0.00000       A     2.62497e-01     6.66902e-02
 h42bf                                  1      0.0000       0.00000       A     2.42007e-01     8.64335e-02
 h43bf                                  1      0.0000       0.00000       A     2.42007e-01     8.64335e-02
 h44bf                                  1      0.0000       0.00000       A     1.10497e-01     4.19431e-02
 h45bf                                  1      0.0000       0.00000       A     2.62497e-01     6.69886e-02
 h46bf                                  1      0.0000       0.00000       A     2.62385e-01     6.71291e-02
 h47bf                                  1      0.0000       0.00000       A     2.42080e-01     8.75859e-02
 h48bf                                  1      0.0000       0.00000       A     2.42080e-01     8.75859e-02
 h49bf                                  1      0.0000       0.00000       A     2.42080e-01     8.75859e-02

[ moleculetype ]
;name             nrexcl
 CHEMBL3265024         3

[ atoms ]
;       nr            type      resi   res      atom      cgnr      charge          mass ; qtot
         1            c0bf         1   UNL        c0         1     0.14145       12.0110 ; qtot    0.141
         2            o1bf         1   UNL        o1         2    -0.33647       15.9990 ; qtot   -0.195
         3            c2bf         1   UNL        c2         3     0.08002       12.0110 ; qtot   -0.115
         4            c3bf         1   UNL        c3         4    -0.13937       12.0110 ; qtot   -0.254
         5            c4bf         1   UNL        c4         5    -0.13475       12.0110 ; qtot   -0.389
         6            c5bf         1   UNL        c5         6     0.30239       12.0110 ; qtot   -0.087
         7            n6bf         1   UNL        n6         7    -0.91203       14.0070 ; qtot   -0.999
         8            c7bf         1   UNL        c7         8     0.67901       12.0110 ; qtot   -0.320
         9            n8bf         1   UNL        n8         9    -0.75911       14.0070 ; qtot   -1.079
        10            c9bf         1   UNL        c9        10     0.39062       12.0110 ; qtot   -0.688
        11           c10bf         1   UNL       c10        11    -0.18274       12.0110 ; qtot   -0.871
        12           n11bf         1   UNL       n11        12     0.16137       14.0070 ; qtot   -0.710
        13           c12bf         1   UNL       c12        13    -0.26112       12.0110 ; qtot   -0.971
        14           c13bf         1   UNL       c13        14    -0.04248       12.0110 ; qtot   -1.013
        15           n14bf         1   UNL       n14        15    -0.27126       14.0070 ; qtot   -1.284
        16           c15bf         1   UNL       c15        16    -0.16948       12.0110 ; qtot   -1.454
        17           c16bf         1   UNL       c16        17    -0.11837       12.0110 ; qtot   -1.572
        18           c17bf         1   UNL       c17        18    -0.07321       12.0110 ; qtot   -1.646
        19           c18bf         1   UNL       c18        19    -0.10883       12.0110 ; qtot   -1.754
        20           c19bf         1   UNL       c19        20     0.08920       12.0110 ; qtot   -1.665
        21           o20bf         1   UNL       o20        21    -0.33072       15.9990 ; qtot   -1.996
        22           c21bf         1   UNL       c21        22     0.07389       12.0110 ; qtot   -1.922
        23           c22bf         1   UNL       c22        23     0.54027       12.0110 ; qtot   -1.382
        24           o23bf         1   UNL       o23        24    -0.52342       15.9990 ; qtot   -1.905
        25           n24bf         1   UNL       n24        25    -0.14802       14.0070 ; qtot   -2.053
        26           c25bf         1   UNL       c25        26    -0.07736       12.0110 ; qtot   -2.131
        27           c26bf         1   UNL       c26        27    -0.09441       12.0110 ; qtot   -2.225
        28           c27bf         1   UNL       c27        28    -0.18949       12.0110 ; qtot   -2.414
        29           c28bf         1   UNL       c28        29     0.11411       12.0110 ; qtot   -2.300
        30           o29bf         1   UNL       o29        30    -0.33842       15.9990 ; qtot   -2.639
        31           c30bf         1   UNL       c30        31     0.14175       12.0110 ; qtot   -2.497
        32           h31bf         1   UNL       h31        32     0.04404        1.0080 ; qtot   -2.453
        33           h32bf         1   UNL       h32        33     0.04404        1.0080 ; qtot   -2.409
        34           h33bf         1   UNL       h33        34     0.04404        1.0080 ; qtot   -2.365
        35           h34bf         1   UNL       h34        35     0.12393        1.0080 ; qtot   -2.241
        36           h35bf         1   UNL       h35        36     0.13132        1.0080 ; qtot   -2.110
        37           h36bf         1   UNL       h36        37     0.50588        1.0080 ; qtot   -1.604
        38           h37bf         1   UNL       h37        38     0.15416        1.0080 ; qtot   -1.450
        39           h38bf         1   UNL       h38        39     0.22767        1.0080 ; qtot   -1.222
        40           h39bf         1   UNL       h39        40     0.22246        1.0080 ; qtot   -0.999
        41           h40bf         1   UNL       h40        41     0.12714        1.0080 ; qtot   -0.872
        42           h41bf         1   UNL       h41        42     0.13516        1.0080 ; qtot   -0.737
        43           h42bf         1   UNL       h42        43     0.08773        1.0080 ; qtot   -0.649
        44           h43bf         1   UNL       h43        44     0.08773        1.0080 ; qtot   -0.562
        45           h44bf         1   UNL       h44        45     0.16387        1.0080 ; qtot   -0.398
        46           h45bf         1   UNL       h45        46     0.13359        1.0080 ; qtot   -0.264
        47           h46bf         1   UNL       h46        47     0.13212        1.0080 ; qtot   -0.132
        48           h47bf         1   UNL       h47        48     0.04404        1.0080 ; qtot   -0.088
        49           h48bf         1   UNL       h48        49     0.04404        1.0080 ; qtot   -0.044
        50           h49bf         1   UNL       h49        50     0.04402        1.0080 ; qtot   -0.000

[ bonds ]
;       ai        aj funct               r               k
         1         2     1        0.142750   205228.507056
         1        32     1        0.109386   299034.366748
         1        33     1        0.109386   299034.366748
         1        34     1        0.109386   299034.366748
         2         3     1        0.137015   270782.100830
         3         4     1        0.139488   304008.331689
         3        29     1        0.141529   250914.434033
         4         5     1        0.140005   315466.551758
         4        35     1        0.108446   322299.133057
         5         6     1        0.140061   293503.054395
         5        36     1        0.108414   324178.051416
         6         7     1        0.141092   252182.734570
         6        28     1        0.140674   282765.542627
         7         8     1        0.136729   311607.817920
         7        37     1        0.101302   413497.768799
         8         9     1        0.132073   353453.691455
         8        16     1        0.143870   235848.075781
         9        10     1        0.137735   242762.018311
        10        11     1        0.137570   345554.808154
        10        17     1        0.148205   209734.478931
        11        12     1        0.137840   276180.390381
        11        38     1        0.108179   332059.518408
        12        13     1        0.137750   263209.071045
        12        16     1        0.138998   204565.857373
        13        14     1        0.138746   337814.101709
        13        39     1        0.107915   345078.311230
        14        15     1        0.136744   275913.399902
        14        40     1        0.108260   332273.212939
        15        16     1        0.133378   321390.292871
        17        18     1        0.140502   288883.416846
        17        27     1        0.140609   282301.865332
        18        19     1        0.139462   324124.678857
        18        41     1        0.108481   321865.206494
        19        20     1        0.139355   304143.346387
        19        42     1        0.108550   321527.886816
        20        21     1        0.137146   265978.545020
        20        26     1        0.140564   270311.170996
        21        22     1        0.143265   192812.530469
        22        23     1        0.152494   177491.248022
        22        43     1        0.109355   302738.396777
        22        44     1        0.109355   302738.396777
        23        24     1        0.122404   638709.561914
        23        25     1        0.137168   284159.945410
        25        26     1        0.140779   264334.619141
        25        45     1        0.101392   413782.558643
        26        27     1        0.139321   308865.362207
        27        46     1        0.108544   319568.169043
        28        29     1        0.139409   309212.462598
        28        47     1        0.108244   326136.952002
        29        30     1        0.136800   272579.862256
        30        31     1        0.142754   205101.357788
        31        48     1        0.109386   299034.341211
        31        49     1        0.109386   299034.341211
        31        50     1        0.109386   299034.341211

[ angles ]
;       ai        aj        ak funct           theta             cth
         1         2         3     1      117.082443      547.136590
         2         1        32     1      109.406631      448.806110
         2         1        33     1      109.406631      448.806110
         2         1        34     1      109.406631      448.806110
         2         3         4     1      124.061974      526.185244
         2         3        29     1      116.730186      403.093057
         3         4         5     1      121.105545      730.301061
         3         4        35     1      119.820435      430.270000
         3        29        28     1      119.959702      641.355245
         3        29        30     1      116.770729      382.344602
         4         3        29     1      118.961632      615.309053
         4         5         6     1      119.989258      692.295585
         4         5        36     1      119.981018      402.478985
         5         4        35     1      119.168861      430.731806
         5         6         7     1      121.161964      571.797075
         5         6        28     1      119.274185      562.540766
         6         5        36     1      119.993568      438.163871
         6         7         8     1      130.908600      390.906748
         6         7        37     1      115.466995      445.927919
         6        28        29     1      120.440468      771.725955
         6        28        47     1      119.557449      428.763885
         7         6        28     1      119.328491      531.273672
         7         8         9     1      121.353256      603.929270
         7         8        16     1      116.105576      347.689596
         8         7        37     1      112.198647      485.186500
         8         9        10     1      119.755661      660.007996
         8        16        12     1      117.476013      691.884693
         8        16        15     1      131.168365      328.267219
         9         8        16     1      121.158058      641.620831
         9        10        11     1      122.011513      385.906486
         9        10        17     1      116.339859      504.366848
        10        11        12     1      118.154198      871.375012
        10        11        38     1      124.884789      345.829856
        10        17        18     1      121.057541      581.882062
        10        17        27     1      120.372093      463.018374
        11        10        17     1      121.462418      451.438539
        11        12        13     1      132.328613      451.140936
        11        12        16     1      121.400978      769.088354
        12        11        38     1      117.430222      489.875624
        12        13        14     1      105.222717      375.667031
        12        13        39     1      122.391075      461.871917
        12        16        15     1      111.412987      167.360000
        13        12        16     1      106.439148      167.360000
        13        14        15     1      111.710022      296.607652
        13        14        40     1      126.932030      353.254706
        14        13        39     1      132.665771      296.979121
        14        15        16     1      105.148094      501.387338
        15        14        40     1      121.224686      373.698758
        17        18        19     1      120.761703      658.946036
        17        18        41     1      119.782310      428.718876
        17        27        26     1      120.512924      734.529495
        17        27        46     1      119.924805      416.975221
        18        17        27     1      118.693527      557.768136
        18        19        20     1      119.987595      751.879407
        18        19        42     1      121.262039      433.515224
        19        18        41     1      119.483353      418.971265
        19        20        21     1      119.774246      542.563405
        19        20        26     1      119.925743      636.224648
        20        19        42     1      118.616661      444.000952
        20        21        22     1      114.845360      526.869798
        20        26        25     1      117.897118      298.420787
        20        26        27     1      119.706497      694.594436
        21        20        26     1      120.269165      379.976993
        21        22        23     1      114.269547      576.724205
        21        22        43     1      108.364944      481.651749
        21        22        44     1      108.364944      481.651749
        22        23        24     1      122.211342      439.051350
        22        23        25     1      114.024338      647.302901
        23        22        43     1      108.276688      525.124528
        23        22        44     1      108.276688      525.124528
        23        25        26     1      123.158630      514.688182
        23        25        45     1      116.272720      554.860991
        24        23        25     1      123.245667      721.277268
        25        26        27     1      122.130333      535.152919
        26        25        45     1      119.807518      440.793332
        26        27        46     1      119.535751      429.053667
        28        29        30     1      123.114540      463.233875
        29        28        47     1      120.054489      415.811750
        29        30        31     1      117.278854      548.766496
        30        31        48     1      109.407082      448.359562
        30        31        49     1      109.407082      448.359562
        30        31        50     1      109.407082      448.359562
        32         1        33     1      109.654236      343.283135
        32         1        34     1      109.654236      343.283135
        33         1        34     1      109.654236      343.283135
        43        22        44     1      108.900314      343.636090
        48        31        49     1      109.654236      343.283167
        48        31        50     1      109.654236      343.283167
        49        31        50     1      109.654236      343.283167

[ dihedrals ] ; propers for gromacs 4.5 or higher, use funct 9
;       ai        aj        ak        al funct           phase               k        pn
         1         2         3         4     9        0.000000       -0.020471         1
         1         2         3         4     9      180.000000        4.264586         2
         1         2         3         4     9        0.000000       -0.661221         3
         1         2         3         4     9      180.000000        0.423658         4
         1         2         3        29     9        0.000000        0.687110         1
         1         2         3        29     9      180.000000        3.031873         2
         1         2         3        29     9        0.000000        1.138396         3
         1         2         3        29     9      180.000000        0.057396         4
         2         3         4         5     9        0.000000        0.412383         1
         2         3         4         5     9      180.000000       18.405153         2
         2         3         4         5     9        0.000000        0.286762         3
         2         3         4         5     9      180.000000       -0.248269         4
         2         3         4        35     9        0.000000        0.002515         1
         2         3         4        35     9      180.000000       13.550908         2
         2         3         4        35     9        0.000000       -0.035816         3
         2         3         4        35     9      180.000000        0.307724         4
         2         3        29        28     9        0.000000        0.190228         1
         2         3        29        28     9      180.000000       12.913656         2
         2         3        29        28     9        0.000000       -0.036672         3
         2         3        29        28     9      180.000000        0.087435         4
         2         3        29        30     9        0.000000       -0.231151         1
         2         3        29        30     9      180.000000       16.200532         2
         2         3        29        30     9        0.000000       -0.225092         3
         2         3        29        30     9      180.000000       -0.129585         4
         3         2         1        32     9        0.000000       -0.002785         1
         3         2         1        32     9      180.000000       -0.013204         2
         3         2         1        32     9        0.000000        0.475747         3
         3         2         1        32     9      180.000000       -0.002909         4
         3         2         1        33     9        0.000000       -0.002785         1
         3         2         1        33     9      180.000000       -0.013204         2
         3         2         1        33     9        0.000000        0.475747         3
         3         2         1        33     9      180.000000       -0.002909         4
         3         2         1        34     9        0.000000       -0.002785         1
         3         2         1        34     9      180.000000       -0.013204         2
         3         2         1        34     9        0.000000        0.475747         3
         3         2         1        34     9      180.000000       -0.002909         4
         3         4         5         6     9        0.000000       -0.173495         1
         3         4         5         6     9      180.000000       17.663552         2
         3         4         5         6     9        0.000000       -1.660356         3
         3         4         5         6     9      180.000000       -0.412935         4
         3         4         5        36     9        0.000000        0.149237         1
         3         4         5        36     9      180.000000       14.141559         2
         3         4         5        36     9        0.000000       -0.494779         3
         3         4         5        36     9      180.000000        0.094379         4
         3        29        28         6     9        0.000000       -0.132619         1
         3        29        28         6     9      180.000000       16.584041         2
         3        29        28         6     9        0.000000       -1.316973         3
         3        29        28         6     9      180.000000       -0.328534         4
         3        29        28        47     9        0.000000        0.166400         1
         3        29        28        47     9      180.000000       12.784533         2
         3        29        28        47     9        0.000000       -0.336161         3
         3        29        28        47     9      180.000000        0.291888         4
         3        29        30        31     9        0.000000        0.802291         1
         3        29        30        31     9      180.000000        3.527079         2
         3        29        30        31     9        0.000000        1.195050         3
         3        29        30        31     9      180.000000        0.043134         4
         4         3        29        28     9        0.000000        0.246300         1
         4         3        29        28     9      180.000000       12.038167         2
         4         3        29        28     9        0.000000       -0.447743         3
         4         3        29        28     9      180.000000       -0.093295         4
         4         3        29        30     9        0.000000        0.312921         1
         4         3        29        30     9      180.000000       12.963699         2
         4         3        29        30     9        0.000000       -0.020336         3
         4         3        29        30     9      180.000000        0.087697         4
         4         5         6         7     9        0.000000        0.132129         1
         4         5         6         7     9      180.000000       17.832522         2
         4         5         6         7     9        0.000000        0.097463         3
         4         5         6         7     9      180.000000       -0.336845         4
         4         5         6        28     9        0.000000       -0.023969         1
         4         5         6        28     9      180.000000       17.298060         2
         4         5         6        28     9        0.000000       -1.297561         3
         4         5         6        28     9      180.000000       -0.244555         4
         5         4         3        29     9        0.000000        0.101367         1
         5         4         3        29     9      180.000000       16.812105         2
         5         4         3        29     9        0.000000       -1.160185         3
         5         4         3        29     9      180.000000       -0.311315         4
         5         6         7         8     9        0.000000        0.443064         1
         5         6         7         8     9      180.000000        3.120267         2
         5         6         7         8     9        0.000000       -0.198859         3
         5         6         7         8     9      180.000000        0.465134         4
         5         6         7        37     9        0.000000       -0.086586         1
         5         6         7        37     9      180.000000        3.309236         2
         5         6         7        37     9        0.000000        0.058468         3
         5         6         7        37     9      180.000000        0.892657         4
         5         6        28        29     9        0.000000        0.041058         1
         5         6        28        29     9      180.000000       15.861907         2
         5         6        28        29     9        0.000000       -1.469751         3
         5         6        28        29     9      180.000000       -0.131811         4
         5         6        28        47     9        0.000000        0.034995         1
         5         6        28        47     9      180.000000       12.257033         2
         5         6        28        47     9        0.000000       -0.533827         3
         5         6        28        47     9      180.000000        0.241321         4
         6         5         4        35     9        0.000000        0.111932         1
         6         5         4        35     9      180.000000       13.581334         2
         6         5         4        35     9        0.000000       -0.541303         3
         6         5         4        35     9      180.000000        0.103444         4
         6         7         8         9     9        0.000000       -0.158388         1
         6         7         8         9     9      180.000000        7.089414         2
         6         7         8         9     9        0.000000        0.006704         3
         6         7         8         9     9      180.000000       -0.539901         4
         6         7         8        16     9        0.000000        2.326493         1
         6         7         8        16     9      180.000000        5.951173         2
         6         7         8        16     9        0.000000        0.374079         3
         6         7         8        16     9      180.000000       -0.366443         4
         6        28        29        30     9        0.000000        0.361152         1
         6        28        29        30     9      180.000000       18.377753         2
         6        28        29        30     9        0.000000        0.246867         3
         6        28        29        30     9      180.000000       -0.381467         4
         7         6         5        36     9        0.000000       -0.024104         1
         7         6         5        36     9      180.000000       14.277814         2
         7         6         5        36     9        0.000000       -0.040262         3
         7         6         5        36     9      180.000000        0.129898         4
         7         6        28        29     9        0.000000       -0.012406         1
         7         6        28        29     9      180.000000       16.138685         2
         7         6        28        29     9        0.000000       -0.036311         3
         7         6        28        29     9      180.000000       -0.361374         4
         7         6        28        47     9        0.000000       -0.145209         1
         7         6        28        47     9      180.000000       13.428408         2
         7         6        28        47     9        0.000000       -0.139710         3
         7         6        28        47     9      180.000000        0.230595         4
         7         8         9        10     9        0.000000        1.920551         1
         7         8         9        10     9      180.000000       24.498110         2
         7         8         9        10     9        0.000000        0.715198         3
         7         8         9        10     9      180.000000       -0.985714         4
         7         8        16        12     9        0.000000        0.532707         1
         7         8        16        12     9      180.000000       12.023478         2
         7         8        16        12     9        0.000000        0.177021         3
         7         8        16        12     9      180.000000       -0.593144         4
         7         8        16        15     9        0.000000       -0.356301         1
         7         8        16        15     9      180.000000       10.853867         2
         7         8        16        15     9        0.000000       -0.107328         3
         7         8        16        15     9      180.000000       -0.464327         4
         8         7         6        28     9        0.000000       -0.444928         1
         8         7         6        28     9      180.000000        3.391439         2
         8         7         6        28     9        0.000000       -0.254058         3
         8         7         6        28     9      180.000000        0.430933         4
         8         9        10        11     9        0.000000        1.006419         1
         8         9        10        11     9      180.000000       13.612463         2
         8         9        10        11     9        0.000000       -0.238609         3
         8         9        10        11     9      180.000000       -0.043902         4
         8         9        10        17     9        0.000000        1.469165         1
         8         9        10        17     9      180.000000       17.965237         2
         8         9        10        17     9        0.000000        0.622186         3
         8         9        10        17     9      180.000000       -1.020325         4
         8        16        12        11     9        0.000000        0.338869         1
         8        16        12        11     9      180.000000        5.776551         2
         8        16        12        11     9        0.000000       -0.141905         3
         8        16        12        11     9      180.000000        0.123607         4
         8        16        12        13     9        0.000000       -0.529939         1
         8        16        12        13     9      180.000000        7.254573         2
         8        16        12        13     9        0.000000       -2.285934         3
         8        16        12        13     9      180.000000        0.374903         4
         8        16        15        14     9        0.000000        1.546001         1
         8        16        15        14     9      180.000000       16.470755         2
         8        16        15        14     9        0.000000       -0.373495         3
         8        16        15        14     9      180.000000        0.010417         4
         9         8         7        37     9        0.000000       11.456410         1
         9         8         7        37     9      180.000000        6.773832         2
         9         8         7        37     9        0.000000       -0.385094         3
         9         8         7        37     9      180.000000        0.126343         4
         9         8        16        12     9        0.000000       -0.074489         1
         9         8        16        12     9      180.000000        9.291469         2
         9         8        16        12     9        0.000000       -0.538965         3
         9         8        16        12     9      180.000000       -0.340710         4
         9         8        16        15     9        0.000000       -1.873183         1
         9         8        16        15     9      180.000000        6.566008         2
         9         8        16        15     9        0.000000       -0.112806         3
         9         8        16        15     9      180.000000       -0.443058         4
         9        10        11        12     9        0.000000       -0.628976         1
         9        10        11        12     9      180.000000       29.879721         2
         9        10        11        12     9        0.000000       -1.077807         3
         9        10        11        12     9      180.000000       -1.727423         4
         9        10        11        38     9        0.000000        0.307295         1
         9        10        11        38     9      180.000000       17.765026         2
         9        10        11        38     9        0.000000        0.215471         3
         9        10        11        38     9      180.000000       -0.542519         4
         9        10        17        18     9        0.000000       -0.043096         1
         9        10        17        18     9      180.000000        4.155291         2
         9        10        17        18     9        0.000000        0.030731         3
         9        10        17        18     9      180.000000        0.052039         4
         9        10        17        27     9        0.000000       -0.776447         1
         9        10        17        27     9      180.000000        4.209462         2
         9        10        17        27     9        0.000000        0.102056         3
         9        10        17        27     9      180.000000        0.032015         4
        10         9         8        16     9        0.000000        0.866689         1
        10         9         8        16     9      180.000000       22.195523         2
        10         9         8        16     9        0.000000        0.597835         3
        10         9         8        16     9      180.000000       -0.568054         4
        10        11        12        13     9        0.000000        0.495784         1
        10        11        12        13     9      180.000000        4.954086         2
        10        11        12        13     9        0.000000        0.239795         3
        10        11        12        13     9      180.000000        0.110805         4
        10        11        12        16     9        0.000000       -0.618754         1
        10        11        12        16     9      180.000000        9.316709         2
        10        11        12        16     9        0.000000       -1.051990         3
        10        11        12        16     9      180.000000       -0.059093         4
        10        17        18        19     9        0.000000        0.201210         1
        10        17        18        19     9      180.000000       15.808572         2
        10        17        18        19     9        0.000000       -0.237650         3
        10        17        18        19     9      180.000000       -0.274234         4
        10        17        18        41     9        0.000000       -0.100991         1
        10        17        18        41     9      180.000000       12.246646         2
        10        17        18        41     9        0.000000       -0.145563         3
        10        17        18        41     9      180.000000        0.150907         4
        10        17        27        26     9        0.000000        0.181359         1
        10        17        27        26     9      180.000000       15.055797         2
        10        17        27        26     9        0.000000       -0.187714         3
        10        17        27        26     9      180.000000       -0.343817         4
        10        17        27        46     9        0.000000       -0.063805         1
        10        17        27        46     9      180.000000       12.296593         2
        10        17        27        46     9        0.000000       -0.152384         3
        10        17        27        46     9      180.000000        0.180964         4
        11        10        17        18     9        0.000000       -0.440873         1
        11        10        17        18     9      180.000000        3.505384         2
        11        10        17        18     9        0.000000        0.230863         3
        11        10        17        18     9      180.000000       -0.182361         4
        11        10        17        27     9        0.000000       -0.038263         1
        11        10        17        27     9      180.000000        3.612501         2
        11        10        17        27     9        0.000000        0.128751         3
        11        10        17        27     9      180.000000       -0.153981         4
        11        12        13        14     9        0.000000        0.963691         1
        11        12        13        14     9      180.000000        5.203521         2
        11        12        13        14     9        0.000000        0.740717         3
        11        12        13        14     9      180.000000       -0.038082         4
        11        12        13        39     9        0.000000        0.155878         1
        11        12        13        39     9      180.000000        3.680092         2
        11        12        13        39     9        0.000000        0.374487         3
        11        12        13        39     9      180.000000        0.064779         4
        11        12        16        15     9        0.000000        0.551695         1
        11        12        16        15     9      180.000000        7.740461         2
        11        12        16        15     9        0.000000       -0.728151         3
        11        12        16        15     9      180.000000        0.134899         4
        12        11        10        17     9        0.000000        0.127410         1
        12        11        10        17     9      180.000000       26.547018         2
        12        11        10        17     9        0.000000        0.378789         3
        12        11        10        17     9      180.000000       -1.838621         4
        12        13        14        15     9        0.000000       -0.258793         1
        12        13        14        15     9      180.000000       36.323027         2
        12        13        14        15     9        0.000000       -7.442937         3
        12        13        14        15     9      180.000000       -0.839992         4
        12        13        14        40     9        0.000000        0.279818         1
        12        13        14        40     9      180.000000       18.770131         2
        12        13        14        40     9        0.000000       -0.507968         3
        12        13        14        40     9      180.000000       -0.564047         4
        12        16        15        14     9        0.000000       -0.172777         1
        12        16        15        14     9      180.000000       37.627789         2
        12        16        15        14     9        0.000000       -7.120096         3
        12        16        15        14     9      180.000000        0.116816         4
        13        12        11        38     9        0.000000       -0.209377         1
        13        12        11        38     9      180.000000        3.568095         2
        13        12        11        38     9        0.000000        0.304226         3
        13        12        11        38     9      180.000000        0.067271         4
        13        12        16        15     9        0.000000        0.131710         1
        13        12        16        15     9      180.000000       15.566772         2
        13        12        16        15     9        0.000000       -7.866552         3
        13        12        16        15     9      180.000000        0.257373         4
        13        14        15        16     9        0.000000       -0.255849         1
        13        14        15        16     9      180.000000       31.025341         2
        13        14        15        16     9        0.000000       -4.653101         3
        13        14        15        16     9      180.000000        0.341646         4
        14        13        12        16     9        0.000000        0.086044         1
        14        13        12        16     9      180.000000       25.283693         2
        14        13        12        16     9        0.000000       -9.272059         3
        14        13        12        16     9      180.000000        0.296509         4
        15        14        13        39     9        0.000000        0.292780         1
        15        14        13        39     9      180.000000       15.681650         2
        15        14        13        39     9        0.000000       -0.422047         3
        15        14        13        39     9      180.000000       -0.479005         4
        16         8         7        37     9        0.000000        3.047131         1
        16         8         7        37     9      180.000000        7.216451         2
        16         8         7        37     9        0.000000       -0.156869         3
        16         8         7        37     9      180.000000        0.486791         4
        16        12        11        38     9        0.000000        0.578758         1
        16        12        11        38     9      180.000000        4.589046         2
        16        12        11        38     9        0.000000        0.396183         3
        16        12        11        38     9      180.000000        0.100511         4
        16        12        13        39     9        0.000000        1.026521         1
        16        12        13        39     9      180.000000        6.099844         2
        16        12        13        39     9        0.000000        0.349087         3
        16        12        13        39     9      180.000000        0.232410         4
        16        15        14        40     9        0.000000        2.009586         1
        16        15        14        40     9      180.000000       22.682232         2
        16        15        14        40     9        0.000000        0.566971         3
        16        15        14        40     9      180.000000       -0.265561         4
        17        10        11        38     9        0.000000       -0.072220         1
        17        10        11        38     9      180.000000       14.979208         2
        17        10        11        38     9        0.000000        0.250752         3
        17        10        11        38     9      180.000000       -0.020556         4
        17        18        19        20     9        0.000000       -0.007666         1
        17        18        19        20     9      180.000000       18.976875         2
        17        18        19        20     9        0.000000       -1.596361         3
        17        18        19        20     9      180.000000       -0.448428         4
        17        18        19        42     9        0.000000        0.013056         1
        17        18        19        42     9      180.000000       14.487535         2
        17        18        19        42     9        0.000000       -0.513326         3
        17        18        19        42     9      180.000000        0.093509         4
        17        27        26        20     9        0.000000        0.057187         1
        17        27        26        20     9      180.000000       17.973594         2
        17        27        26        20     9        0.000000       -1.281536         3
        17        27        26        20     9      180.000000       -0.477505         4
        17        27        26        25     9        0.000000        0.210996         1
        17        27        26        25     9      180.000000       21.045890         2
        17        27        26        25     9        0.000000        0.090773         3
        17        27        26        25     9      180.000000       -0.713303         4
        18        17        27        26     9        0.000000       -0.096297         1
        18        17        27        26     9      180.000000       17.916836         2
        18        17        27        26     9        0.000000       -1.867787         3
        18        17        27        26     9      180.000000       -0.306236         4
        18        17        27        46     9        0.000000       -0.100792         1
        18        17        27        46     9      180.000000       13.431677         2
        18        17        27        46     9        0.000000       -0.733307         3
        18        17        27        46     9      180.000000        0.177992         4
        18        19        20        21     9        0.000000        0.619500         1
        18        19        20        21     9      180.000000       19.717697         2
        18        19        20        21     9        0.000000        0.685465         3
        18        19        20        21     9      180.000000       -0.313232         4
        18        19        20        26     9        0.000000        0.092531         1
        18        19        20        26     9      180.000000       17.808818         2
        18        19        20        26     9        0.000000       -1.190789         3
        18        19        20        26     9      180.000000       -0.389704         4
        19        18        17        27     9        0.000000       -0.032705         1
        19        18        17        27     9      180.000000       18.165685         2
        19        18        17        27     9        0.000000       -1.584506         3
        19        18        17        27     9      180.000000       -0.328743         4
        19        20        21        22     9        0.000000        0.120269         1
        19        20        21        22     9      180.000000        2.744415         2
        19        20        21        22     9        0.000000       -0.133094         3
        19        20        21        22     9      180.000000        0.153180         4
        19        20        26        25     9        0.000000        0.214782         1
        19        20        26        25     9      180.000000       16.618138         2
        19        20        26        25     9        0.000000       -0.064339         3
        19        20        26        25     9      180.000000       -0.413584         4
        19        20        26        27     9        0.000000        0.054507         1
        19        20        26        27     9      180.000000       13.904775         2
        19        20        26        27     9        0.000000       -0.709479         3
        19        20        26        27     9      180.000000       -0.166520         4
        20        19        18        41     9        0.000000        0.180394         1
        20        19        18        41     9      180.000000       14.646753         2
        20        19        18        41     9        0.000000       -0.472390         3
        20        19        18        41     9      180.000000        0.123262         4
        20        21        22        23     9        0.000000       13.910375         1
        20        21        22        23     9      180.000000       -7.259688         2
        20        21        22        23     9        0.000000       -0.922277         3
        20        21        22        23     9      180.000000        1.428606         4
        20        21        22        43     9        0.000000        0.016755         1
        20        21        22        43     9      180.000000        0.171155         2
        20        21        22        43     9        0.000000        0.424796         3
        20        21        22        43     9      180.000000        0.018004         4
        20        21        22        44     9        0.000000        0.016755         1
        20        21        22        44     9      180.000000        0.171155         2
        20        21        22        44     9        0.000000        0.424796         3
        20        21        22        44     9      180.000000        0.018004         4
        20        26        25        23     9        0.000000        1.828662         1
        20        26        25        23     9      180.000000       -0.920120         2
        20        26        25        23     9        0.000000        0.696539         3
        20        26        25        23     9      180.000000        0.344427         4
        20        26        25        45     9        0.000000        0.304521         1
        20        26        25        45     9      180.000000        1.891725         2
        20        26        25        45     9        0.000000        0.137452         3
        20        26        25        45     9      180.000000        0.124364         4
        20        26        27        46     9        0.000000        0.112400         1
        20        26        27        46     9      180.000000       13.288787         2
        20        26        27        46     9        0.000000       -0.260380         3
        20        26        27        46     9      180.000000        0.162619         4
        21        20        19        42     9        0.000000        0.018590         1
        21        20        19        42     9      180.000000       15.016768         2
        21        20        19        42     9        0.000000        0.152598         3
        21        20        19        42     9      180.000000        0.263194         4
        21        20        26        25     9        0.000000        0.120740         1
        21        20        26        25     9      180.000000       21.321070         2
        21        20        26        25     9        0.000000        0.485112         3
        21        20        26        25     9      180.000000       -1.006390         4
        21        20        26        27     9        0.000000        0.258448         1
        21        20        26        27     9      180.000000       16.231150         2
        21        20        26        27     9        0.000000        0.393358         3
        21        20        26        27     9      180.000000       -0.255987         4
        21        22        23        24     9        0.000000        0.593300         1
        21        22        23        24     9      180.000000        1.034638         2
        21        22        23        24     9        0.000000       -0.703387         3
        21        22        23        24     9      180.000000        0.252485         4
        21        22        23        25     9        0.000000        1.557052         1
        21        22        23        25     9      180.000000       -0.312762         2
        21        22        23        25     9        0.000000       -0.483003         3
        21        22        23        25     9      180.000000        0.699928         4
        22        21        20        26     9        0.000000        1.491571         1
        22        21        20        26     9      180.000000        0.727548         2
        22        21        20        26     9        0.000000       -0.325837         3
        22        21        20        26     9      180.000000        0.370163         4
        22        23        25        26     9        0.000000        0.815057         1
        22        23        25        26     9      180.000000        4.239232         2
        22        23        25        26     9        0.000000        0.261343         3
        22        23        25        26     9      180.000000        0.140124         4
        22        23        25        45     9        0.000000       -0.030361         1
        22        23        25        45     9      180.000000       10.437372         2
        22        23        25        45     9        0.000000       -0.584753         3
        22        23        25        45     9      180.000000       -0.184842         4
        23        25        26        27     9        0.000000       -0.437483         1
        23        25        26        27     9      180.000000        1.127758         2
        23        25        26        27     9        0.000000       -0.088341         3
        23        25        26        27     9      180.000000        0.261640         4
        24        23        22        43     9        0.000000       -0.041126         1
        24        23        22        43     9      180.000000       -0.124610         2
        24        23        22        43     9        0.000000       -0.507771         3
        24        23        22        43     9      180.000000       -0.092181         4
        24        23        22        44     9        0.000000       -0.041126         1
        24        23        22        44     9      180.000000       -0.124610         2
        24        23        22        44     9        0.000000       -0.507771         3
        24        23        22        44     9      180.000000       -0.092181         4
        24        23        25        26     9        0.000000        1.004158         1
        24        23        25        26     9      180.000000       13.446610         2
        24        23        25        26     9        0.000000        0.056203         3
        24        23        25        26     9      180.000000       -0.995415         4
        24        23        25        45     9        0.000000        0.976041         1
        24        23        25        45     9      180.000000       14.170460         2
        24        23        25        45     9        0.000000       -1.206473         3
        24        23        25        45     9      180.000000        0.562363         4
        25        23        22        43     9        0.000000       -0.083298         1
        25        23        22        43     9      180.000000       -0.176136         2
        25        23        22        43     9        0.000000       -0.365115         3
        25        23        22        43     9      180.000000        0.014193         4
        25        23        22        44     9        0.000000       -0.083298         1
        25        23        22        44     9      180.000000       -0.176136         2
        25        23        22        44     9        0.000000       -0.365115         3
        25        23        22        44     9      180.000000        0.014193         4
        25        26        27        46     9        0.000000       -0.223321         1
        25        26        27        46     9      180.000000       15.060812         2
        25        26        27        46     9        0.000000       -0.191198         3
        25        26        27        46     9      180.000000        0.224328         4
        26        20        19        42     9        0.000000        0.029177         1
        26        20        19        42     9      180.000000       12.844785         2
        26        20        19        42     9        0.000000       -0.461012         3
        26        20        19        42     9      180.000000       -0.010201         4
        27        17        18        41     9        0.000000       -0.104287         1
        27        17        18        41     9      180.000000       13.628769         2
        27        17        18        41     9        0.000000       -0.631487         3
        27        17        18        41     9      180.000000        0.084081         4
        27        26        25        45     9        0.000000       -0.912601         1
        27        26        25        45     9      180.000000        2.377498         2
        27        26        25        45     9        0.000000       -0.108832         3
        27        26        25        45     9      180.000000        0.196768         4
        28         6         5        36     9        0.000000        0.074273         1
        28         6         5        36     9      180.000000       12.990241         2
        28         6         5        36     9        0.000000       -0.520768         3
        28         6         5        36     9      180.000000        0.132469         4
        28         6         7        37     9        0.000000        1.575093         1
        28         6         7        37     9      180.000000        3.198189         2
        28         6         7        37     9        0.000000        0.467524         3
        28         6         7        37     9      180.000000        0.863764         4
        28        29        30        31     9        0.000000        0.123069         1
        28        29        30        31     9      180.000000        4.737590         2
        28        29        30        31     9        0.000000       -0.815850         3
        28        29        30        31     9      180.000000        0.427563         4
        29         3         4        35     9        0.000000        0.222424         1
        29         3         4        35     9      180.000000       12.890975         2
        29         3         4        35     9        0.000000       -0.414499         3
        29         3         4        35     9      180.000000        0.189834         4
        29        30        31        48     9        0.000000       -0.006341         1
        29        30        31        48     9      180.000000       -0.005041         2
        29        30        31        48     9        0.000000        0.433370         3
        29        30        31        48     9      180.000000       -0.009039         4
        29        30        31        49     9        0.000000       -0.006341         1
        29        30        31        49     9      180.000000       -0.005041         2
        29        30        31        49     9        0.000000        0.433370         3
        29        30        31        49     9      180.000000       -0.009039         4
        29        30        31        50     9        0.000000       -0.006341         1
        29        30        31        50     9      180.000000       -0.005041         2
        29        30        31        50     9        0.000000        0.433370         3
        29        30        31        50     9      180.000000       -0.009039         4
        30        29        28        47     9        0.000000        0.102563         1
        30        29        28        47     9      180.000000       13.836841         2
        30        29        28        47     9        0.000000       -0.050823         3
        30        29        28        47     9      180.000000        0.307531         4
        35         4         5        36     9        0.000000       -0.192420         1
        35         4         5        36     9      180.000000       11.734676         2
        35         4         5        36     9        0.000000       -0.700233         3
        35         4         5        36     9      180.000000        0.222006         4
        39        13        14        40     9        0.000000       -0.357707         1
        39        13        14        40     9      180.000000        9.061504         2
        39        13        14        40     9        0.000000       -0.277917         3
        39        13        14        40     9      180.000000        0.193706         4
        41        18        19        42     9        0.000000       -0.155070         1
        41        18        19        42     9      180.000000       12.075487         2
        41        18        19        42     9        0.000000       -0.807901         3
        41        18        19        42     9      180.000000        0.364223         4

[ dihedrals ] ; impropers
;       ai        aj        ak        al funct           phase               k        pn
        23        22        24        25     4      180.000000        7.598248         2
        23        24        25        22     4      180.000000        7.598248         2
        23        25        22        24     4      180.000000        7.598248         2

[ pairs ]
;       ai        aj funct
         1         4     1
         1        29     1
         2         5     1
         2        28     1
         2        30     1
         2        35     1
         3         6     1
         3        31     1
         3        32     1
         3        33     1
         3        34     1
         3        36     1
         3        47     1
         4         7     1
         4        28     1
         4        30     1
         5         8     1
         5        29     1
         5        37     1
         5        47     1
         6         9     1
         6        16     1
         6        30     1
         6        35     1
         7        10     1
         7        12     1
         7        15     1
         7        29     1
         7        36     1
         7        47     1
         8        11     1
         8        13     1
         8        14     1
         8        17     1
         8        28     1
         9        12     1
         9        15     1
         9        18     1
         9        27     1
         9        37     1
         9        38     1
        10        13     1
        10        16     1
        10        19     1
        10        26     1
        10        41     1
        10        46     1
        11        14     1
        11        15     1
        11        18     1
        11        27     1
        11        39     1
        12        17     1
        12        40     1
        13        38     1
        15        39     1
        16        37     1
        16        38     1
        16        39     1
        16        40     1
        17        20     1
        17        25     1
        17        38     1
        17        42     1
        18        21     1
        18        26     1
        18        46     1
        19        22     1
        19        25     1
        19        27     1
        20        23     1
        20        41     1
        20        43     1
        20        44     1
        20        45     1
        20        46     1
        21        24     1
        21        25     1
        21        27     1
        21        42     1
        22        26     1
        22        45     1
        23        27     1
        24        26     1
        24        43     1
        24        44     1
        24        45     1
        25        43     1
        25        44     1
        25        46     1
        26        42     1
        27        41     1
        27        45     1
        28        31     1
        28        36     1
        28        37     1
        29        35     1
        29        48     1
        29        49     1
        29        50     1
        30        47     1
        35        36     1
        39        40     1
        41        42     1
