; ITP file created by ByteFF-ML, 2026-02-21 07:48:37.147890

[ atomtypes ]
;name           bonded.type        at.num        mass        charge   ptype           sigma         epsilon
 o0bf                                   8      0.0000       0.00000       A     3.04977e-01     6.11411e-01
 s1bf                                  16      0.0000       0.00000       A     4.05785e-01     2.58424e-01
 o2bf                                   8      0.0000       0.00000       A     3.04977e-01     6.11411e-01
 c3bf                                   6      0.0000       0.00000       A     3.39755e-01     4.50931e-01
 c4bf                                   6      0.0000       0.00000       A     3.39671e-01     4.47262e-01
 n5bf                                   7      0.0000       0.00000       A     3.19370e-01     9.06117e-01
 c6bf                                   6      0.0000       0.00000       A     3.39671e-01     4.47262e-01
 c7bf                                   6      0.0000       0.00000       A     3.39755e-01     4.50931e-01
 c8bf                                   6      0.0000       0.00000       A     3.31563e-01     4.13553e-01
 c9bf                                   6      0.0000       0.00000       A     3.31442e-01     4.11963e-01
 c10bf                                  6      0.0000       0.00000       A     3.31466e-01     4.12771e-01
 c11bf                                  6      0.0000       0.00000       A     3.31256e-01     4.11187e-01
 n12bf                                  7      0.0000       0.00000       A     3.27803e-01     6.49204e-01
 c13bf                                  6      0.0000       0.00000       A     3.31293e-01     4.14462e-01
 n14bf                                  7      0.0000       0.00000       A     3.38671e-01     3.94073e-01
 c15bf                                  6      0.0000       0.00000       A     3.31501e-01     4.11066e-01
 c16bf                                  6      0.0000       0.00000       A     3.31499e-01     4.12954e-01
 n17bf                                  7      0.0000       0.00000       A     3.20544e-01     8.50304e-01
 c18bf                                  6      0.0000       0.00000       A     3.31513e-01     4.11963e-01
 c19bf                                  6      0.0000       0.00000       A     3.31488e-01     4.12482e-01
 n20bf                                  7      0.0000       0.00000       A     3.38571e-01     3.94678e-01
 c21bf                                  6      0.0000       0.00000       A     3.31524e-01     4.13157e-01
 c22bf                                  6      0.0000       0.00000       A     3.31318e-01     4.13275e-01
 c23bf                                  6      0.0000       0.00000       A     3.31459e-01     4.13269e-01
 c24bf                                  6      0.0000       0.00000       A     3.31493e-01     4.13770e-01
 c25bf                                  6      0.0000       0.00000       A     3.31459e-01     4.13510e-01
 c26bf                                  6      0.0000       0.00000       A     3.31378e-01     4.12493e-01
 n27bf                                  7      0.0000       0.00000       A     3.38246e-01     3.92809e-01
 n28bf                                  7      0.0000       0.00000       A     3.20449e-01     8.56124e-01
 c29bf                                  6      0.0000       0.00000       A     3.31534e-01     4.12212e-01
 c30bf                                  6      0.0000       0.00000       A     3.31394e-01     4.12724e-01
 c31bf                                  6      0.0000       0.00000       A     3.31466e-01     4.12772e-01
 c32bf                                  6      0.0000       0.00000       A     3.31442e-01     4.11963e-01
 h33bf                                  1      0.0000       0.00000       A     2.42137e-01     8.70241e-02
 h34bf                                  1      0.0000       0.00000       A     2.42137e-01     8.70241e-02
 h35bf                                  1      0.0000       0.00000       A     2.42155e-01     8.73752e-02
 h36bf                                  1      0.0000       0.00000       A     2.42155e-01     8.73752e-02
 h37bf                                  1      0.0000       0.00000       A     2.42155e-01     8.73752e-02
 h38bf                                  1      0.0000       0.00000       A     2.42155e-01     8.73752e-02
 h39bf                                  1      0.0000       0.00000       A     2.42137e-01     8.70241e-02
 h40bf                                  1      0.0000       0.00000       A     2.42137e-01     8.70241e-02
 h41bf                                  1      0.0000       0.00000       A     2.62376e-01     6.80229e-02
 h42bf                                  1      0.0000       0.00000       A     2.62508e-01     6.74802e-02
 h43bf                                  1      0.0000       0.00000       A     1.10437e-01     4.36637e-02
 h44bf                                  1      0.0000       0.00000       A     2.53936e-01     6.71690e-02
 h45bf                                  1      0.0000       0.00000       A     2.54157e-01     6.73717e-02
 h46bf                                  1      0.0000       0.00000       A     2.53844e-01     6.71387e-02
 h47bf                                  1      0.0000       0.00000       A     2.62540e-01     6.75377e-02
 h48bf                                  1      0.0000       0.00000       A     2.62573e-01     6.68386e-02
 h49bf                                  1      0.0000       0.00000       A     2.53797e-01     6.68737e-02
 h50bf                                  1      0.0000       0.00000       A     1.10610e-01     4.13941e-02
 h51bf                                  1      0.0000       0.00000       A     2.62479e-01     6.75951e-02
 h52bf                                  1      0.0000       0.00000       A     2.62508e-01     6.74802e-02
 h53bf                                  1      0.0000       0.00000       A     2.62376e-01     6.80229e-02

[ moleculetype ]
;name             nrexcl
 CHEMBL3265033         3

[ atoms ]
;       nr            type      resi   res      atom      cgnr      charge          mass ; qtot
         1            o0bf         1   UNL        o0         1    -0.49915       15.9990 ; qtot   -0.499
         2            s1bf         1   UNL        s1         2     1.00273       32.0670 ; qtot    0.504
         3            o2bf         1   UNL        o2         3    -0.49915       15.9990 ; qtot    0.004
         4            c3bf         1   UNL        c3         4    -0.28368       12.0110 ; qtot   -0.279
         5            c4bf         1   UNL        c4         5     0.22642       12.0110 ; qtot   -0.053
         6            n5bf         1   UNL        n5         6    -0.80463       14.0070 ; qtot   -0.857
         7            c6bf         1   UNL        c6         7     0.22642       12.0110 ; qtot   -0.631
         8            c7bf         1   UNL        c7         8    -0.28368       12.0110 ; qtot   -0.915
         9            c8bf         1   UNL        c8         9     0.26559       12.0110 ; qtot   -0.649
        10            c9bf         1   UNL        c9        10    -0.14987       12.0110 ; qtot   -0.799
        11           c10bf         1   UNL       c10        11    -0.11397       12.0110 ; qtot   -0.913
        12           c11bf         1   UNL       c11        12     0.27805       12.0110 ; qtot   -0.635
        13           n12bf         1   UNL       n12        13    -0.91367       14.0070 ; qtot   -1.549
        14           c13bf         1   UNL       c13        14     0.67832       12.0110 ; qtot   -0.870
        15           n14bf         1   UNL       n14        15    -0.75880       14.0070 ; qtot   -1.629
        16           c15bf         1   UNL       c15        16     0.39367       12.0110 ; qtot   -1.235
        17           c16bf         1   UNL       c16        17    -0.18305       12.0110 ; qtot   -1.418
        18           n17bf         1   UNL       n17        18     0.16185       14.0070 ; qtot   -1.257
        19           c18bf         1   UNL       c18        19    -0.26112       12.0110 ; qtot   -1.518
        20           c19bf         1   UNL       c19        20    -0.04248       12.0110 ; qtot   -1.560
        21           n20bf         1   UNL       n20        21    -0.27126       14.0070 ; qtot   -1.831
        22           c21bf         1   UNL       c21        22    -0.16948       12.0110 ; qtot   -2.001
        23           c22bf         1   UNL       c22        23    -0.09700       12.0110 ; qtot   -2.098
        24           c23bf         1   UNL       c23        24    -0.12311       12.0110 ; qtot   -2.221
        25           c24bf         1   UNL       c24        25    -0.03392       12.0110 ; qtot   -2.255
        26           c25bf         1   UNL       c25        26    -0.22776       12.0110 ; qtot   -2.483
        27           c26bf         1   UNL       c26        27     0.35866       12.0110 ; qtot   -2.124
        28           n27bf         1   UNL       n27        28    -0.50917       14.0070 ; qtot   -2.633
        29           n28bf         1   UNL       n28        29    -0.08410       14.0070 ; qtot   -2.717
        30           c29bf         1   UNL       c29        30    -0.02985       12.0110 ; qtot   -2.747
        31           c30bf         1   UNL       c30        31    -0.10271       12.0110 ; qtot   -2.850
        32           c31bf         1   UNL       c31        32    -0.11397       12.0110 ; qtot   -2.964
        33           c32bf         1   UNL       c32        33    -0.14987       12.0110 ; qtot   -3.114
        34           h33bf         1   UNL       h33        34     0.11125        1.0080 ; qtot   -3.002
        35           h34bf         1   UNL       h34        35     0.11125        1.0080 ; qtot   -2.891
        36           h35bf         1   UNL       h35        36     0.06690        1.0080 ; qtot   -2.824
        37           h36bf         1   UNL       h36        37     0.06690        1.0080 ; qtot   -2.757
        38           h37bf         1   UNL       h37        38     0.06690        1.0080 ; qtot   -2.691
        39           h38bf         1   UNL       h38        39     0.06690        1.0080 ; qtot   -2.624
        40           h39bf         1   UNL       h39        40     0.11125        1.0080 ; qtot   -2.512
        41           h40bf         1   UNL       h40        41     0.11125        1.0080 ; qtot   -2.401
        42           h41bf         1   UNL       h41        42     0.11627        1.0080 ; qtot   -2.285
        43           h42bf         1   UNL       h42        43     0.12456        1.0080 ; qtot   -2.160
        44           h43bf         1   UNL       h43        44     0.50487        1.0080 ; qtot   -1.655
        45           h44bf         1   UNL       h44        45     0.15334        1.0080 ; qtot   -1.502
        46           h45bf         1   UNL       h45        46     0.22767        1.0080 ; qtot   -1.274
        47           h46bf         1   UNL       h46        47     0.22246        1.0080 ; qtot   -1.052
        48           h47bf         1   UNL       h47        48     0.12542        1.0080 ; qtot   -0.927
        49           h48bf         1   UNL       h48        49     0.12504        1.0080 ; qtot   -0.802
        50           h49bf         1   UNL       h49        50     0.05082        1.0080 ; qtot   -0.751
        51           h50bf         1   UNL       h50        51     0.37661        1.0080 ; qtot   -0.374
        52           h51bf         1   UNL       h51        52     0.13324        1.0080 ; qtot   -0.241
        53           h52bf         1   UNL       h52        53     0.12456        1.0080 ; qtot   -0.116
        54           h53bf         1   UNL       h53        54     0.11628        1.0080 ; qtot    0.000

[ bonds ]
;       ai        aj funct               r               k
         1         2     1        0.147347   505592.629395
         2         3     1        0.147347   505592.629395
         2         4     1        0.182168   129487.394238
         2         8     1        0.182168   129487.394238
         4         5     1        0.153113   178246.712329
         4        34     1        0.109178   313355.705371
         4        35     1        0.109178   313355.705371
         5         6     1        0.146511   190241.122314
         5        36     1        0.109442   295124.992822
         5        37     1        0.109442   295124.992822
         6         7     1        0.146511   190241.122314
         6         9     1        0.141117   247896.432910
         7         8     1        0.153113   178246.712329
         7        38     1        0.109442   295124.992822
         7        39     1        0.109442   295124.992822
         8        40     1        0.109178   313355.705371
         8        41     1        0.109178   313355.705371
         9        10     1        0.141009   272114.857031
         9        33     1        0.141009   272114.857031
        10        11     1        0.139463   328934.261426
        10        42     1        0.108406   322368.542920
        11        12     1        0.140426   285587.316602
        11        43     1        0.108503   321217.457715
        12        13     1        0.140898   254174.935547
        12        32     1        0.140426   285587.316602
        13        14     1        0.136705   312202.219678
        13        44     1        0.101301   413472.487061
        14        15     1        0.132061   353646.930762
        14        22     1        0.143870   235848.075781
        15        16     1        0.137731   242889.474023
        16        17     1        0.137592   344983.108887
        16        23     1        0.148350   208057.444189
        17        18     1        0.137846   276179.573193
        17        45     1        0.108178   332012.708887
        18        19     1        0.137750   263209.071045
        18        22     1        0.138998   204565.831836
        19        20     1        0.138746   337814.127246
        19        46     1        0.107915   345078.311230
        20        21     1        0.136744   275913.425439
        20        47     1        0.108260   332273.212939
        21        22     1        0.133378   321390.292871
        23        24     1        0.142433   254268.222607
        23        31     1        0.139561   307101.999268
        24        25     1        0.138513   345982.120605
        24        48     1        0.108464   321585.677295
        25        26     1        0.140977   299472.200488
        25        49     1        0.108610   319899.819482
        26        27     1        0.143230   248711.168848
        26        30     1        0.142098   249269.716504
        27        28     1        0.132469   384599.541699
        27        50     1        0.108275   331411.463184
        28        29     1        0.136225   242542.935449
        29        30     1        0.137146   283722.188281
        29        51     1        0.100944   434666.372559
        30        31     1        0.140152   304627.402295
        31        52     1        0.108507   321591.014551
        32        33     1        0.139463   328934.261426
        32        53     1        0.108503   321217.457715
        33        54     1        0.108406   322368.542920

[ angles ]
;       ai        aj        ak funct           theta             cth
         1         2         3     1      120.788475      722.342612
         1         2         4     1      108.282616      657.930616
         1         2         8     1      108.282616      657.930616
         2         4         5     1      110.231606      834.609682
         2         4        34     1      106.281235      581.903450
         2         4        35     1      106.281235      581.903450
         2         8         7     1      110.231606      834.609682
         2         8        40     1      106.281235      581.903450
         2         8        41     1      106.281235      581.903450
         3         2         4     1      108.282616      657.930616
         3         2         8     1      108.282616      657.930616
         4         2         8     1      100.349358      726.252790
         4         5         6     1      112.176170      614.252136
         4         5        36     1      108.776993      480.547046
         4         5        37     1      108.776993      480.547046
         5         4        34     1      111.961304      498.737384
         5         4        35     1      111.961304      498.737384
         5         6         7     1      115.333206      497.719954
         5         6         9     1      117.548058      555.596907
         6         5        36     1      110.034996      430.715016
         6         5        37     1      110.034996      430.715016
         6         7         8     1      112.176170      614.252136
         6         7        38     1      110.034996      430.715016
         6         7        39     1      110.034996      430.715016
         6         9        10     1      121.123451      559.337200
         6         9        33     1      121.123451      559.337136
         7         6         9     1      117.548058      555.596907
         7         8        40     1      111.961304      498.737384
         7         8        41     1      111.961304      498.737384
         8         7        38     1      108.776993      480.547046
         8         7        39     1      108.776993      480.547046
         9        10        11     1      121.408508      734.934897
         9        10        42     1      120.341354      421.483702
         9        33        32     1      121.408508      734.934897
         9        33        54     1      120.341354      421.483766
        10         9        33     1      117.382767      549.583620
        10        11        12     1      120.703323      707.233262
        10        11        43     1      119.562973      401.335146
        11        10        42     1      118.379135      430.376394
        11        12        13     1      120.667297      557.707166
        11        12        32     1      118.452194      568.429177
        12        11        43     1      119.695213      434.398552
        12        13        14     1      130.988190      388.535181
        12        13        44     1      115.506020      444.983205
        12        32        33     1      120.703323      707.233262
        12        32        53     1      119.695213      434.398552
        13        12        32     1      120.667297      557.707166
        13        14        15     1      121.343933      603.141131
        13        14        22     1      116.160477      347.852905
        14        13        44     1      112.183823      485.604830
        14        15        16     1      119.793762      659.281466
        14        22        18     1      117.476013      691.884693
        14        22        21     1      131.168365      328.267219
        15        14        22     1      121.163086      641.590825
        15        16        17     1      121.966331      389.510187
        15        16        23     1      116.263992      505.959789
        16        17        18     1      118.184242      872.211990
        16        17        45     1      124.892982      345.345800
        16        23        24     1      119.968796      596.169245
        16        23        31     1      120.006363      462.288651
        17        16        23     1      121.468979      451.185722
        17        18        19     1      132.324738      451.412524
        17        18        22     1      121.398743      769.110508
        18        17        45     1      117.429405      489.573775
        18        19        20     1      105.222733      375.666967
        18        19        46     1      122.391075      461.871917
        18        22        21     1      111.412987      167.360000
        19        18        22     1      106.439148      167.360000
        19        20        21     1      111.710022      296.607652
        19        20        47     1      126.932030      353.254706
        20        19        46     1      132.665771      296.979121
        20        21        22     1      105.148094      501.387338
        21        20        47     1      121.224686      373.698758
        23        24        25     1      121.768967      637.524678
        23        24        48     1      118.821877      437.177245
        23        31        30     1      117.575485      752.943475
        23        31        52     1      120.740341      417.152991
        24        23        31     1      120.215416      565.096584
        24        25        26     1      118.718689      667.878789
        24        25        49     1      120.630470      435.954975
        25        24        48     1      119.666855      423.052606
        25        26        27     1      136.517990      472.986497
        25        26        30     1      119.114426      702.113072
        26        25        49     1      120.868912      437.569878
        26        27        28     1      111.479248      389.645023
        26        27        50     1      128.954620      353.879567
        26        30        29     1      105.629051      167.360000
        26        30        31     1      122.444931      646.521977
        27        26        30     1      104.386375      456.099828
        27        28        29     1      105.968918      513.160392
        28        27        50     1      119.559181      397.470551
        28        29        30     1      112.587364      425.755262
        28        29        51     1      118.749695      478.428710
        29        30        31     1      132.012619      439.872176
        30        29        51     1      128.703522      382.976358
        30        31        52     1      121.796425      432.612870
        32        33        54     1      118.379128      430.376394
        33        32        53     1      119.562973      401.335146
        34         4        35     1      109.823631      341.307712
        36         5        37     1      107.192551      346.554726
        38         7        39     1      107.192551      346.554726
        40         8        41     1      109.823631      341.307712

[ dihedrals ] ; propers for gromacs 4.5 or higher, use funct 9
;       ai        aj        ak        al funct           phase               k        pn
         1         2         4         5     9        0.000000       -0.580391         1
         1         2         4         5     9      180.000000        0.086515         2
         1         2         4         5     9        0.000000        0.053848         3
         1         2         4         5     9      180.000000        0.041062         4
         1         2         4        34     9        0.000000        0.058152         1
         1         2         4        34     9      180.000000        0.001198         2
         1         2         4        34     9        0.000000        0.258199         3
         1         2         4        34     9      180.000000       -0.036897         4
         1         2         4        35     9        0.000000        0.058152         1
         1         2         4        35     9      180.000000        0.001198         2
         1         2         4        35     9        0.000000        0.258199         3
         1         2         4        35     9      180.000000       -0.036897         4
         1         2         8         7     9        0.000000       -0.580391         1
         1         2         8         7     9      180.000000        0.086515         2
         1         2         8         7     9        0.000000        0.053848         3
         1         2         8         7     9      180.000000        0.041062         4
         1         2         8        40     9        0.000000        0.058152         1
         1         2         8        40     9      180.000000        0.001198         2
         1         2         8        40     9        0.000000        0.258199         3
         1         2         8        40     9      180.000000       -0.036897         4
         1         2         8        41     9        0.000000        0.058152         1
         1         2         8        41     9      180.000000        0.001198         2
         1         2         8        41     9        0.000000        0.258199         3
         1         2         8        41     9      180.000000       -0.036897         4
         2         4         5         6     9        0.000000       -0.493137         1
         2         4         5         6     9      180.000000       -1.212924         2
         2         4         5         6     9        0.000000       -0.339510         3
         2         4         5         6     9      180.000000       -0.061307         4
         2         4         5        36     9        0.000000        0.209344         1
         2         4         5        36     9      180.000000       -0.041859         2
         2         4         5        36     9        0.000000       -0.222810         3
         2         4         5        36     9      180.000000        0.175743         4
         2         4         5        37     9        0.000000        0.209344         1
         2         4         5        37     9      180.000000       -0.041859         2
         2         4         5        37     9        0.000000       -0.222810         3
         2         4         5        37     9      180.000000        0.175743         4
         2         8         7         6     9        0.000000       -0.493137         1
         2         8         7         6     9      180.000000       -1.212924         2
         2         8         7         6     9        0.000000       -0.339510         3
         2         8         7         6     9      180.000000       -0.061307         4
         2         8         7        38     9        0.000000        0.209344         1
         2         8         7        38     9      180.000000       -0.041859         2
         2         8         7        38     9        0.000000       -0.222810         3
         2         8         7        38     9      180.000000        0.175743         4
         2         8         7        39     9        0.000000        0.209344         1
         2         8         7        39     9      180.000000       -0.041859         2
         2         8         7        39     9        0.000000       -0.222810         3
         2         8         7        39     9      180.000000        0.175743         4
         3         2         4         5     9        0.000000       -0.580391         1
         3         2         4         5     9      180.000000        0.086515         2
         3         2         4         5     9        0.000000        0.053848         3
         3         2         4         5     9      180.000000        0.041062         4
         3         2         4        34     9        0.000000        0.058152         1
         3         2         4        34     9      180.000000        0.001198         2
         3         2         4        34     9        0.000000        0.258199         3
         3         2         4        34     9      180.000000       -0.036897         4
         3         2         4        35     9        0.000000        0.058152         1
         3         2         4        35     9      180.000000        0.001198         2
         3         2         4        35     9        0.000000        0.258199         3
         3         2         4        35     9      180.000000       -0.036897         4
         3         2         8         7     9        0.000000       -0.580391         1
         3         2         8         7     9      180.000000        0.086515         2
         3         2         8         7     9        0.000000        0.053848         3
         3         2         8         7     9      180.000000        0.041062         4
         3         2         8        40     9        0.000000        0.058152         1
         3         2         8        40     9      180.000000        0.001198         2
         3         2         8        40     9        0.000000        0.258199         3
         3         2         8        40     9      180.000000       -0.036897         4
         3         2         8        41     9        0.000000        0.058152         1
         3         2         8        41     9      180.000000        0.001198         2
         3         2         8        41     9        0.000000        0.258199         3
         3         2         8        41     9      180.000000       -0.036897         4
         4         2         8         7     9        0.000000        2.508723         1
         4         2         8         7     9      180.000000       -3.387442         2
         4         2         8         7     9        0.000000       -0.265500         3
         4         2         8         7     9      180.000000        0.728053         4
         4         2         8        40     9        0.000000       -0.007979         1
         4         2         8        40     9      180.000000        0.037001         2
         4         2         8        40     9        0.000000        0.031099         3
         4         2         8        40     9      180.000000       -0.039937         4
         4         2         8        41     9        0.000000       -0.007979         1
         4         2         8        41     9      180.000000        0.037001         2
         4         2         8        41     9        0.000000        0.031099         3
         4         2         8        41     9      180.000000       -0.039937         4
         4         5         6         7     9        0.000000        0.889118         1
         4         5         6         7     9      180.000000       -2.002215         2
         4         5         6         7     9        0.000000        0.495414         3
         4         5         6         7     9      180.000000        0.392779         4
         4         5         6         9     9        0.000000       -2.029193         1
         4         5         6         9     9      180.000000        0.249890         2
         4         5         6         9     9        0.000000        0.534761         3
         4         5         6         9     9      180.000000        0.052077         4
         5         4         2         8     9        0.000000        2.508723         1
         5         4         2         8     9      180.000000       -3.387442         2
         5         4         2         8     9        0.000000       -0.265500         3
         5         4         2         8     9      180.000000        0.728053         4
         5         6         7         8     9        0.000000        0.889118         1
         5         6         7         8     9      180.000000       -2.002215         2
         5         6         7         8     9        0.000000        0.495414         3
         5         6         7         8     9      180.000000        0.392779         4
         5         6         7        38     9        0.000000        0.031296         1
         5         6         7        38     9      180.000000        0.124904         2
         5         6         7        38     9        0.000000        0.871912         3
         5         6         7        38     9      180.000000       -0.029628         4
         5         6         7        39     9        0.000000        0.031296         1
         5         6         7        39     9      180.000000        0.124904         2
         5         6         7        39     9        0.000000        0.871912         3
         5         6         7        39     9      180.000000       -0.029628         4
         5         6         9        10     9        0.000000       -0.004239         1
         5         6         9        10     9      180.000000        4.668079         2
         5         6         9        10     9        0.000000        0.043160         3
         5         6         9        10     9      180.000000        0.455233         4
         5         6         9        33     9        0.000000       -0.004239         1
         5         6         9        33     9      180.000000        4.668080         2
         5         6         9        33     9        0.000000        0.043160         3
         5         6         9        33     9      180.000000        0.455233         4
         6         5         4        34     9        0.000000       -0.045614         1
         6         5         4        34     9      180.000000       -0.023688         2
         6         5         4        34     9        0.000000        0.120147         3
         6         5         4        34     9      180.000000       -0.005975         4
         6         5         4        35     9        0.000000       -0.045614         1
         6         5         4        35     9      180.000000       -0.023688         2
         6         5         4        35     9        0.000000        0.120147         3
         6         5         4        35     9      180.000000       -0.005975         4
         6         7         8        40     9        0.000000       -0.045614         1
         6         7         8        40     9      180.000000       -0.023688         2
         6         7         8        40     9        0.000000        0.120147         3
         6         7         8        40     9      180.000000       -0.005975         4
         6         7         8        41     9        0.000000       -0.045614         1
         6         7         8        41     9      180.000000       -0.023688         2
         6         7         8        41     9        0.000000        0.120147         3
         6         7         8        41     9      180.000000       -0.005975         4
         6         9        10        11     9        0.000000        0.395047         1
         6         9        10        11     9      180.000000       16.626113         2
         6         9        10        11     9        0.000000        0.210430         3
         6         9        10        11     9      180.000000       -0.287542         4
         6         9        10        42     9        0.000000       -0.019930         1
         6         9        10        42     9      180.000000       13.550514         2
         6         9        10        42     9        0.000000       -0.095868         3
         6         9        10        42     9      180.000000        0.131724         4
         6         9        33        32     9        0.000000        0.395045         1
         6         9        33        32     9      180.000000       16.626111         2
         6         9        33        32     9        0.000000        0.210429         3
         6         9        33        32     9      180.000000       -0.287542         4
         6         9        33        54     9        0.000000       -0.019930         1
         6         9        33        54     9      180.000000       13.550514         2
         6         9        33        54     9        0.000000       -0.095868         3
         6         9        33        54     9      180.000000        0.131724         4
         7         6         5        36     9        0.000000        0.031296         1
         7         6         5        36     9      180.000000        0.124904         2
         7         6         5        36     9        0.000000        0.871912         3
         7         6         5        36     9      180.000000       -0.029628         4
         7         6         5        37     9        0.000000        0.031296         1
         7         6         5        37     9      180.000000        0.124904         2
         7         6         5        37     9        0.000000        0.871912         3
         7         6         5        37     9      180.000000       -0.029628         4
         7         6         9        10     9        0.000000       -0.004239         1
         7         6         9        10     9      180.000000        4.668079         2
         7         6         9        10     9        0.000000        0.043160         3
         7         6         9        10     9      180.000000        0.455233         4
         7         6         9        33     9        0.000000       -0.004239         1
         7         6         9        33     9      180.000000        4.668080         2
         7         6         9        33     9        0.000000        0.043160         3
         7         6         9        33     9      180.000000        0.455233         4
         8         2         4        34     9        0.000000       -0.007979         1
         8         2         4        34     9      180.000000        0.037001         2
         8         2         4        34     9        0.000000        0.031099         3
         8         2         4        34     9      180.000000       -0.039937         4
         8         2         4        35     9        0.000000       -0.007979         1
         8         2         4        35     9      180.000000        0.037001         2
         8         2         4        35     9        0.000000        0.031099         3
         8         2         4        35     9      180.000000       -0.039937         4
         8         7         6         9     9        0.000000       -2.029193         1
         8         7         6         9     9      180.000000        0.249890         2
         8         7         6         9     9        0.000000        0.534761         3
         8         7         6         9     9      180.000000        0.052077         4
         9         6         5        36     9        0.000000       -0.039278         1
         9         6         5        36     9      180.000000       -0.107373         2
         9         6         5        36     9        0.000000        0.839813         3
         9         6         5        36     9      180.000000       -0.040537         4
         9         6         5        37     9        0.000000       -0.039278         1
         9         6         5        37     9      180.000000       -0.107373         2
         9         6         5        37     9        0.000000        0.839813         3
         9         6         5        37     9      180.000000       -0.040537         4
         9         6         7        38     9        0.000000       -0.039278         1
         9         6         7        38     9      180.000000       -0.107373         2
         9         6         7        38     9        0.000000        0.839813         3
         9         6         7        38     9      180.000000       -0.040537         4
         9         6         7        39     9        0.000000       -0.039278         1
         9         6         7        39     9      180.000000       -0.107373         2
         9         6         7        39     9        0.000000        0.839813         3
         9         6         7        39     9      180.000000       -0.040537         4
         9        10        11        12     9        0.000000       -0.136445         1
         9        10        11        12     9      180.000000       18.023336         2
         9        10        11        12     9        0.000000       -1.542471         3
         9        10        11        12     9      180.000000       -0.378657         4
         9        10        11        43     9        0.000000        0.046360         1
         9        10        11        43     9      180.000000       13.955697         2
         9        10        11        43     9        0.000000       -0.426671         3
         9        10        11        43     9      180.000000        0.169357         4
         9        33        32        12     9        0.000000       -0.136444         1
         9        33        32        12     9      180.000000       18.023334         2
         9        33        32        12     9        0.000000       -1.542470         3
         9        33        32        12     9      180.000000       -0.378657         4
         9        33        32        53     9        0.000000        0.046359         1
         9        33        32        53     9      180.000000       13.955698         2
         9        33        32        53     9        0.000000       -0.426670         3
         9        33        32        53     9      180.000000        0.169357         4
        10         9        33        32     9        0.000000        0.031119         1
        10         9        33        32     9      180.000000       15.486873         2
        10         9        33        32     9        0.000000       -0.879443         3
        10         9        33        32     9      180.000000       -0.111839         4
        10         9        33        54     9        0.000000       -0.049750         1
        10         9        33        54     9      180.000000       12.211821         2
        10         9        33        54     9        0.000000       -0.506907         3
        10         9        33        54     9      180.000000        0.175294         4
        10        11        12        13     9        0.000000        0.064803         1
        10        11        12        13     9      180.000000       16.799440         2
        10        11        12        13     9        0.000000        0.121712         3
        10        11        12        13     9      180.000000       -0.266592         4
        10        11        12        32     9        0.000000        0.076370         1
        10        11        12        32     9      180.000000       16.658229         2
        10        11        12        32     9        0.000000       -1.083584         3
        10        11        12        32     9      180.000000       -0.170148         4
        11        10         9        33     9        0.000000        0.031118         1
        11        10         9        33     9      180.000000       15.486873         2
        11        10         9        33     9        0.000000       -0.879443         3
        11        10         9        33     9      180.000000       -0.111839         4
        11        12        13        14     9        0.000000        0.251131         1
        11        12        13        14     9      180.000000        3.224598         2
        11        12        13        14     9        0.000000       -0.183414         3
        11        12        13        14     9      180.000000        0.443491         4
        11        12        13        44     9        0.000000        0.228457         1
        11        12        13        44     9      180.000000        3.382225         2
        11        12        13        44     9        0.000000        0.164156         3
        11        12        13        44     9      180.000000        0.869142         4
        11        12        32        33     9        0.000000        0.076369         1
        11        12        32        33     9      180.000000       16.658230         2
        11        12        32        33     9        0.000000       -1.083584         3
        11        12        32        33     9      180.000000       -0.170148         4
        11        12        32        53     9        0.000000        0.081437         1
        11        12        32        53     9      180.000000       12.619824         2
        11        12        32        53     9        0.000000       -0.483784         3
        11        12        32        53     9      180.000000        0.187452         4
        12        11        10        42     9        0.000000        0.049126         1
        12        11        10        42     9      180.000000       14.149897         2
        12        11        10        42     9        0.000000       -0.556706         3
        12        11        10        42     9      180.000000        0.165360         4
        12        13        14        15     9        0.000000       -0.158244         1
        12        13        14        15     9      180.000000        6.764795         2
        12        13        14        15     9        0.000000       -0.022379         3
        12        13        14        15     9      180.000000       -0.534140         4
        12        13        14        22     9        0.000000        2.489293         1
        12        13        14        22     9      180.000000        5.665450         2
        12        13        14        22     9        0.000000        0.347850         3
        12        13        14        22     9      180.000000       -0.321951         4
        12        32        33        54     9        0.000000        0.049126         1
        12        32        33        54     9      180.000000       14.149895         2
        12        32        33        54     9        0.000000       -0.556706         3
        12        32        33        54     9      180.000000        0.165360         4
        13        12        11        43     9        0.000000       -0.105182         1
        13        12        11        43     9      180.000000       14.172029         2
        13        12        11        43     9        0.000000       -0.013037         3
        13        12        11        43     9      180.000000        0.096238         4
        13        12        32        33     9        0.000000        0.064803         1
        13        12        32        33     9      180.000000       16.799440         2
        13        12        32        33     9        0.000000        0.121712         3
        13        12        32        33     9      180.000000       -0.266592         4
        13        12        32        53     9        0.000000       -0.105181         1
        13        12        32        53     9      180.000000       14.172028         2
        13        12        32        53     9        0.000000       -0.013037         3
        13        12        32        53     9      180.000000        0.096238         4
        13        14        15        16     9        0.000000        1.943371         1
        13        14        15        16     9      180.000000       24.477186         2
        13        14        15        16     9        0.000000        0.699624         3
        13        14        15        16     9      180.000000       -1.007331         4
        13        14        22        18     9        0.000000        0.517582         1
        13        14        22        18     9      180.000000       12.000454         2
        13        14        22        18     9        0.000000        0.165513         3
        13        14        22        18     9      180.000000       -0.596021         4
        13        14        22        21     9        0.000000       -0.373541         1
        13        14        22        21     9      180.000000       10.813194         2
        13        14        22        21     9        0.000000       -0.126761         3
        13        14        22        21     9      180.000000       -0.468506         4
        14        13        12        32     9        0.000000        0.251129         1
        14        13        12        32     9      180.000000        3.224599         2
        14        13        12        32     9        0.000000       -0.183414         3
        14        13        12        32     9      180.000000        0.443491         4
        14        15        16        17     9        0.000000        1.012028         1
        14        15        16        17     9      180.000000       13.620728         2
        14        15        16        17     9        0.000000       -0.226826         3
        14        15        16        17     9      180.000000       -0.061795         4
        14        15        16        23     9        0.000000        1.551272         1
        14        15        16        23     9      180.000000       18.137816         2
        14        15        16        23     9        0.000000        0.656586         3
        14        15        16        23     9      180.000000       -1.048878         4
        14        22        18        17     9        0.000000        0.337947         1
        14        22        18        17     9      180.000000        5.781634         2
        14        22        18        17     9        0.000000       -0.134535         3
        14        22        18        17     9      180.000000        0.122361         4
        14        22        18        19     9        0.000000       -0.529939         1
        14        22        18        19     9      180.000000        7.254573         2
        14        22        18        19     9        0.000000       -2.285934         3
        14        22        18        19     9      180.000000        0.374903         4
        14        22        21        20     9        0.000000        1.546001         1
        14        22        21        20     9      180.000000       16.470755         2
        14        22        21        20     9        0.000000       -0.373495         3
        14        22        21        20     9      180.000000        0.010417         4
        15        14        13        44     9        0.000000       11.436749         1
        15        14        13        44     9      180.000000        6.771778         2
        15        14        13        44     9        0.000000       -0.402793         3
        15        14        13        44     9      180.000000        0.118547         4
        15        14        22        18     9        0.000000       -0.070283         1
        15        14        22        18     9      180.000000        9.274434         2
        15        14        22        18     9        0.000000       -0.539211         3
        15        14        22        18     9      180.000000       -0.339003         4
        15        14        22        21     9        0.000000       -1.871942         1
        15        14        22        21     9      180.000000        6.551413         2
        15        14        22        21     9        0.000000       -0.111201         3
        15        14        22        21     9      180.000000       -0.440309         4
        15        16        17        18     9        0.000000       -0.615167         1
        15        16        17        18     9      180.000000       29.692546         2
        15        16        17        18     9        0.000000       -1.048838         3
        15        16        17        18     9      180.000000       -1.730461         4
        15        16        17        45     9        0.000000        0.287259         1
        15        16        17        45     9      180.000000       17.653570         2
        15        16        17        45     9        0.000000        0.213044         3
        15        16        17        45     9      180.000000       -0.531463         4
        15        16        23        24     9        0.000000       -0.478480         1
        15        16        23        24     9      180.000000        4.213459         2
        15        16        23        24     9        0.000000        0.158819         3
        15        16        23        24     9      180.000000        0.023849         4
        15        16        23        31     9        0.000000       -0.249697         1
        15        16        23        31     9      180.000000        4.070625         2
        15        16        23        31     9        0.000000       -0.122232         3
        15        16        23        31     9      180.000000        0.044803         4
        16        15        14        22     9        0.000000        0.893690         1
        16        15        14        22     9      180.000000       22.117335         2
        16        15        14        22     9        0.000000        0.584990         3
        16        15        14        22     9      180.000000       -0.568744         4
        16        17        18        19     9        0.000000        0.496724         1
        16        17        18        19     9      180.000000        4.951623         2
        16        17        18        19     9        0.000000        0.249348         3
        16        17        18        19     9      180.000000        0.108870         4
        16        17        18        22     9        0.000000       -0.634424         1
        16        17        18        22     9      180.000000        9.291540         2
        16        17        18        22     9        0.000000       -1.054575         3
        16        17        18        22     9      180.000000       -0.058807         4
        16        23        24        25     9        0.000000        0.236000         1
        16        23        24        25     9      180.000000       14.368995         2
        16        23        24        25     9        0.000000       -0.147065         3
        16        23        24        25     9      180.000000       -0.199062         4
        16        23        24        48     9        0.000000       -0.132256         1
        16        23        24        48     9      180.000000       12.075877         2
        16        23        24        48     9        0.000000       -0.206751         3
        16        23        24        48     9      180.000000        0.138572         4
        16        23        31        30     9        0.000000        0.253657         1
        16        23        31        30     9      180.000000       18.931391         2
        16        23        31        30     9        0.000000        0.007612         3
        16        23        31        30     9      180.000000       -0.761701         4
        16        23        31        52     9        0.000000       -0.016970         1
        16        23        31        52     9      180.000000       12.777234         2
        16        23        31        52     9        0.000000       -0.099454         3
        16        23        31        52     9      180.000000        0.149938         4
        17        16        23        24     9        0.000000       -0.325306         1
        17        16        23        24     9      180.000000        3.533701         2
        17        16        23        24     9        0.000000       -0.028931         3
        17        16        23        24     9      180.000000       -0.107973         4
        17        16        23        31     9        0.000000       -0.318428         1
        17        16        23        31     9      180.000000        3.394260         2
        17        16        23        31     9        0.000000        0.363761         3
        17        16        23        31     9      180.000000       -0.261941         4
        17        18        19        20     9        0.000000        0.967452         1
        17        18        19        20     9      180.000000        5.219958         2
        17        18        19        20     9        0.000000        0.738494         3
        17        18        19        20     9      180.000000       -0.038282         4
        17        18        19        46     9        0.000000        0.151014         1
        17        18        19        46     9      180.000000        3.680096         2
        17        18        19        46     9        0.000000        0.373012         3
        17        18        19        46     9      180.000000        0.067587         4
        17        18        22        21     9        0.000000        0.545807         1
        17        18        22        21     9      180.000000        7.748301         2
        17        18        22        21     9        0.000000       -0.729831         3
        17        18        22        21     9      180.000000        0.136710         4
        18        17        16        23     9        0.000000        0.167931         1
        18        17        16        23     9      180.000000       26.604066         2
        18        17        16        23     9        0.000000        0.428746         3
        18        17        16        23     9      180.000000       -1.876920         4
        18        19        20        21     9        0.000000       -0.258793         1
        18        19        20        21     9      180.000000       36.323027         2
        18        19        20        21     9        0.000000       -7.442937         3
        18        19        20        21     9      180.000000       -0.839992         4
        18        19        20        47     9        0.000000        0.279818         1
        18        19        20        47     9      180.000000       18.770131         2
        18        19        20        47     9        0.000000       -0.507968         3
        18        19        20        47     9      180.000000       -0.564047         4
        18        22        21        20     9        0.000000       -0.172777         1
        18        22        21        20     9      180.000000       37.627789         2
        18        22        21        20     9        0.000000       -7.120096         3
        18        22        21        20     9      180.000000        0.116816         4
        19        18        17        45     9        0.000000       -0.200405         1
        19        18        17        45     9      180.000000        3.566462         2
        19        18        17        45     9        0.000000        0.306552         3
        19        18        17        45     9      180.000000        0.065874         4
        19        18        22        21     9        0.000000        0.131710         1
        19        18        22        21     9      180.000000       15.566772         2
        19        18        22        21     9        0.000000       -7.866552         3
        19        18        22        21     9      180.000000        0.257373         4
        19        20        21        22     9        0.000000       -0.255849         1
        19        20        21        22     9      180.000000       31.025341         2
        19        20        21        22     9        0.000000       -4.653101         3
        19        20        21        22     9      180.000000        0.341646         4
        20        19        18        22     9        0.000000        0.086044         1
        20        19        18        22     9      180.000000       25.283693         2
        20        19        18        22     9        0.000000       -9.272059         3
        20        19        18        22     9      180.000000        0.296509         4
        21        20        19        46     9        0.000000        0.292780         1
        21        20        19        46     9      180.000000       15.681650         2
        21        20        19        46     9        0.000000       -0.422047         3
        21        20        19        46     9      180.000000       -0.479005         4
        22        14        13        44     9        0.000000        2.941475         1
        22        14        13        44     9      180.000000        7.228743         2
        22        14        13        44     9        0.000000       -0.167485         3
        22        14        13        44     9      180.000000        0.477374         4
        22        18        17        45     9        0.000000        0.590660         1
        22        18        17        45     9      180.000000        4.595215         2
        22        18        17        45     9        0.000000        0.398248         3
        22        18        17        45     9      180.000000        0.099105         4
        22        18        19        46     9        0.000000        1.026521         1
        22        18        19        46     9      180.000000        6.099844         2
        22        18        19        46     9        0.000000        0.349087         3
        22        18        19        46     9      180.000000        0.232410         4
        22        21        20        47     9        0.000000        2.009586         1
        22        21        20        47     9      180.000000       22.682232         2
        22        21        20        47     9        0.000000        0.566971         3
        22        21        20        47     9      180.000000       -0.265561         4
        23        16        17        45     9        0.000000       -0.096732         1
        23        16        17        45     9      180.000000       14.902793         2
        23        16        17        45     9        0.000000        0.326008         3
        23        16        17        45     9      180.000000       -0.006970         4
        23        24        25        26     9        0.000000       -0.107889         1
        23        24        25        26     9      180.000000       21.232215         2
        23        24        25        26     9        0.000000       -1.587275         3
        23        24        25        26     9      180.000000       -0.422021         4
        23        24        25        49     9        0.000000       -0.009248         1
        23        24        25        49     9      180.000000       15.753535         2
        23        24        25        49     9        0.000000       -0.469098         3
        23        24        25        49     9      180.000000        0.063646         4
        23        31        30        26     9        0.000000       -0.066774         1
        23        31        30        26     9      180.000000       16.902019         2
        23        31        30        26     9        0.000000       -1.560631         3
        23        31        30        26     9      180.000000       -0.377307         4
        23        31        30        29     9        0.000000        0.254192         1
        23        31        30        29     9      180.000000       14.622403         2
        23        31        30        29     9        0.000000       -0.237802         3
        23        31        30        29     9      180.000000       -0.298818         4
        24        23        31        30     9        0.000000       -0.244727         1
        24        23        31        30     9      180.000000       20.621677         2
        24        23        31        30     9        0.000000       -1.717587         3
        24        23        31        30     9      180.000000       -0.461429         4
        24        23        31        52     9        0.000000       -0.015047         1
        24        23        31        52     9      180.000000       14.201647         2
        24        23        31        52     9        0.000000       -0.489871         3
        24        23        31        52     9      180.000000        0.066589         4
        24        25        26        27     9        0.000000        0.139640         1
        24        25        26        27     9      180.000000       11.636698         2
        24        25        26        27     9        0.000000       -0.542128         3
        24        25        26        27     9      180.000000       -0.119475         4
        24        25        26        30     9        0.000000        0.040250         1
        24        25        26        30     9      180.000000       19.441381         2
        24        25        26        30     9        0.000000       -2.386377         3
        24        25        26        30     9      180.000000       -0.429819         4
        25        24        23        31     9        0.000000       -0.107119         1
        25        24        23        31     9      180.000000       16.592383         2
        25        24        23        31     9        0.000000       -1.318220         3
        25        24        23        31     9      180.000000       -0.279142         4
        25        26        27        28     9        0.000000       -0.220760         1
        25        26        27        28     9      180.000000        4.549868         2
        25        26        27        28     9        0.000000       -0.722273         3
        25        26        27        28     9      180.000000        0.079155         4
        25        26        27        50     9        0.000000       -0.517556         1
        25        26        27        50     9      180.000000        4.883030         2
        25        26        27        50     9        0.000000        0.082458         3
        25        26        27        50     9      180.000000        0.099245         4
        25        26        30        29     9        0.000000        0.408955         1
        25        26        30        29     9      180.000000        9.908660         2
        25        26        30        29     9        0.000000       -1.829778         3
        25        26        30        29     9      180.000000        0.066646         4
        25        26        30        31     9        0.000000       -0.240999         1
        25        26        30        31     9      180.000000        9.774335         2
        25        26        30        31     9        0.000000       -1.540979         3
        25        26        30        31     9      180.000000        0.061509         4
        26        25        24        48     9        0.000000        0.116069         1
        26        25        24        48     9      180.000000       16.925254         2
        26        25        24        48     9        0.000000       -0.405095         3
        26        25        24        48     9      180.000000       -0.044939         4
        26        27        28        29     9        0.000000       -0.284270         1
        26        27        28        29     9      180.000000       41.018080         2
        26        27        28        29     9        0.000000       -4.737092         3
        26        27        28        29     9      180.000000       -0.187157         4
        26        30        29        28     9        0.000000        0.553012         1
        26        30        29        28     9      180.000000       22.995906         2
        26        30        29        28     9        0.000000       -4.944660         3
        26        30        29        28     9      180.000000       -0.958832         4
        26        30        29        51     9        0.000000        0.214201         1
        26        30        29        51     9      180.000000        1.495356         2
        26        30        29        51     9        0.000000        0.443300         3
        26        30        29        51     9      180.000000        0.005189         4
        26        30        31        52     9        0.000000        0.144083         1
        26        30        31        52     9      180.000000       11.714342         2
        26        30        31        52     9        0.000000       -0.120434         3
        26        30        31        52     9      180.000000        0.033214         4
        27        26        25        49     9        0.000000        0.021693         1
        27        26        25        49     9      180.000000        9.433860         2
        27        26        25        49     9        0.000000        0.021702         3
        27        26        25        49     9      180.000000        0.039741         4
        27        26        30        29     9        0.000000        0.361317         1
        27        26        30        29     9      180.000000       16.000806         2
        27        26        30        29     9        0.000000       -5.553572         3
        27        26        30        29     9      180.000000       -0.093661         4
        27        26        30        31     9        0.000000       -0.036103         1
        27        26        30        31     9      180.000000        9.290578         2
        27        26        30        31     9        0.000000       -1.652287         3
        27        26        30        31     9      180.000000        0.165067         4
        27        28        29        30     9        0.000000       -0.046164         1
        27        28        29        30     9      180.000000       18.138354         2
        27        28        29        30     9        0.000000       -2.785128         3
        27        28        29        30     9      180.000000       -0.764410         4
        27        28        29        51     9        0.000000        1.177741         1
        27        28        29        51     9      180.000000        3.861927         2
        27        28        29        51     9        0.000000        0.442983         3
        27        28        29        51     9      180.000000        0.067653         4
        28        27        26        30     9        0.000000       -0.126812         1
        28        27        26        30     9      180.000000       30.398344         2
        28        27        26        30     9        0.000000       -9.789498         3
        28        27        26        30     9      180.000000       -0.317035         4
        28        29        30        31     9        0.000000        1.093301         1
        28        29        30        31     9      180.000000        4.724150         2
        28        29        30        31     9        0.000000        0.395240         3
        28        29        30        31     9      180.000000       -0.001503         4
        29        28        27        50     9        0.000000        1.701933         1
        29        28        27        50     9      180.000000       28.876374         2
        29        28        27        50     9        0.000000        0.495705         3
        29        28        27        50     9      180.000000       -0.175253         4
        29        30        31        52     9        0.000000       -0.014433         1
        29        30        31        52     9      180.000000       10.806740         2
        29        30        31        52     9        0.000000       -0.063952         3
        29        30        31        52     9      180.000000        0.069026         4
        30        26        25        49     9        0.000000        0.207944         1
        30        26        25        49     9      180.000000       14.058516         2
        30        26        25        49     9        0.000000       -0.421088         3
        30        26        25        49     9      180.000000       -0.172162         4
        30        26        27        50     9        0.000000        0.975082         1
        30        26        27        50     9      180.000000       13.204561         2
        30        26        27        50     9        0.000000        0.283179         3
        30        26        27        50     9      180.000000       -0.304877         4
        31        23        24        48     9        0.000000       -0.083817         1
        31        23        24        48     9      180.000000       12.802174         2
        31        23        24        48     9        0.000000       -0.655207         3
        31        23        24        48     9      180.000000        0.081735         4
        31        30        29        51     9        0.000000       -0.487769         1
        31        30        29        51     9      180.000000        1.252037         2
        31        30        29        51     9        0.000000       -0.071214         3
        31        30        29        51     9      180.000000       -0.079567         4
        32        12        11        43     9        0.000000        0.081438         1
        32        12        11        43     9      180.000000       12.619824         2
        32        12        11        43     9        0.000000       -0.483784         3
        32        12        11        43     9      180.000000        0.187452         4
        32        12        13        44     9        0.000000        0.228458         1
        32        12        13        44     9      180.000000        3.382225         2
        32        12        13        44     9        0.000000        0.164156         3
        32        12        13        44     9      180.000000        0.869141         4
        33         9        10        42     9        0.000000       -0.049750         1
        33         9        10        42     9      180.000000       12.211820         2
        33         9        10        42     9        0.000000       -0.506908         3
        33         9        10        42     9      180.000000        0.175295         4
        34         4         5        36     9        0.000000       -0.044579         1
        34         4         5        36     9      180.000000        0.030290         2
        34         4         5        36     9        0.000000        0.259247         3
        34         4         5        36     9      180.000000       -0.000764         4
        34         4         5        37     9        0.000000       -0.044579         1
        34         4         5        37     9      180.000000        0.030290         2
        34         4         5        37     9        0.000000        0.259247         3
        34         4         5        37     9      180.000000       -0.000764         4
        35         4         5        36     9        0.000000       -0.044579         1
        35         4         5        36     9      180.000000        0.030290         2
        35         4         5        36     9        0.000000        0.259247         3
        35         4         5        36     9      180.000000       -0.000764         4
        35         4         5        37     9        0.000000       -0.044579         1
        35         4         5        37     9      180.000000        0.030290         2
        35         4         5        37     9        0.000000        0.259247         3
        35         4         5        37     9      180.000000       -0.000764         4
        38         7         8        40     9        0.000000       -0.044579         1
        38         7         8        40     9      180.000000        0.030290         2
        38         7         8        40     9        0.000000        0.259247         3
        38         7         8        40     9      180.000000       -0.000764         4
        38         7         8        41     9        0.000000       -0.044579         1
        38         7         8        41     9      180.000000        0.030290         2
        38         7         8        41     9        0.000000        0.259247         3
        38         7         8        41     9      180.000000       -0.000764         4
        39         7         8        40     9        0.000000       -0.044579         1
        39         7         8        40     9      180.000000        0.030290         2
        39         7         8        40     9        0.000000        0.259247         3
        39         7         8        40     9      180.000000       -0.000764         4
        39         7         8        41     9        0.000000       -0.044579         1
        39         7         8        41     9      180.000000        0.030290         2
        39         7         8        41     9        0.000000        0.259247         3
        39         7         8        41     9      180.000000       -0.000764         4
        42        10        11        43     9        0.000000       -0.187743         1
        42        10        11        43     9      180.000000       12.047895         2
        42        10        11        43     9        0.000000       -0.696730         3
        42        10        11        43     9      180.000000        0.296095         4
        46        19        20        47     9        0.000000       -0.357707         1
        46        19        20        47     9      180.000000        9.061504         2
        46        19        20        47     9        0.000000       -0.277917         3
        46        19        20        47     9      180.000000        0.193706         4
        48        24        25        49     9        0.000000       -0.091146         1
        48        24        25        49     9      180.000000       12.794649         2
        48        24        25        49     9        0.000000       -0.693019         3
        48        24        25        49     9      180.000000        0.301122         4
        53        32        33        54     9        0.000000       -0.187742         1
        53        32        33        54     9      180.000000       12.047895         2
        53        32        33        54     9        0.000000       -0.696730         3
        53        32        33        54     9      180.000000        0.296095         4

[ pairs ]
;       ai        aj funct
         1         5     1
         1         7     1
         1        34     1
         1        35     1
         1        40     1
         1        41     1
         2         6     1
         2        36     1
         2        37     1
         2        38     1
         2        39     1
         3         5     1
         3         7     1
         3        34     1
         3        35     1
         3        40     1
         3        41     1
         4         7     1
         4         9     1
         4        40     1
         4        41     1
         5         8     1
         5        10     1
         5        33     1
         5        38     1
         5        39     1
         6        11     1
         6        32     1
         6        34     1
         6        35     1
         6        40     1
         6        41     1
         6        42     1
         6        54     1
         7        10     1
         7        33     1
         7        36     1
         7        37     1
         8         9     1
         8        34     1
         8        35     1
         9        12     1
         9        36     1
         9        37     1
         9        38     1
         9        39     1
         9        43     1
         9        53     1
        10        13     1
        10        32     1
        10        54     1
        11        14     1
        11        33     1
        11        44     1
        11        53     1
        12        15     1
        12        22     1
        12        42     1
        12        54     1
        13        16     1
        13        18     1
        13        21     1
        13        33     1
        13        43     1
        13        53     1
        14        17     1
        14        19     1
        14        20     1
        14        23     1
        14        32     1
        15        18     1
        15        21     1
        15        24     1
        15        31     1
        15        44     1
        15        45     1
        16        19     1
        16        22     1
        16        25     1
        16        30     1
        16        48     1
        16        52     1
        17        20     1
        17        21     1
        17        24     1
        17        31     1
        17        46     1
        18        23     1
        18        47     1
        19        45     1
        21        46     1
        22        44     1
        22        45     1
        22        46     1
        22        47     1
        23        26     1
        23        29     1
        23        45     1
        23        49     1
        24        27     1
        24        30     1
        24        52     1
        25        28     1
        25        29     1
        25        31     1
        25        50     1
        26        48     1
        26        51     1
        26        52     1
        27        31     1
        27        49     1
        27        51     1
        28        31     1
        29        50     1
        29        52     1
        30        49     1
        30        50     1
        31        48     1
        31        51     1
        32        43     1
        32        44     1
        33        42     1
        34        36     1
        34        37     1
        35        36     1
        35        37     1
        38        40     1
        38        41     1
        39        40     1
        39        41     1
        42        43     1
        46        47     1
        48        49     1
        53        54     1
