; ITP file created by ByteFF-ML, 2026-02-21 07:50:14.745239

[ atomtypes ]
;name           bonded.type        at.num        mass        charge   ptype           sigma         epsilon
 c0bf                                   6      0.0000       0.00000       A     3.39799e-01     4.50095e-01
 o1bf                                   8      0.0000       0.00000       A     3.15802e-01     3.03422e-01
 c2bf                                   6      0.0000       0.00000       A     3.31494e-01     4.13273e-01
 c3bf                                   6      0.0000       0.00000       A     3.31460e-01     4.13344e-01
 c4bf                                   6      0.0000       0.00000       A     3.31371e-01     4.12570e-01
 c5bf                                   6      0.0000       0.00000       A     3.31310e-01     4.12073e-01
 n6bf                                   7      0.0000       0.00000       A     3.27838e-01     6.48901e-01
 c7bf                                   6      0.0000       0.00000       A     3.31293e-01     4.14462e-01
 n8bf                                   7      0.0000       0.00000       A     3.38681e-01     3.94196e-01
 c9bf                                   6      0.0000       0.00000       A     3.31483e-01     4.10563e-01
 c10bf                                  6      0.0000       0.00000       A     3.31502e-01     4.12996e-01
 n11bf                                  7      0.0000       0.00000       A     3.20544e-01     8.50304e-01
 c12bf                                  6      0.0000       0.00000       A     3.31513e-01     4.11963e-01
 c13bf                                  6      0.0000       0.00000       A     3.31488e-01     4.12482e-01
 n14bf                                  7      0.0000       0.00000       A     3.38571e-01     3.94678e-01
 c15bf                                  6      0.0000       0.00000       A     3.31524e-01     4.13157e-01
 c16bf                                  6      0.0000       0.00000       A     3.31348e-01     4.13676e-01
 c17bf                                  6      0.0000       0.00000       A     3.31472e-01     4.13186e-01
 c18bf                                  6      0.0000       0.00000       A     3.31452e-01     4.13106e-01
 c19bf                                  6      0.0000       0.00000       A     3.31434e-01     4.13789e-01
 c20bf                                  6      0.0000       0.00000       A     3.31452e-01     4.13106e-01
 c21bf                                  6      0.0000       0.00000       A     3.31472e-01     4.13186e-01
 c22bf                                  6      0.0000       0.00000       A     3.31590e-01     4.11240e-01
 o23bf                                  8      0.0000       0.00000       A     3.04728e-01     6.10490e-01
 n24bf                                  7      0.0000       0.00000       A     3.35960e-01     3.52979e-01
 c25bf                                  6      0.0000       0.00000       A     3.31426e-01     4.12512e-01
 c26bf                                  6      0.0000       0.00000       A     3.31334e-01     4.12096e-01
 o27bf                                  8      0.0000       0.00000       A     3.15839e-01     3.04251e-01
 c28bf                                  6      0.0000       0.00000       A     3.39799e-01     4.50095e-01
 h29bf                                  1      0.0000       0.00000       A     2.42080e-01     8.75859e-02
 h30bf                                  1      0.0000       0.00000       A     2.42080e-01     8.75859e-02
 h31bf                                  1      0.0000       0.00000       A     2.42080e-01     8.75859e-02
 h32bf                                  1      0.0000       0.00000       A     2.62545e-01     6.69663e-02
 h33bf                                  1      0.0000       0.00000       A     2.62478e-01     6.76031e-02
 h34bf                                  1      0.0000       0.00000       A     1.10437e-01     4.36637e-02
 h35bf                                  1      0.0000       0.00000       A     2.53936e-01     6.71690e-02
 h36bf                                  1      0.0000       0.00000       A     2.54157e-01     6.73717e-02
 h37bf                                  1      0.0000       0.00000       A     2.53844e-01     6.71387e-02
 h38bf                                  1      0.0000       0.00000       A     2.62541e-01     6.75089e-02
 h39bf                                  1      0.0000       0.00000       A     2.62477e-01     6.70876e-02
 h40bf                                  1      0.0000       0.00000       A     2.62477e-01     6.70876e-02
 h41bf                                  1      0.0000       0.00000       A     2.62541e-01     6.75089e-02
 h42bf                                  1      0.0000       0.00000       A     1.10424e-01     4.11499e-02
 h43bf                                  1      0.0000       0.00000       A     1.10424e-01     4.11499e-02
 h44bf                                  1      0.0000       0.00000       A     2.62385e-01     6.71291e-02
 h45bf                                  1      0.0000       0.00000       A     2.42080e-01     8.75859e-02
 h46bf                                  1      0.0000       0.00000       A     2.42080e-01     8.75859e-02
 h47bf                                  1      0.0000       0.00000       A     2.42080e-01     8.75859e-02

[ moleculetype ]
;name             nrexcl
 CHEMBL3259820         3

[ atoms ]
;       nr            type      resi   res      atom      cgnr      charge          mass ; qtot
         1            c0bf         1   UNL        c0         1     0.14145       12.0110 ; qtot    0.141
         2            o1bf         1   UNL        o1         2    -0.33647       15.9990 ; qtot   -0.195
         3            c2bf         1   UNL        c2         3     0.08002       12.0110 ; qtot   -0.115
         4            c3bf         1   UNL        c3         4    -0.13937       12.0110 ; qtot   -0.254
         5            c4bf         1   UNL        c4         5    -0.13475       12.0110 ; qtot   -0.389
         6            c5bf         1   UNL        c5         6     0.30239       12.0110 ; qtot   -0.087
         7            n6bf         1   UNL        n6         7    -0.91203       14.0070 ; qtot   -0.999
         8            c7bf         1   UNL        c7         8     0.67905       12.0110 ; qtot   -0.320
         9            n8bf         1   UNL        n8         9    -0.75789       14.0070 ; qtot   -1.078
        10            c9bf         1   UNL        c9        10     0.38656       12.0110 ; qtot   -0.691
        11           c10bf         1   UNL       c10        11    -0.18203       12.0110 ; qtot   -0.873
        12           n11bf         1   UNL       n11        12     0.16114       14.0070 ; qtot   -0.712
        13           c12bf         1   UNL       c12        13    -0.26112       12.0110 ; qtot   -0.973
        14           c13bf         1   UNL       c13        14    -0.04248       12.0110 ; qtot   -1.016
        15           n14bf         1   UNL       n14        15    -0.27126       14.0070 ; qtot   -1.287
        16           c15bf         1   UNL       c15        16    -0.16948       12.0110 ; qtot   -1.456
        17           c16bf         1   UNL       c16        17    -0.10348       12.0110 ; qtot   -1.560
        18           c17bf         1   UNL       c17        18    -0.09321       12.0110 ; qtot   -1.653
        19           c18bf         1   UNL       c18        19    -0.07440       12.0110 ; qtot   -1.727
        20           c19bf         1   UNL       c19        20    -0.14607       12.0110 ; qtot   -1.873
        21           c20bf         1   UNL       c20        21    -0.07440       12.0110 ; qtot   -1.948
        22           c21bf         1   UNL       c21        22    -0.09321       12.0110 ; qtot   -2.041
        23           c22bf         1   UNL       c22        23     0.60080       12.0110 ; qtot   -1.440
        24           o23bf         1   UNL       o23        24    -0.59390       15.9990 ; qtot   -2.034
        25           n24bf         1   UNL       n24        25    -0.58705       14.0070 ; qtot   -2.621
        26           c25bf         1   UNL       c25        26    -0.18949       12.0110 ; qtot   -2.811
        27           c26bf         1   UNL       c26        27     0.11411       12.0110 ; qtot   -2.697
        28           o27bf         1   UNL       o27        28    -0.33842       15.9990 ; qtot   -3.035
        29           c28bf         1   UNL       c28        29     0.14175       12.0110 ; qtot   -2.893
        30           h29bf         1   UNL       h29        30     0.04404        1.0080 ; qtot   -2.849
        31           h30bf         1   UNL       h30        31     0.04404        1.0080 ; qtot   -2.805
        32           h31bf         1   UNL       h31        32     0.04404        1.0080 ; qtot   -2.761
        33           h32bf         1   UNL       h32        33     0.12393        1.0080 ; qtot   -2.637
        34           h33bf         1   UNL       h33        34     0.13132        1.0080 ; qtot   -2.506
        35           h34bf         1   UNL       h34        35     0.50588        1.0080 ; qtot   -2.000
        36           h35bf         1   UNL       h35        36     0.15431        1.0080 ; qtot   -1.846
        37           h36bf         1   UNL       h36        37     0.22767        1.0080 ; qtot   -1.618
        38           h37bf         1   UNL       h37        38     0.22246        1.0080 ; qtot   -1.396
        39           h38bf         1   UNL       h38        39     0.12926        1.0080 ; qtot   -1.266
        40           h39bf         1   UNL       h39        40     0.13170        1.0080 ; qtot   -1.135
        41           h40bf         1   UNL       h40        41     0.13170        1.0080 ; qtot   -1.003
        42           h41bf         1   UNL       h41        42     0.12926        1.0080 ; qtot   -0.874
        43           h42bf         1   UNL       h42        43     0.30469        1.0080 ; qtot   -0.569
        44           h43bf         1   UNL       h43        44     0.30469        1.0080 ; qtot   -0.264
        45           h44bf         1   UNL       h44        45     0.13212        1.0080 ; qtot   -0.132
        46           h45bf         1   UNL       h45        46     0.04404        1.0080 ; qtot   -0.088
        47           h46bf         1   UNL       h46        47     0.04404        1.0080 ; qtot   -0.044
        48           h47bf         1   UNL       h47        48     0.04405        1.0080 ; qtot   -0.000

[ bonds ]
;       ai        aj funct               r               k
         1         2     1        0.142750   205228.507056
         1        30     1        0.109386   299034.366748
         1        31     1        0.109386   299034.366748
         1        32     1        0.109386   299034.366748
         2         3     1        0.137015   270782.100830
         3         4     1        0.139488   304008.331689
         3        27     1        0.141529   250914.434033
         4         5     1        0.140005   315466.551758
         4        33     1        0.108446   322299.133057
         5         6     1        0.140061   293503.054395
         5        34     1        0.108414   324178.051416
         6         7     1        0.141092   252182.734570
         6        26     1        0.140674   282765.542627
         7         8     1        0.136729   311607.817920
         7        35     1        0.101302   413497.768799
         8         9     1        0.132079   353344.852295
         8        16     1        0.143870   235848.075781
         9        10     1        0.137728   242879.412402
        10        11     1        0.137546   346195.636377
        10        17     1        0.148277   209164.248047
        11        12     1        0.137841   276178.679395
        11        36     1        0.108180   332005.354199
        12        13     1        0.137750   263209.071045
        12        16     1        0.138998   204565.857373
        13        14     1        0.138746   337814.101709
        13        37     1        0.107915   345078.311230
        14        15     1        0.136744   275913.425439
        14        38     1        0.108260   332273.212939
        15        16     1        0.133378   321390.292871
        17        18     1        0.140548   286263.896777
        17        22     1        0.140548   286263.896777
        18        19     1        0.139283   327332.880371
        18        39     1        0.108494   322012.938672
        19        20     1        0.140322   292367.470215
        19        40     1        0.108527   321877.872900
        20        21     1        0.140322   292367.470215
        20        23     1        0.150058   177839.944482
        21        22     1        0.139283   327332.880371
        21        41     1        0.108527   321877.872900
        22        42     1        0.108494   322012.989746
        23        24     1        0.123065   606626.474219
        23        25     1        0.138115   286357.924414
        25        43     1        0.101232   423823.954346
        25        44     1        0.101232   423823.954346
        26        27     1        0.139409   309212.462598
        26        45     1        0.108244   326136.952002
        27        28     1        0.136800   272579.862256
        28        29     1        0.142754   205101.357788
        29        46     1        0.109386   299034.341211
        29        47     1        0.109386   299034.341211
        29        48     1        0.109386   299034.341211

[ angles ]
;       ai        aj        ak funct           theta             cth
         1         2         3     1      117.082443      547.136590
         2         1        30     1      109.406631      448.806110
         2         1        31     1      109.406631      448.806110
         2         1        32     1      109.406631      448.806110
         2         3         4     1      124.061974      526.185244
         2         3        27     1      116.730186      403.093057
         3         4         5     1      121.105545      730.301061
         3         4        33     1      119.820435      430.270000
         3        27        26     1      119.959702      641.355245
         3        27        28     1      116.770729      382.344602
         4         3        27     1      118.961632      615.309053
         4         5         6     1      119.989258      692.295585
         4         5        34     1      119.981018      402.478985
         5         4        33     1      119.168861      430.731806
         5         6         7     1      121.161964      571.797075
         5         6        26     1      119.274185      562.540766
         6         5        34     1      119.993568      438.163871
         6         7         8     1      130.908600      390.906748
         6         7        35     1      115.466995      445.927919
         6        26        27     1      120.440468      771.725955
         6        26        45     1      119.557449      428.763885
         7         6        26     1      119.328491      531.273672
         7         8         9     1      121.356186      603.895561
         7         8        16     1      116.105576      347.689596
         8         7        35     1      112.198647      485.186500
         8         9        10     1      119.747879      661.546352
         8        16        12     1      117.476013      691.884693
         8        16        15     1      131.168365      328.267219
         9         8        16     1      121.162231      641.675161
         9        10        11     1      122.040604      386.548362
         9        10        17     1      116.201683      496.539979
        10        11        12     1      118.153481      872.837075
        10        11        36     1      124.901466      345.320805
        10        17        18     1      120.916733      542.518332
        10        17        22     1      120.916733      542.518332
        11        10        17     1      121.394699      452.937089
        11        12        13     1      132.322876      451.336998
        11        12        16     1      121.408890      768.949816
        12        11        36     1      117.425148      489.799204
        12        13        14     1      105.222717      375.667031
        12        13        37     1      122.391075      461.871917
        12        16        15     1      111.412987      167.360000
        13        12        16     1      106.439148      167.360000
        13        14        15     1      111.710022      296.607652
        13        14        38     1      126.932030      353.254706
        14        13        37     1      132.665771      296.979121
        14        15        16     1      105.148094      501.387338
        15        14        38     1      121.224686      373.698758
        17        18        19     1      120.798721      702.241396
        17        18        39     1      119.589966      427.031862
        17        22        21     1      120.798721      702.241396
        17        22        42     1      119.589966      427.031862
        18        17        22     1      118.470375      572.988062
        18        19        20     1      120.503922      683.975850
        18        19        40     1      119.791016      421.626614
        19        18        39     1      119.693771      423.414818
        19        20        21     1      118.902122      586.993570
        19        20        23     1      120.499100      561.788954
        20        19        40     1      119.778847      414.120268
        20        21        22     1      120.503922      683.975850
        20        21        41     1      119.778847      414.120268
        20        23        24     1      122.061279      579.741286
        20        23        25     1      116.073463      539.363797
        21        20        23     1      120.499100      561.788954
        21        22        42     1      119.693787      423.414818
        22        21        41     1      119.791031      421.626678
        23        25        43     1      117.061279      451.215760
        23        25        44     1      117.061279      451.215760
        24        23        25     1      121.305786      672.252657
        26        27        28     1      123.114540      463.233875
        27        26        45     1      120.054489      415.811750
        27        28        29     1      117.278854      548.766496
        28        29        46     1      109.407082      448.359562
        28        29        47     1      109.407082      448.359562
        28        29        48     1      109.407082      448.359562
        30         1        31     1      109.654236      343.283135
        30         1        32     1      109.654236      343.283135
        31         1        32     1      109.654236      343.283135
        43        25        44     1      116.238693      328.465196
        46        29        47     1      109.654236      343.283167
        46        29        48     1      109.654236      343.283167
        47        29        48     1      109.654221      343.283167

[ dihedrals ] ; propers for gromacs 4.5 or higher, use funct 9
;       ai        aj        ak        al funct           phase               k        pn
         1         2         3         4     9        0.000000       -0.020471         1
         1         2         3         4     9      180.000000        4.264586         2
         1         2         3         4     9        0.000000       -0.661221         3
         1         2         3         4     9      180.000000        0.423658         4
         1         2         3        27     9        0.000000        0.687110         1
         1         2         3        27     9      180.000000        3.031873         2
         1         2         3        27     9        0.000000        1.138396         3
         1         2         3        27     9      180.000000        0.057396         4
         2         3         4         5     9        0.000000        0.412383         1
         2         3         4         5     9      180.000000       18.405153         2
         2         3         4         5     9        0.000000        0.286762         3
         2         3         4         5     9      180.000000       -0.248269         4
         2         3         4        33     9        0.000000        0.002515         1
         2         3         4        33     9      180.000000       13.550908         2
         2         3         4        33     9        0.000000       -0.035816         3
         2         3         4        33     9      180.000000        0.307724         4
         2         3        27        26     9        0.000000        0.190228         1
         2         3        27        26     9      180.000000       12.913656         2
         2         3        27        26     9        0.000000       -0.036672         3
         2         3        27        26     9      180.000000        0.087435         4
         2         3        27        28     9        0.000000       -0.231151         1
         2         3        27        28     9      180.000000       16.200532         2
         2         3        27        28     9        0.000000       -0.225092         3
         2         3        27        28     9      180.000000       -0.129585         4
         3         2         1        30     9        0.000000       -0.002785         1
         3         2         1        30     9      180.000000       -0.013204         2
         3         2         1        30     9        0.000000        0.475747         3
         3         2         1        30     9      180.000000       -0.002909         4
         3         2         1        31     9        0.000000       -0.002785         1
         3         2         1        31     9      180.000000       -0.013204         2
         3         2         1        31     9        0.000000        0.475747         3
         3         2         1        31     9      180.000000       -0.002909         4
         3         2         1        32     9        0.000000       -0.002785         1
         3         2         1        32     9      180.000000       -0.013204         2
         3         2         1        32     9        0.000000        0.475747         3
         3         2         1        32     9      180.000000       -0.002909         4
         3         4         5         6     9        0.000000       -0.173495         1
         3         4         5         6     9      180.000000       17.663552         2
         3         4         5         6     9        0.000000       -1.660356         3
         3         4         5         6     9      180.000000       -0.412935         4
         3         4         5        34     9        0.000000        0.149237         1
         3         4         5        34     9      180.000000       14.141559         2
         3         4         5        34     9        0.000000       -0.494779         3
         3         4         5        34     9      180.000000        0.094379         4
         3        27        26         6     9        0.000000       -0.132619         1
         3        27        26         6     9      180.000000       16.584041         2
         3        27        26         6     9        0.000000       -1.316973         3
         3        27        26         6     9      180.000000       -0.328534         4
         3        27        26        45     9        0.000000        0.166400         1
         3        27        26        45     9      180.000000       12.784533         2
         3        27        26        45     9        0.000000       -0.336161         3
         3        27        26        45     9      180.000000        0.291888         4
         3        27        28        29     9        0.000000        0.802291         1
         3        27        28        29     9      180.000000        3.527079         2
         3        27        28        29     9        0.000000        1.195050         3
         3        27        28        29     9      180.000000        0.043134         4
         4         3        27        26     9        0.000000        0.246300         1
         4         3        27        26     9      180.000000       12.038167         2
         4         3        27        26     9        0.000000       -0.447743         3
         4         3        27        26     9      180.000000       -0.093295         4
         4         3        27        28     9        0.000000        0.312921         1
         4         3        27        28     9      180.000000       12.963699         2
         4         3        27        28     9        0.000000       -0.020336         3
         4         3        27        28     9      180.000000        0.087697         4
         4         5         6         7     9        0.000000        0.132129         1
         4         5         6         7     9      180.000000       17.832522         2
         4         5         6         7     9        0.000000        0.097463         3
         4         5         6         7     9      180.000000       -0.336845         4
         4         5         6        26     9        0.000000       -0.023969         1
         4         5         6        26     9      180.000000       17.298060         2
         4         5         6        26     9        0.000000       -1.297561         3
         4         5         6        26     9      180.000000       -0.244555         4
         5         4         3        27     9        0.000000        0.101367         1
         5         4         3        27     9      180.000000       16.812105         2
         5         4         3        27     9        0.000000       -1.160185         3
         5         4         3        27     9      180.000000       -0.311315         4
         5         6         7         8     9        0.000000        0.443064         1
         5         6         7         8     9      180.000000        3.120267         2
         5         6         7         8     9        0.000000       -0.198859         3
         5         6         7         8     9      180.000000        0.465134         4
         5         6         7        35     9        0.000000       -0.086586         1
         5         6         7        35     9      180.000000        3.309236         2
         5         6         7        35     9        0.000000        0.058468         3
         5         6         7        35     9      180.000000        0.892657         4
         5         6        26        27     9        0.000000        0.041058         1
         5         6        26        27     9      180.000000       15.861907         2
         5         6        26        27     9        0.000000       -1.469751         3
         5         6        26        27     9      180.000000       -0.131811         4
         5         6        26        45     9        0.000000        0.034995         1
         5         6        26        45     9      180.000000       12.257033         2
         5         6        26        45     9        0.000000       -0.533827         3
         5         6        26        45     9      180.000000        0.241321         4
         6         5         4        33     9        0.000000        0.111932         1
         6         5         4        33     9      180.000000       13.581334         2
         6         5         4        33     9        0.000000       -0.541303         3
         6         5         4        33     9      180.000000        0.103444         4
         6         7         8         9     9        0.000000       -0.142316         1
         6         7         8         9     9      180.000000        7.089439         2
         6         7         8         9     9        0.000000        0.006697         3
         6         7         8         9     9      180.000000       -0.538883         4
         6         7         8        16     9        0.000000        2.326493         1
         6         7         8        16     9      180.000000        5.951173         2
         6         7         8        16     9        0.000000        0.374079         3
         6         7         8        16     9      180.000000       -0.366443         4
         6        26        27        28     9        0.000000        0.361152         1
         6        26        27        28     9      180.000000       18.377753         2
         6        26        27        28     9        0.000000        0.246867         3
         6        26        27        28     9      180.000000       -0.381467         4
         7         6         5        34     9        0.000000       -0.024104         1
         7         6         5        34     9      180.000000       14.277814         2
         7         6         5        34     9        0.000000       -0.040262         3
         7         6         5        34     9      180.000000        0.129898         4
         7         6        26        27     9        0.000000       -0.012406         1
         7         6        26        27     9      180.000000       16.138685         2
         7         6        26        27     9        0.000000       -0.036311         3
         7         6        26        27     9      180.000000       -0.361374         4
         7         6        26        45     9        0.000000       -0.145209         1
         7         6        26        45     9      180.000000       13.428408         2
         7         6        26        45     9        0.000000       -0.139710         3
         7         6        26        45     9      180.000000        0.230595         4
         7         8         9        10     9        0.000000        1.952668         1
         7         8         9        10     9      180.000000       24.395996         2
         7         8         9        10     9        0.000000        0.733908         3
         7         8         9        10     9      180.000000       -0.984752         4
         7         8        16        12     9        0.000000        0.532707         1
         7         8        16        12     9      180.000000       12.023478         2
         7         8        16        12     9        0.000000        0.177021         3
         7         8        16        12     9      180.000000       -0.593144         4
         7         8        16        15     9        0.000000       -0.356301         1
         7         8        16        15     9      180.000000       10.853867         2
         7         8        16        15     9        0.000000       -0.107328         3
         7         8        16        15     9      180.000000       -0.464327         4
         8         7         6        26     9        0.000000       -0.444928         1
         8         7         6        26     9      180.000000        3.391439         2
         8         7         6        26     9        0.000000       -0.254058         3
         8         7         6        26     9      180.000000        0.430933         4
         8         9        10        11     9        0.000000        0.950282         1
         8         9        10        11     9      180.000000       13.743048         2
         8         9        10        11     9        0.000000       -0.276346         3
         8         9        10        11     9      180.000000       -0.036037         4
         8         9        10        17     9        0.000000        1.514604         1
         8         9        10        17     9      180.000000       18.049491         2
         8         9        10        17     9        0.000000        0.681622         3
         8         9        10        17     9      180.000000       -1.024605         4
         8        16        12        11     9        0.000000        0.337956         1
         8        16        12        11     9      180.000000        5.783879         2
         8        16        12        11     9        0.000000       -0.143386         3
         8        16        12        11     9      180.000000        0.124531         4
         8        16        12        13     9        0.000000       -0.529939         1
         8        16        12        13     9      180.000000        7.254573         2
         8        16        12        13     9        0.000000       -2.285934         3
         8        16        12        13     9      180.000000        0.374903         4
         8        16        15        14     9        0.000000        1.546001         1
         8        16        15        14     9      180.000000       16.470755         2
         8        16        15        14     9        0.000000       -0.373495         3
         8        16        15        14     9      180.000000        0.010417         4
         9         8         7        35     9        0.000000       11.455044         1
         9         8         7        35     9      180.000000        6.774556         2
         9         8         7        35     9        0.000000       -0.382910         3
         9         8         7        35     9      180.000000        0.129606         4
         9         8        16        12     9        0.000000       -0.061703         1
         9         8        16        12     9      180.000000        9.290064         2
         9         8        16        12     9        0.000000       -0.534588         3
         9         8        16        12     9      180.000000       -0.340850         4
         9         8        16        15     9        0.000000       -1.860286         1
         9         8        16        15     9      180.000000        6.551764         2
         9         8        16        15     9        0.000000       -0.109909         3
         9         8        16        15     9      180.000000       -0.440551         4
         9        10        11        12     9        0.000000       -0.643852         1
         9        10        11        12     9      180.000000       29.882925         2
         9        10        11        12     9        0.000000       -1.095300         3
         9        10        11        12     9      180.000000       -1.731803         4
         9        10        11        36     9        0.000000        0.297427         1
         9        10        11        36     9      180.000000       17.765870         2
         9        10        11        36     9        0.000000        0.211891         3
         9        10        11        36     9      180.000000       -0.561023         4
         9        10        17        18     9        0.000000       -0.232475         1
         9        10        17        18     9      180.000000        4.158163         2
         9        10        17        18     9        0.000000        0.009823         3
         9        10        17        18     9      180.000000        0.031803         4
         9        10        17        22     9        0.000000       -0.232475         1
         9        10        17        22     9      180.000000        4.158163         2
         9        10        17        22     9        0.000000        0.009823         3
         9        10        17        22     9      180.000000        0.031803         4
        10         9         8        16     9        0.000000        0.955082         1
        10         9         8        16     9      180.000000       22.095675         2
        10         9         8        16     9        0.000000        0.588285         3
        10         9         8        16     9      180.000000       -0.571877         4
        10        11        12        13     9        0.000000        0.469709         1
        10        11        12        13     9      180.000000        4.953103         2
        10        11        12        13     9        0.000000        0.253485         3
        10        11        12        13     9      180.000000        0.107879         4
        10        11        12        16     9        0.000000       -0.646654         1
        10        11        12        16     9      180.000000        9.288621         2
        10        11        12        16     9        0.000000       -1.024161         3
        10        11        12        16     9      180.000000       -0.053487         4
        10        17        18        19     9        0.000000        0.259155         1
        10        17        18        19     9      180.000000       15.206433         2
        10        17        18        19     9        0.000000       -0.150087         3
        10        17        18        19     9      180.000000       -0.212948         4
        10        17        18        39     9        0.000000       -0.103982         1
        10        17        18        39     9      180.000000       12.424143         2
        10        17        18        39     9        0.000000       -0.192152         3
        10        17        18        39     9      180.000000        0.198631         4
        10        17        22        21     9        0.000000        0.259155         1
        10        17        22        21     9      180.000000       15.206433         2
        10        17        22        21     9        0.000000       -0.150087         3
        10        17        22        21     9      180.000000       -0.212948         4
        10        17        22        42     9        0.000000       -0.103982         1
        10        17        22        42     9      180.000000       12.424143         2
        10        17        22        42     9        0.000000       -0.192152         3
        10        17        22        42     9      180.000000        0.198631         4
        11        10        17        18     9        0.000000       -0.262101         1
        11        10        17        18     9      180.000000        3.399760         2
        11        10        17        18     9        0.000000        0.145609         3
        11        10        17        18     9      180.000000       -0.175556         4
        11        10        17        22     9        0.000000       -0.262101         1
        11        10        17        22     9      180.000000        3.399760         2
        11        10        17        22     9        0.000000        0.145609         3
        11        10        17        22     9      180.000000       -0.175556         4
        11        12        13        14     9        0.000000        0.965502         1
        11        12        13        14     9      180.000000        5.223294         2
        11        12        13        14     9        0.000000        0.739375         3
        11        12        13        14     9      180.000000       -0.040295         4
        11        12        13        37     9        0.000000        0.156545         1
        11        12        13        37     9      180.000000        3.679926         2
        11        12        13        37     9        0.000000        0.374386         3
        11        12        13        37     9      180.000000        0.064056         4
        11        12        16        15     9        0.000000        0.555178         1
        11        12        16        15     9      180.000000        7.752461         2
        11        12        16        15     9        0.000000       -0.729377         3
        11        12        16        15     9      180.000000        0.134979         4
        12        11        10        17     9        0.000000        0.188677         1
        12        11        10        17     9      180.000000       26.532821         2
        12        11        10        17     9        0.000000        0.412122         3
        12        11        10        17     9      180.000000       -1.800810         4
        12        13        14        15     9        0.000000       -0.258793         1
        12        13        14        15     9      180.000000       36.323027         2
        12        13        14        15     9        0.000000       -7.442937         3
        12        13        14        15     9      180.000000       -0.839992         4
        12        13        14        38     9        0.000000        0.279818         1
        12        13        14        38     9      180.000000       18.770131         2
        12        13        14        38     9        0.000000       -0.507968         3
        12        13        14        38     9      180.000000       -0.564047         4
        12        16        15        14     9        0.000000       -0.172777         1
        12        16        15        14     9      180.000000       37.627789         2
        12        16        15        14     9        0.000000       -7.120096         3
        12        16        15        14     9      180.000000        0.116816         4
        13        12        11        36     9        0.000000       -0.211391         1
        13        12        11        36     9      180.000000        3.543757         2
        13        12        11        36     9        0.000000        0.304368         3
        13        12        11        36     9      180.000000        0.067334         4
        13        12        16        15     9        0.000000        0.131710         1
        13        12        16        15     9      180.000000       15.566772         2
        13        12        16        15     9        0.000000       -7.866552         3
        13        12        16        15     9      180.000000        0.257373         4
        13        14        15        16     9        0.000000       -0.255849         1
        13        14        15        16     9      180.000000       31.025341         2
        13        14        15        16     9        0.000000       -4.653101         3
        13        14        15        16     9      180.000000        0.341646         4
        14        13        12        16     9        0.000000        0.086044         1
        14        13        12        16     9      180.000000       25.283693         2
        14        13        12        16     9        0.000000       -9.272059         3
        14        13        12        16     9      180.000000        0.296509         4
        15        14        13        37     9        0.000000        0.292780         1
        15        14        13        37     9      180.000000       15.681650         2
        15        14        13        37     9        0.000000       -0.422047         3
        15        14        13        37     9      180.000000       -0.479005         4
        16         8         7        35     9        0.000000        3.047131         1
        16         8         7        35     9      180.000000        7.216451         2
        16         8         7        35     9        0.000000       -0.156869         3
        16         8         7        35     9      180.000000        0.486791         4
        16        12        11        36     9        0.000000        0.560809         1
        16        12        11        36     9      180.000000        4.562283         2
        16        12        11        36     9        0.000000        0.396933         3
        16        12        11        36     9      180.000000        0.102239         4
        16        12        13        37     9        0.000000        1.026521         1
        16        12        13        37     9      180.000000        6.099844         2
        16        12        13        37     9        0.000000        0.349087         3
        16        12        13        37     9      180.000000        0.232410         4
        16        15        14        38     9        0.000000        2.009586         1
        16        15        14        38     9      180.000000       22.682232         2
        16        15        14        38     9        0.000000        0.566971         3
        16        15        14        38     9      180.000000       -0.265561         4
        17        10        11        36     9        0.000000       -0.068900         1
        17        10        11        36     9      180.000000       14.984421         2
        17        10        11        36     9        0.000000        0.315943         3
        17        10        11        36     9      180.000000       -0.000641         4
        17        18        19        20     9        0.000000       -0.095629         1
        17        18        19        20     9      180.000000       19.787054         2
        17        18        19        20     9        0.000000       -1.737588         3
        17        18        19        20     9      180.000000       -0.493371         4
        17        18        19        40     9        0.000000       -0.053729         1
        17        18        19        40     9      180.000000       15.208271         2
        17        18        19        40     9        0.000000       -0.630886         3
        17        18        19        40     9      180.000000        0.103293         4
        17        22        21        20     9        0.000000       -0.095629         1
        17        22        21        20     9      180.000000       19.787054         2
        17        22        21        20     9        0.000000       -1.737588         3
        17        22        21        20     9      180.000000       -0.493371         4
        17        22        21        41     9        0.000000       -0.053729         1
        17        22        21        41     9      180.000000       15.208271         2
        17        22        21        41     9        0.000000       -0.630886         3
        17        22        21        41     9      180.000000        0.103293         4
        18        17        22        21     9        0.000000       -0.076081         1
        18        17        22        21     9      180.000000       17.778744         2
        18        17        22        21     9        0.000000       -1.315681         3
        18        17        22        21     9      180.000000       -0.347234         4
        18        17        22        42     9        0.000000       -0.193226         1
        18        17        22        42     9      180.000000       13.872907         2
        18        17        22        42     9        0.000000       -0.569759         3
        18        17        22        42     9      180.000000        0.088021         4
        18        19        20        21     9        0.000000        0.007440         1
        18        19        20        21     9      180.000000       17.930885         2
        18        19        20        21     9        0.000000       -1.320913         3
        18        19        20        21     9      180.000000       -0.406583         4
        18        19        20        23     9        0.000000        0.149356         1
        18        19        20        23     9      180.000000       13.471713         2
        18        19        20        23     9        0.000000       -0.214596         3
        18        19        20        23     9      180.000000       -0.250705         4
        19        18        17        22     9        0.000000       -0.076081         1
        19        18        17        22     9      180.000000       17.778744         2
        19        18        17        22     9        0.000000       -1.315681         3
        19        18        17        22     9      180.000000       -0.347234         4
        19        20        21        22     9        0.000000        0.007440         1
        19        20        21        22     9      180.000000       17.930885         2
        19        20        21        22     9        0.000000       -1.320913         3
        19        20        21        22     9      180.000000       -0.406583         4
        19        20        21        41     9        0.000000       -0.005595         1
        19        20        21        41     9      180.000000       13.782745         2
        19        20        21        41     9        0.000000       -0.614267         3
        19        20        21        41     9      180.000000        0.085463         4
        19        20        23        24     9        0.000000       -0.249793         1
        19        20        23        24     9      180.000000        3.083075         2
        19        20        23        24     9        0.000000        0.094798         3
        19        20        23        24     9      180.000000       -0.096332         4
        19        20        23        25     9        0.000000        0.437297         1
        19        20        23        25     9      180.000000        2.787941         2
        19        20        23        25     9        0.000000        0.432422         3
        19        20        23        25     9      180.000000       -0.343331         4
        20        19        18        39     9        0.000000       -0.018252         1
        20        19        18        39     9      180.000000       15.124032         2
        20        19        18        39     9        0.000000       -0.532192         3
        20        19        18        39     9      180.000000        0.138620         4
        20        21        22        42     9        0.000000       -0.018252         1
        20        21        22        42     9      180.000000       15.124032         2
        20        21        22        42     9        0.000000       -0.532192         3
        20        21        22        42     9      180.000000        0.138620         4
        20        23        25        43     9        0.000000       -0.989947         1
        20        23        25        43     9      180.000000        9.484757         2
        20        23        25        43     9        0.000000        0.980357         3
        20        23        25        43     9      180.000000       -1.255672         4
        20        23        25        44     9        0.000000       -0.989947         1
        20        23        25        44     9      180.000000        9.484757         2
        20        23        25        44     9        0.000000        0.980357         3
        20        23        25        44     9      180.000000       -1.255672         4
        21        20        19        40     9        0.000000       -0.005595         1
        21        20        19        40     9      180.000000       13.782745         2
        21        20        19        40     9        0.000000       -0.614267         3
        21        20        19        40     9      180.000000        0.085463         4
        21        20        23        24     9        0.000000       -0.249793         1
        21        20        23        24     9      180.000000        3.083075         2
        21        20        23        24     9        0.000000        0.094798         3
        21        20        23        24     9      180.000000       -0.096332         4
        21        20        23        25     9        0.000000        0.437297         1
        21        20        23        25     9      180.000000        2.787941         2
        21        20        23        25     9        0.000000        0.432422         3
        21        20        23        25     9      180.000000       -0.343331         4
        22        17        18        39     9        0.000000       -0.193226         1
        22        17        18        39     9      180.000000       13.872907         2
        22        17        18        39     9        0.000000       -0.569759         3
        22        17        18        39     9      180.000000        0.088021         4
        22        21        20        23     9        0.000000        0.149356         1
        22        21        20        23     9      180.000000       13.471713         2
        22        21        20        23     9        0.000000       -0.214596         3
        22        21        20        23     9      180.000000       -0.250705         4
        23        20        19        40     9        0.000000        0.120672         1
        23        20        19        40     9      180.000000       12.084713         2
        23        20        19        40     9        0.000000       -0.298033         3
        23        20        19        40     9      180.000000        0.038365         4
        23        20        21        41     9        0.000000        0.120672         1
        23        20        21        41     9      180.000000       12.084713         2
        23        20        21        41     9        0.000000       -0.298033         3
        23        20        21        41     9      180.000000        0.038365         4
        24        23        25        43     9        0.000000        1.490371         1
        24        23        25        43     9      180.000000       10.358101         2
        24        23        25        43     9        0.000000       -0.070182         3
        24        23        25        43     9      180.000000       -0.757464         4
        24        23        25        44     9        0.000000        1.490371         1
        24        23        25        44     9      180.000000       10.358101         2
        24        23        25        44     9        0.000000       -0.070182         3
        24        23        25        44     9      180.000000       -0.757464         4
        26         6         5        34     9        0.000000        0.074273         1
        26         6         5        34     9      180.000000       12.990241         2
        26         6         5        34     9        0.000000       -0.520768         3
        26         6         5        34     9      180.000000        0.132469         4
        26         6         7        35     9        0.000000        1.575093         1
        26         6         7        35     9      180.000000        3.198189         2
        26         6         7        35     9        0.000000        0.467524         3
        26         6         7        35     9      180.000000        0.863764         4
        26        27        28        29     9        0.000000        0.123069         1
        26        27        28        29     9      180.000000        4.737590         2
        26        27        28        29     9        0.000000       -0.815850         3
        26        27        28        29     9      180.000000        0.427563         4
        27         3         4        33     9        0.000000        0.222424         1
        27         3         4        33     9      180.000000       12.890975         2
        27         3         4        33     9        0.000000       -0.414499         3
        27         3         4        33     9      180.000000        0.189834         4
        27        28        29        46     9        0.000000       -0.006341         1
        27        28        29        46     9      180.000000       -0.005041         2
        27        28        29        46     9        0.000000        0.433370         3
        27        28        29        46     9      180.000000       -0.009039         4
        27        28        29        47     9        0.000000       -0.006341         1
        27        28        29        47     9      180.000000       -0.005041         2
        27        28        29        47     9        0.000000        0.433370         3
        27        28        29        47     9      180.000000       -0.009039         4
        27        28        29        48     9        0.000000       -0.006341         1
        27        28        29        48     9      180.000000       -0.005041         2
        27        28        29        48     9        0.000000        0.433370         3
        27        28        29        48     9      180.000000       -0.009039         4
        28        27        26        45     9        0.000000        0.102563         1
        28        27        26        45     9      180.000000       13.836839         2
        28        27        26        45     9        0.000000       -0.050823         3
        28        27        26        45     9      180.000000        0.307531         4
        33         4         5        34     9        0.000000       -0.192420         1
        33         4         5        34     9      180.000000       11.734676         2
        33         4         5        34     9        0.000000       -0.700233         3
        33         4         5        34     9      180.000000        0.222006         4
        37        13        14        38     9        0.000000       -0.357707         1
        37        13        14        38     9      180.000000        9.061504         2
        37        13        14        38     9        0.000000       -0.277917         3
        37        13        14        38     9      180.000000        0.193706         4
        39        18        19        40     9        0.000000       -0.197263         1
        39        18        19        40     9      180.000000       12.632025         2
        39        18        19        40     9        0.000000       -0.728447         3
        39        18        19        40     9      180.000000        0.399542         4
        41        21        22        42     9        0.000000       -0.197263         1
        41        21        22        42     9      180.000000       12.632025         2
        41        21        22        42     9        0.000000       -0.728447         3
        41        21        22        42     9      180.000000        0.399542         4

[ dihedrals ] ; impropers
;       ai        aj        ak        al funct           phase               k        pn
        23        20        24        25     4      180.000000       24.614696         2
        23        24        25        20     4      180.000000       24.614696         2
        23        25        20        24     4      180.000000       24.614696         2

[ pairs ]
;       ai        aj funct
         1         4     1
         1        27     1
         2         5     1
         2        26     1
         2        28     1
         2        33     1
         3         6     1
         3        29     1
         3        30     1
         3        31     1
         3        32     1
         3        34     1
         3        45     1
         4         7     1
         4        26     1
         4        28     1
         5         8     1
         5        27     1
         5        35     1
         5        45     1
         6         9     1
         6        16     1
         6        28     1
         6        33     1
         7        10     1
         7        12     1
         7        15     1
         7        27     1
         7        34     1
         7        45     1
         8        11     1
         8        13     1
         8        14     1
         8        17     1
         8        26     1
         9        12     1
         9        15     1
         9        18     1
         9        22     1
         9        35     1
         9        36     1
        10        13     1
        10        16     1
        10        19     1
        10        21     1
        10        39     1
        10        42     1
        11        14     1
        11        15     1
        11        18     1
        11        22     1
        11        37     1
        12        17     1
        12        38     1
        13        36     1
        15        37     1
        16        35     1
        16        36     1
        16        37     1
        16        38     1
        17        20     1
        17        36     1
        17        40     1
        17        41     1
        18        21     1
        18        23     1
        18        42     1
        19        22     1
        19        24     1
        19        25     1
        19        41     1
        20        39     1
        20        42     1
        20        43     1
        20        44     1
        21        24     1
        21        25     1
        21        40     1
        22        23     1
        22        39     1
        23        40     1
        23        41     1
        24        43     1
        24        44     1
        26        29     1
        26        34     1
        26        35     1
        27        33     1
        27        46     1
        27        47     1
        27        48     1
        28        45     1
        33        34     1
        37        38     1
        39        40     1
        41        42     1
