; ITP file created by ByteFF-ML, 2026-02-21 07:50:00.748510

[ atomtypes ]
;name           bonded.type        at.num        mass        charge   ptype           sigma         epsilon
 c0bf                                   6      0.0000       0.00000       A     3.39841e-01     4.49214e-01
 n1bf                                   7      0.0000       0.00000       A     3.19449e-01     8.89627e-01
 c2bf                                   6      0.0000       0.00000       A     3.40008e-01     4.51119e-01
 c3bf                                   6      0.0000       0.00000       A     3.39758e-01     4.52342e-01
 o4bf                                   8      0.0000       0.00000       A     3.24517e-01     3.87853e-01
 c5bf                                   6      0.0000       0.00000       A     3.31569e-01     4.11448e-01
 c6bf                                   6      0.0000       0.00000       A     3.31463e-01     4.12704e-01
 c7bf                                   6      0.0000       0.00000       A     3.31474e-01     4.12667e-01
 c8bf                                   6      0.0000       0.00000       A     3.31246e-01     4.11444e-01
 n9bf                                   7      0.0000       0.00000       A     3.27803e-01     6.49204e-01
 c10bf                                  6      0.0000       0.00000       A     3.31293e-01     4.14462e-01
 n11bf                                  7      0.0000       0.00000       A     3.38671e-01     3.94073e-01
 c12bf                                  6      0.0000       0.00000       A     3.31501e-01     4.11066e-01
 c13bf                                  6      0.0000       0.00000       A     3.31499e-01     4.12954e-01
 n14bf                                  7      0.0000       0.00000       A     3.20544e-01     8.50304e-01
 c15bf                                  6      0.0000       0.00000       A     3.31513e-01     4.11963e-01
 c16bf                                  6      0.0000       0.00000       A     3.31488e-01     4.12482e-01
 n17bf                                  7      0.0000       0.00000       A     3.38571e-01     3.94678e-01
 c18bf                                  6      0.0000       0.00000       A     3.31524e-01     4.13157e-01
 c19bf                                  6      0.0000       0.00000       A     3.31318e-01     4.13275e-01
 c20bf                                  6      0.0000       0.00000       A     3.31459e-01     4.13269e-01
 c21bf                                  6      0.0000       0.00000       A     3.31493e-01     4.13770e-01
 c22bf                                  6      0.0000       0.00000       A     3.31459e-01     4.13510e-01
 c23bf                                  6      0.0000       0.00000       A     3.31378e-01     4.12493e-01
 n24bf                                  7      0.0000       0.00000       A     3.38246e-01     3.92809e-01
 n25bf                                  7      0.0000       0.00000       A     3.20449e-01     8.56124e-01
 c26bf                                  6      0.0000       0.00000       A     3.31534e-01     4.12212e-01
 c27bf                                  6      0.0000       0.00000       A     3.31394e-01     4.12724e-01
 c28bf                                  6      0.0000       0.00000       A     3.31474e-01     4.12667e-01
 c29bf                                  6      0.0000       0.00000       A     3.31463e-01     4.12704e-01
 h30bf                                  1      0.0000       0.00000       A     2.41958e-01     8.71374e-02
 h31bf                                  1      0.0000       0.00000       A     2.41958e-01     8.71374e-02
 h32bf                                  1      0.0000       0.00000       A     2.41958e-01     8.71374e-02
 h33bf                                  1      0.0000       0.00000       A     2.42249e-01     8.74869e-02
 h34bf                                  1      0.0000       0.00000       A     2.42249e-01     8.74869e-02
 h35bf                                  1      0.0000       0.00000       A     2.41974e-01     8.69523e-02
 h36bf                                  1      0.0000       0.00000       A     2.41974e-01     8.69523e-02
 h37bf                                  1      0.0000       0.00000       A     5.36358e-02     2.03467e-02
 h38bf                                  1      0.0000       0.00000       A     2.62441e-01     6.78058e-02
 h39bf                                  1      0.0000       0.00000       A     2.62493e-01     6.75696e-02
 h40bf                                  1      0.0000       0.00000       A     1.10437e-01     4.36637e-02
 h41bf                                  1      0.0000       0.00000       A     2.53936e-01     6.71690e-02
 h42bf                                  1      0.0000       0.00000       A     2.54157e-01     6.73717e-02
 h43bf                                  1      0.0000       0.00000       A     2.53844e-01     6.71387e-02
 h44bf                                  1      0.0000       0.00000       A     2.62540e-01     6.75377e-02
 h45bf                                  1      0.0000       0.00000       A     2.62573e-01     6.68386e-02
 h46bf                                  1      0.0000       0.00000       A     2.53797e-01     6.68737e-02
 h47bf                                  1      0.0000       0.00000       A     1.10610e-01     4.13941e-02
 h48bf                                  1      0.0000       0.00000       A     2.62479e-01     6.75951e-02
 h49bf                                  1      0.0000       0.00000       A     2.62493e-01     6.75696e-02
 h50bf                                  1      0.0000       0.00000       A     2.62441e-01     6.78058e-02

[ moleculetype ]
;name             nrexcl
 CHEMBL3265035         3

[ atoms ]
;       nr            type      resi   res      atom      cgnr      charge          mass ; qtot
         1            c0bf         1   UNL        c0         1     0.18936       12.0110 ; qtot    0.189
         2            n1bf         1   UNL        n1         2    -0.80909       14.0070 ; qtot   -0.620
         3            c2bf         1   UNL        c2         3     0.18287       12.0110 ; qtot   -0.437
         4            c3bf         1   UNL        c3         4     0.14411       12.0110 ; qtot   -0.293
         5            o4bf         1   UNL        o4         5    -0.66858       15.9990 ; qtot   -0.961
         6            c5bf         1   UNL        c5         6     0.28871       12.0110 ; qtot   -0.673
         7            c6bf         1   UNL        c6         7    -0.15469       12.0110 ; qtot   -0.827
         8            c7bf         1   UNL        c7         8    -0.11213       12.0110 ; qtot   -0.939
         9            c8bf         1   UNL        c8         9     0.26840       12.0110 ; qtot   -0.671
        10            n9bf         1   UNL        n9        10    -0.91273       14.0070 ; qtot   -1.584
        11           c10bf         1   UNL       c10        11     0.67832       12.0110 ; qtot   -0.905
        12           n11bf         1   UNL       n11        12    -0.75880       14.0070 ; qtot   -1.664
        13           c12bf         1   UNL       c12        13     0.39367       12.0110 ; qtot   -1.271
        14           c13bf         1   UNL       c13        14    -0.18305       12.0110 ; qtot   -1.454
        15           n14bf         1   UNL       n14        15     0.16185       14.0070 ; qtot   -1.292
        16           c15bf         1   UNL       c15        16    -0.26112       12.0110 ; qtot   -1.553
        17           c16bf         1   UNL       c16        17    -0.04248       12.0110 ; qtot   -1.595
        18           n17bf         1   UNL       n17        18    -0.27126       14.0070 ; qtot   -1.867
        19           c18bf         1   UNL       c18        19    -0.16948       12.0110 ; qtot   -2.036
        20           c19bf         1   UNL       c19        20    -0.09700       12.0110 ; qtot   -2.133
        21           c20bf         1   UNL       c20        21    -0.12311       12.0110 ; qtot   -2.256
        22           c21bf         1   UNL       c21        22    -0.03392       12.0110 ; qtot   -2.290
        23           c22bf         1   UNL       c22        23    -0.22776       12.0110 ; qtot   -2.518
        24           c23bf         1   UNL       c23        24     0.35866       12.0110 ; qtot   -2.159
        25           n24bf         1   UNL       n24        25    -0.50917       14.0070 ; qtot   -2.668
        26           n25bf         1   UNL       n25        26    -0.08410       14.0070 ; qtot   -2.753
        27           c26bf         1   UNL       c26        27    -0.02985       12.0110 ; qtot   -2.782
        28           c27bf         1   UNL       c27        28    -0.10271       12.0110 ; qtot   -2.885
        29           c28bf         1   UNL       c28        29    -0.11213       12.0110 ; qtot   -2.997
        30           c29bf         1   UNL       c29        30    -0.15469       12.0110 ; qtot   -3.152
        31           h30bf         1   UNL       h30        31     0.03894        1.0080 ; qtot   -3.113
        32           h31bf         1   UNL       h31        32     0.03894        1.0080 ; qtot   -3.074
        33           h32bf         1   UNL       h32        33     0.03894        1.0080 ; qtot   -3.035
        34           h33bf         1   UNL       h33        34     0.05126        1.0080 ; qtot   -2.984
        35           h34bf         1   UNL       h34        35     0.05126        1.0080 ; qtot   -2.933
        36           h35bf         1   UNL       h35        36     0.04163        1.0080 ; qtot   -2.891
        37           h36bf         1   UNL       h36        37     0.04163        1.0080 ; qtot   -2.849
        38           h37bf         1   UNL       h37        38     0.45030        1.0080 ; qtot   -2.399
        39           h38bf         1   UNL       h38        39     0.11637        1.0080 ; qtot   -2.283
        40           h39bf         1   UNL       h39        40     0.12339        1.0080 ; qtot   -2.159
        41           h40bf         1   UNL       h40        41     0.50487        1.0080 ; qtot   -1.654
        42           h41bf         1   UNL       h41        42     0.15334        1.0080 ; qtot   -1.501
        43           h42bf         1   UNL       h42        43     0.22767        1.0080 ; qtot   -1.273
        44           h43bf         1   UNL       h43        44     0.22246        1.0080 ; qtot   -1.051
        45           h44bf         1   UNL       h44        45     0.12542        1.0080 ; qtot   -0.925
        46           h45bf         1   UNL       h45        46     0.12504        1.0080 ; qtot   -0.800
        47           h46bf         1   UNL       h46        47     0.05082        1.0080 ; qtot   -0.750
        48           h47bf         1   UNL       h47        48     0.37661        1.0080 ; qtot   -0.373
        49           h48bf         1   UNL       h48        49     0.13324        1.0080 ; qtot   -0.240
        50           h49bf         1   UNL       h49        50     0.12339        1.0080 ; qtot   -0.116
        51           h50bf         1   UNL       h50        51     0.11638        1.0080 ; qtot    0.000

[ bonds ]
;       ai        aj funct               r               k
         1         2     1        0.145779   210954.642017
         1        31     1        0.109532   293374.755957
         1        32     1        0.109532   293374.755957
         1        33     1        0.109532   293374.755957
         2         3     1        0.145980   198502.568726
         2         6     1        0.140355   258648.679590
         3         4     1        0.153324   179933.144727
         3        34     1        0.109608   290687.179492
         3        35     1        0.109608   290687.179492
         4         5     1        0.142998   210149.022827
         4        36     1        0.109673   290402.057666
         4        37     1        0.109673   290402.057666
         5        38     1        0.097068   468216.005371
         6         7     1        0.141185   270101.587939
         6        30     1        0.141185   270101.587939
         7         8     1        0.139451   328008.771045
         7        39     1        0.108394   322812.199121
         8         9     1        0.140389   286121.093262
         8        40     1        0.108510   321097.356689
         9        10     1        0.141024   252913.683252
         9        29     1        0.140389   286121.093262
        10        11     1        0.136705   312202.219678
        10        41     1        0.101301   413472.487061
        11        12     1        0.132061   353646.930762
        11        19     1        0.143870   235848.075781
        12        13     1        0.137731   242889.474023
        13        14     1        0.137592   344983.108887
        13        20     1        0.148350   208057.444189
        14        15     1        0.137846   276179.573193
        14        42     1        0.108178   332012.657812
        15        16     1        0.137750   263209.071045
        15        19     1        0.138998   204565.857373
        16        17     1        0.138746   337814.127246
        16        43     1        0.107915   345078.311230
        17        18     1        0.136744   275913.425439
        17        44     1        0.108260   332273.212939
        18        19     1        0.133378   321390.292871
        20        21     1        0.142433   254268.222607
        20        28     1        0.139561   307101.999268
        21        22     1        0.138513   345982.120605
        21        45     1        0.108464   321585.677295
        22        23     1        0.140977   299472.200488
        22        46     1        0.108610   319899.819482
        23        24     1        0.143230   248711.168848
        23        27     1        0.142098   249269.716504
        24        25     1        0.132469   384599.541699
        24        47     1        0.108275   331411.463184
        25        26     1        0.136225   242542.935449
        26        27     1        0.137146   283722.188281
        26        48     1        0.100944   434666.372559
        27        28     1        0.140152   304627.402295
        28        49     1        0.108507   321591.014551
        29        30     1        0.139451   328008.771045
        29        50     1        0.108510   321097.356689
        30        51     1        0.108394   322812.199121

[ angles ]
;       ai        aj        ak funct           theta             cth
         1         2         3     1      116.369064      521.244898
         1         2         6     1      118.118858      538.265829
         2         1        31     1      110.882919      453.722227
         2         1        32     1      110.882919      453.722227
         2         1        33     1      110.882919      453.722227
         2         3         4     1      113.796585      522.356656
         2         3        34     1      109.334061      460.181360
         2         3        35     1      109.334061      460.181360
         2         6         7     1      121.302322      546.130365
         2         6        30     1      121.302322      546.130365
         3         2         6     1      119.180824      489.664049
         3         4         5     1      110.850487      622.617263
         3         4        36     1      109.609764      494.914702
         3         4        37     1      109.609764      494.914702
         4         3        34     1      108.713028      487.662833
         4         3        35     1      108.713028      487.662833
         4         5        38     1      107.704163      592.108781
         5         4        36     1      109.190750      484.197895
         5         4        37     1      109.190750      484.197895
         6         7         8     1      121.491257      741.555520
         6         7        39     1      120.343811      416.362394
         6        30        29     1      121.491257      741.555520
         6        30        51     1      120.343811      416.362330
         7         6        30     1      117.211197      599.664126
         7         8         9     1      120.771378      702.285319
         7         8        40     1      119.502441      401.149236
         8         7        39     1      118.399963      427.437391
         8         9        10     1      120.698807      554.871717
         8         9        29     1      118.393410      569.947741
         9         8        40     1      119.672874      432.758336
         9        10        11     1      130.918671      389.198571
         9        10        41     1      115.521164      444.980364
         9        29        30     1      120.771378      702.285447
         9        29        50     1      119.672874      432.758336
        10         9        29     1      120.698807      554.871717
        10        11        12     1      121.343933      603.141131
        10        11        19     1      116.160477      347.852905
        11        10        41     1      112.183823      485.604830
        11        12        13     1      119.793762      659.281466
        11        19        15     1      117.476013      691.884693
        11        19        18     1      131.168365      328.267219
        12        11        19     1      121.163086      641.590825
        12        13        14     1      121.966331      389.510187
        12        13        20     1      116.263992      505.959789
        13        14        15     1      118.184242      872.211990
        13        14        42     1      124.892982      345.345800
        13        20        21     1      119.968796      596.169245
        13        20        28     1      120.006363      462.288651
        14        13        20     1      121.468979      451.185722
        14        15        16     1      132.324738      451.412524
        14        15        19     1      121.398743      769.110508
        15        14        42     1      117.429405      489.573775
        15        16        17     1      105.222717      375.667031
        15        16        43     1      122.391075      461.871917
        15        19        18     1      111.412987      167.360000
        16        15        19     1      106.439148      167.360000
        16        17        18     1      111.710022      296.607652
        16        17        44     1      126.932030      353.254706
        17        16        43     1      132.665771      296.979121
        17        18        19     1      105.148094      501.387338
        18        17        44     1      121.224686      373.698758
        20        21        22     1      121.768967      637.524678
        20        21        45     1      118.821877      437.177245
        20        28        27     1      117.575485      752.943475
        20        28        49     1      120.740341      417.152991
        21        20        28     1      120.215416      565.096520
        21        22        23     1      118.718689      667.878789
        21        22        46     1      120.630470      435.955039
        22        21        45     1      119.666870      423.052574
        22        23        24     1      136.517975      472.986497
        22        23        27     1      119.114426      702.113072
        23        22        46     1      120.868896      437.569878
        23        24        25     1      111.479248      389.645023
        23        24        47     1      128.954605      353.879567
        23        27        26     1      105.629044      167.360000
        23        27        28     1      122.444931      646.521977
        24        23        27     1      104.386375      456.099764
        24        25        26     1      105.968910      513.160456
        25        24        47     1      119.559181      397.470551
        25        26        27     1      112.587357      425.755262
        25        26        48     1      118.749695      478.428710
        26        27        28     1      132.012634      439.872112
        27        26        48     1      128.703522      382.976294
        27        28        49     1      121.796425      432.612870
        29        30        51     1      118.399963      427.437391
        30        29        50     1      119.502441      401.149204
        31         1        32     1      108.180527      350.385037
        31         1        33     1      108.180527      350.385037
        32         1        33     1      108.180527      350.385037
        34         3        35     1      106.949539      349.463531
        36         4        37     1      107.887550      340.258105

[ dihedrals ] ; propers for gromacs 4.5 or higher, use funct 9
;       ai        aj        ak        al funct           phase               k        pn
         1         2         3         4     9        0.000000        2.360319         1
         1         2         3         4     9      180.000000       -0.588719         2
         1         2         3         4     9        0.000000        0.964548         3
         1         2         3         4     9      180.000000        0.004440         4
         1         2         3        34     9        0.000000       -0.483587         1
         1         2         3        34     9      180.000000        0.317397         2
         1         2         3        34     9        0.000000        1.083766         3
         1         2         3        34     9      180.000000        0.087130         4
         1         2         3        35     9        0.000000       -0.483587         1
         1         2         3        35     9      180.000000        0.317397         2
         1         2         3        35     9        0.000000        1.083766         3
         1         2         3        35     9      180.000000        0.087130         4
         1         2         6         7     9        0.000000       -0.090563         1
         1         2         6         7     9      180.000000        5.687417         2
         1         2         6         7     9        0.000000        0.063369         3
         1         2         6         7     9      180.000000        0.538360         4
         1         2         6        30     9        0.000000       -0.090564         1
         1         2         6        30     9      180.000000        5.687417         2
         1         2         6        30     9        0.000000        0.063369         3
         1         2         6        30     9      180.000000        0.538360         4
         2         3         4         5     9        0.000000       -1.915680         1
         2         3         4         5     9      180.000000       -0.774007         2
         2         3         4         5     9        0.000000        0.707118         3
         2         3         4         5     9      180.000000       -0.047936         4
         2         3         4        36     9        0.000000        0.032222         1
         2         3         4        36     9      180.000000        0.106695         2
         2         3         4        36     9        0.000000        0.697587         3
         2         3         4        36     9      180.000000        0.121905         4
         2         3         4        37     9        0.000000        0.032222         1
         2         3         4        37     9      180.000000        0.106695         2
         2         3         4        37     9        0.000000        0.697587         3
         2         3         4        37     9      180.000000        0.121905         4
         2         6         7         8     9        0.000000        0.403815         1
         2         6         7         8     9      180.000000       15.915162         2
         2         6         7         8     9        0.000000        0.196907         3
         2         6         7         8     9      180.000000       -0.312228         4
         2         6         7        39     9        0.000000       -0.010786         1
         2         6         7        39     9      180.000000       13.154813         2
         2         6         7        39     9        0.000000       -0.019708         3
         2         6         7        39     9      180.000000        0.130503         4
         2         6        30        29     9        0.000000        0.403815         1
         2         6        30        29     9      180.000000       15.915162         2
         2         6        30        29     9        0.000000        0.196907         3
         2         6        30        29     9      180.000000       -0.312228         4
         2         6        30        51     9        0.000000       -0.010786         1
         2         6        30        51     9      180.000000       13.154814         2
         2         6        30        51     9        0.000000       -0.019709         3
         2         6        30        51     9      180.000000        0.130503         4
         3         2         1        31     9        0.000000        0.015477         1
         3         2         1        31     9      180.000000        0.026840         2
         3         2         1        31     9        0.000000        1.107452         3
         3         2         1        31     9      180.000000       -0.019409         4
         3         2         1        32     9        0.000000        0.015477         1
         3         2         1        32     9      180.000000        0.026840         2
         3         2         1        32     9        0.000000        1.107452         3
         3         2         1        32     9      180.000000       -0.019409         4
         3         2         1        33     9        0.000000        0.015477         1
         3         2         1        33     9      180.000000        0.026840         2
         3         2         1        33     9        0.000000        1.107452         3
         3         2         1        33     9      180.000000       -0.019409         4
         3         2         6         7     9        0.000000        0.253193         1
         3         2         6         7     9      180.000000        4.912326         2
         3         2         6         7     9        0.000000        0.159776         3
         3         2         6         7     9      180.000000        0.191919         4
         3         2         6        30     9        0.000000        0.253193         1
         3         2         6        30     9      180.000000        4.912325         2
         3         2         6        30     9        0.000000        0.159776         3
         3         2         6        30     9      180.000000        0.191919         4
         3         4         5        38     9        0.000000        9.983152         1
         3         4         5        38     9      180.000000       -3.955867         2
         3         4         5        38     9        0.000000        1.681923         3
         3         4         5        38     9      180.000000       -0.010217         4
         4         3         2         6     9        0.000000        2.446893         1
         4         3         2         6     9      180.000000       -0.490310         2
         4         3         2         6     9        0.000000        0.670400         3
         4         3         2         6     9      180.000000       -0.038063         4
         5         4         3        34     9        0.000000        0.332164         1
         5         4         3        34     9      180.000000        0.091171         2
         5         4         3        34     9        0.000000        0.660599         3
         5         4         3        34     9      180.000000        0.055761         4
         5         4         3        35     9        0.000000        0.332164         1
         5         4         3        35     9      180.000000        0.091171         2
         5         4         3        35     9        0.000000        0.660599         3
         5         4         3        35     9      180.000000        0.055761         4
         6         2         1        31     9        0.000000       -0.072736         1
         6         2         1        31     9      180.000000        0.017311         2
         6         2         1        31     9        0.000000        1.201164         3
         6         2         1        31     9      180.000000        0.021290         4
         6         2         1        32     9        0.000000       -0.072736         1
         6         2         1        32     9      180.000000        0.017311         2
         6         2         1        32     9        0.000000        1.201164         3
         6         2         1        32     9      180.000000        0.021290         4
         6         2         1        33     9        0.000000       -0.072736         1
         6         2         1        33     9      180.000000        0.017311         2
         6         2         1        33     9        0.000000        1.201164         3
         6         2         1        33     9      180.000000        0.021290         4
         6         2         3        34     9        0.000000       -0.629234         1
         6         2         3        34     9      180.000000        0.128149         2
         6         2         3        34     9        0.000000        0.853192         3
         6         2         3        34     9      180.000000        0.042984         4
         6         2         3        35     9        0.000000       -0.629234         1
         6         2         3        35     9      180.000000        0.128149         2
         6         2         3        35     9        0.000000        0.853192         3
         6         2         3        35     9      180.000000        0.042984         4
         6         7         8         9     9        0.000000       -0.078397         1
         6         7         8         9     9      180.000000       18.106912         2
         6         7         8         9     9        0.000000       -1.519488         3
         6         7         8         9     9      180.000000       -0.393451         4
         6         7         8        40     9        0.000000        0.074923         1
         6         7         8        40     9      180.000000       14.052827         2
         6         7         8        40     9        0.000000       -0.418117         3
         6         7         8        40     9      180.000000        0.151947         4
         6        30        29         9     9        0.000000       -0.078396         1
         6        30        29         9     9      180.000000       18.106916         2
         6        30        29         9     9        0.000000       -1.519488         3
         6        30        29         9     9      180.000000       -0.393451         4
         6        30        29        50     9        0.000000        0.074923         1
         6        30        29        50     9      180.000000       14.052826         2
         6        30        29        50     9        0.000000       -0.418117         3
         6        30        29        50     9      180.000000        0.151947         4
         7         6        30        29     9        0.000000       -0.018944         1
         7         6        30        29     9      180.000000       15.540882         2
         7         6        30        29     9        0.000000       -0.796988         3
         7         6        30        29     9      180.000000       -0.153632         4
         7         6        30        51     9        0.000000        0.139626         1
         7         6        30        51     9      180.000000       12.454231         2
         7         6        30        51     9        0.000000       -0.490596         3
         7         6        30        51     9      180.000000        0.183369         4
         7         8         9        10     9        0.000000        0.029260         1
         7         8         9        10     9      180.000000       16.770703         2
         7         8         9        10     9        0.000000        0.128853         3
         7         8         9        10     9      180.000000       -0.228233         4
         7         8         9        29     9        0.000000        0.081765         1
         7         8         9        29     9      180.000000       16.865220         2
         7         8         9        29     9        0.000000       -1.143039         3
         7         8         9        29     9      180.000000       -0.172676         4
         8         7         6        30     9        0.000000       -0.018944         1
         8         7         6        30     9      180.000000       15.540882         2
         8         7         6        30     9        0.000000       -0.796988         3
         8         7         6        30     9      180.000000       -0.153632         4
         8         9        10        11     9        0.000000        0.261376         1
         8         9        10        11     9      180.000000        3.138282         2
         8         9        10        11     9        0.000000       -0.197244         3
         8         9        10        11     9      180.000000        0.444571         4
         8         9        10        41     9        0.000000        0.273744         1
         8         9        10        41     9      180.000000        3.237242         2
         8         9        10        41     9        0.000000        0.160863         3
         8         9        10        41     9      180.000000        0.866117         4
         8         9        29        30     9        0.000000        0.081765         1
         8         9        29        30     9      180.000000       16.865222         2
         8         9        29        30     9        0.000000       -1.143038         3
         8         9        29        30     9      180.000000       -0.172676         4
         8         9        29        50     9        0.000000        0.073244         1
         8         9        29        50     9      180.000000       12.641136         2
         8         9        29        50     9        0.000000       -0.495372         3
         8         9        29        50     9      180.000000        0.184272         4
         9         8         7        39     9        0.000000        0.087981         1
         9         8         7        39     9      180.000000       14.061169         2
         9         8         7        39     9        0.000000       -0.615410         3
         9         8         7        39     9      180.000000        0.199440         4
         9        10        11        12     9        0.000000       -0.221070         1
         9        10        11        12     9      180.000000        6.857787         2
         9        10        11        12     9        0.000000       -0.014831         3
         9        10        11        12     9      180.000000       -0.550479         4
         9        10        11        19     9        0.000000        2.490538         1
         9        10        11        19     9      180.000000        5.761624         2
         9        10        11        19     9        0.000000        0.359352         3
         9        10        11        19     9      180.000000       -0.340706         4
         9        29        30        51     9        0.000000        0.087982         1
         9        29        30        51     9      180.000000       14.061171         2
         9        29        30        51     9        0.000000       -0.615411         3
         9        29        30        51     9      180.000000        0.199440         4
        10         9         8        40     9        0.000000       -0.100527         1
        10         9         8        40     9      180.000000       14.170799         2
        10         9         8        40     9        0.000000       -0.026419         3
        10         9         8        40     9      180.000000        0.106329         4
        10         9        29        30     9        0.000000        0.029260         1
        10         9        29        30     9      180.000000       16.770703         2
        10         9        29        30     9        0.000000        0.128853         3
        10         9        29        30     9      180.000000       -0.228233         4
        10         9        29        50     9        0.000000       -0.100527         1
        10         9        29        50     9      180.000000       14.170799         2
        10         9        29        50     9        0.000000       -0.026420         3
        10         9        29        50     9      180.000000        0.106329         4
        10        11        12        13     9        0.000000        1.943371         1
        10        11        12        13     9      180.000000       24.477186         2
        10        11        12        13     9        0.000000        0.699624         3
        10        11        12        13     9      180.000000       -1.007331         4
        10        11        19        15     9        0.000000        0.517582         1
        10        11        19        15     9      180.000000       12.000454         2
        10        11        19        15     9        0.000000        0.165513         3
        10        11        19        15     9      180.000000       -0.596021         4
        10        11        19        18     9        0.000000       -0.373541         1
        10        11        19        18     9      180.000000       10.813194         2
        10        11        19        18     9        0.000000       -0.126761         3
        10        11        19        18     9      180.000000       -0.468506         4
        11        10         9        29     9        0.000000        0.261376         1
        11        10         9        29     9      180.000000        3.138282         2
        11        10         9        29     9        0.000000       -0.197244         3
        11        10         9        29     9      180.000000        0.444571         4
        11        12        13        14     9        0.000000        1.012028         1
        11        12        13        14     9      180.000000       13.620728         2
        11        12        13        14     9        0.000000       -0.226826         3
        11        12        13        14     9      180.000000       -0.061795         4
        11        12        13        20     9        0.000000        1.551272         1
        11        12        13        20     9      180.000000       18.137816         2
        11        12        13        20     9        0.000000        0.656586         3
        11        12        13        20     9      180.000000       -1.048878         4
        11        19        15        14     9        0.000000        0.337947         1
        11        19        15        14     9      180.000000        5.781634         2
        11        19        15        14     9        0.000000       -0.134535         3
        11        19        15        14     9      180.000000        0.122361         4
        11        19        15        16     9        0.000000       -0.529939         1
        11        19        15        16     9      180.000000        7.254573         2
        11        19        15        16     9        0.000000       -2.285934         3
        11        19        15        16     9      180.000000        0.374903         4
        11        19        18        17     9        0.000000        1.546001         1
        11        19        18        17     9      180.000000       16.470755         2
        11        19        18        17     9        0.000000       -0.373495         3
        11        19        18        17     9      180.000000        0.010417         4
        12        11        10        41     9        0.000000       11.436749         1
        12        11        10        41     9      180.000000        6.771778         2
        12        11        10        41     9        0.000000       -0.402793         3
        12        11        10        41     9      180.000000        0.118547         4
        12        11        19        15     9        0.000000       -0.070283         1
        12        11        19        15     9      180.000000        9.274434         2
        12        11        19        15     9        0.000000       -0.539211         3
        12        11        19        15     9      180.000000       -0.339003         4
        12        11        19        18     9        0.000000       -1.871942         1
        12        11        19        18     9      180.000000        6.551413         2
        12        11        19        18     9        0.000000       -0.111201         3
        12        11        19        18     9      180.000000       -0.440309         4
        12        13        14        15     9        0.000000       -0.615167         1
        12        13        14        15     9      180.000000       29.692546         2
        12        13        14        15     9        0.000000       -1.048838         3
        12        13        14        15     9      180.000000       -1.730461         4
        12        13        14        42     9        0.000000        0.287259         1
        12        13        14        42     9      180.000000       17.653570         2
        12        13        14        42     9        0.000000        0.213044         3
        12        13        14        42     9      180.000000       -0.531463         4
        12        13        20        21     9        0.000000       -0.478480         1
        12        13        20        21     9      180.000000        4.213459         2
        12        13        20        21     9        0.000000        0.158819         3
        12        13        20        21     9      180.000000        0.023849         4
        12        13        20        28     9        0.000000       -0.249697         1
        12        13        20        28     9      180.000000        4.070625         2
        12        13        20        28     9        0.000000       -0.122232         3
        12        13        20        28     9      180.000000        0.044803         4
        13        12        11        19     9        0.000000        0.893690         1
        13        12        11        19     9      180.000000       22.117335         2
        13        12        11        19     9        0.000000        0.584990         3
        13        12        11        19     9      180.000000       -0.568744         4
        13        14        15        16     9        0.000000        0.496724         1
        13        14        15        16     9      180.000000        4.951623         2
        13        14        15        16     9        0.000000        0.249348         3
        13        14        15        16     9      180.000000        0.108870         4
        13        14        15        19     9        0.000000       -0.634424         1
        13        14        15        19     9      180.000000        9.291540         2
        13        14        15        19     9        0.000000       -1.054575         3
        13        14        15        19     9      180.000000       -0.058807         4
        13        20        21        22     9        0.000000        0.236000         1
        13        20        21        22     9      180.000000       14.368995         2
        13        20        21        22     9        0.000000       -0.147065         3
        13        20        21        22     9      180.000000       -0.199062         4
        13        20        21        45     9        0.000000       -0.132256         1
        13        20        21        45     9      180.000000       12.075877         2
        13        20        21        45     9        0.000000       -0.206751         3
        13        20        21        45     9      180.000000        0.138572         4
        13        20        28        27     9        0.000000        0.253657         1
        13        20        28        27     9      180.000000       18.931391         2
        13        20        28        27     9        0.000000        0.007612         3
        13        20        28        27     9      180.000000       -0.761701         4
        13        20        28        49     9        0.000000       -0.016970         1
        13        20        28        49     9      180.000000       12.777234         2
        13        20        28        49     9        0.000000       -0.099454         3
        13        20        28        49     9      180.000000        0.149938         4
        14        13        20        21     9        0.000000       -0.325306         1
        14        13        20        21     9      180.000000        3.533701         2
        14        13        20        21     9        0.000000       -0.028931         3
        14        13        20        21     9      180.000000       -0.107973         4
        14        13        20        28     9        0.000000       -0.318428         1
        14        13        20        28     9      180.000000        3.394260         2
        14        13        20        28     9        0.000000        0.363761         3
        14        13        20        28     9      180.000000       -0.261941         4
        14        15        16        17     9        0.000000        0.967452         1
        14        15        16        17     9      180.000000        5.219958         2
        14        15        16        17     9        0.000000        0.738494         3
        14        15        16        17     9      180.000000       -0.038282         4
        14        15        16        43     9        0.000000        0.151014         1
        14        15        16        43     9      180.000000        3.680096         2
        14        15        16        43     9        0.000000        0.373012         3
        14        15        16        43     9      180.000000        0.067587         4
        14        15        19        18     9        0.000000        0.545807         1
        14        15        19        18     9      180.000000        7.748301         2
        14        15        19        18     9        0.000000       -0.729831         3
        14        15        19        18     9      180.000000        0.136710         4
        15        14        13        20     9        0.000000        0.167931         1
        15        14        13        20     9      180.000000       26.604066         2
        15        14        13        20     9        0.000000        0.428746         3
        15        14        13        20     9      180.000000       -1.876920         4
        15        16        17        18     9        0.000000       -0.258793         1
        15        16        17        18     9      180.000000       36.323027         2
        15        16        17        18     9        0.000000       -7.442937         3
        15        16        17        18     9      180.000000       -0.839992         4
        15        16        17        44     9        0.000000        0.279818         1
        15        16        17        44     9      180.000000       18.770131         2
        15        16        17        44     9        0.000000       -0.507968         3
        15        16        17        44     9      180.000000       -0.564047         4
        15        19        18        17     9        0.000000       -0.172777         1
        15        19        18        17     9      180.000000       37.627789         2
        15        19        18        17     9        0.000000       -7.120096         3
        15        19        18        17     9      180.000000        0.116816         4
        16        15        14        42     9        0.000000       -0.200405         1
        16        15        14        42     9      180.000000        3.566462         2
        16        15        14        42     9        0.000000        0.306552         3
        16        15        14        42     9      180.000000        0.065874         4
        16        15        19        18     9        0.000000        0.131710         1
        16        15        19        18     9      180.000000       15.566772         2
        16        15        19        18     9        0.000000       -7.866552         3
        16        15        19        18     9      180.000000        0.257373         4
        16        17        18        19     9        0.000000       -0.255849         1
        16        17        18        19     9      180.000000       31.025341         2
        16        17        18        19     9        0.000000       -4.653101         3
        16        17        18        19     9      180.000000        0.341646         4
        17        16        15        19     9        0.000000        0.086044         1
        17        16        15        19     9      180.000000       25.283693         2
        17        16        15        19     9        0.000000       -9.272059         3
        17        16        15        19     9      180.000000        0.296509         4
        18        17        16        43     9        0.000000        0.292780         1
        18        17        16        43     9      180.000000       15.681650         2
        18        17        16        43     9        0.000000       -0.422047         3
        18        17        16        43     9      180.000000       -0.479005         4
        19        11        10        41     9        0.000000        2.941475         1
        19        11        10        41     9      180.000000        7.228743         2
        19        11        10        41     9        0.000000       -0.167485         3
        19        11        10        41     9      180.000000        0.477374         4
        19        15        14        42     9        0.000000        0.590660         1
        19        15        14        42     9      180.000000        4.595215         2
        19        15        14        42     9        0.000000        0.398248         3
        19        15        14        42     9      180.000000        0.099105         4
        19        15        16        43     9        0.000000        1.026521         1
        19        15        16        43     9      180.000000        6.099844         2
        19        15        16        43     9        0.000000        0.349087         3
        19        15        16        43     9      180.000000        0.232410         4
        19        18        17        44     9        0.000000        2.009586         1
        19        18        17        44     9      180.000000       22.682232         2
        19        18        17        44     9        0.000000        0.566971         3
        19        18        17        44     9      180.000000       -0.265561         4
        20        13        14        42     9        0.000000       -0.096732         1
        20        13        14        42     9      180.000000       14.902793         2
        20        13        14        42     9        0.000000        0.326008         3
        20        13        14        42     9      180.000000       -0.006970         4
        20        21        22        23     9        0.000000       -0.107889         1
        20        21        22        23     9      180.000000       21.232215         2
        20        21        22        23     9        0.000000       -1.587275         3
        20        21        22        23     9      180.000000       -0.422021         4
        20        21        22        46     9        0.000000       -0.009248         1
        20        21        22        46     9      180.000000       15.753535         2
        20        21        22        46     9        0.000000       -0.469098         3
        20        21        22        46     9      180.000000        0.063646         4
        20        28        27        23     9        0.000000       -0.066774         1
        20        28        27        23     9      180.000000       16.902019         2
        20        28        27        23     9        0.000000       -1.560631         3
        20        28        27        23     9      180.000000       -0.377307         4
        20        28        27        26     9        0.000000        0.254192         1
        20        28        27        26     9      180.000000       14.622402         2
        20        28        27        26     9        0.000000       -0.237802         3
        20        28        27        26     9      180.000000       -0.298818         4
        21        20        28        27     9        0.000000       -0.244727         1
        21        20        28        27     9      180.000000       20.621677         2
        21        20        28        27     9        0.000000       -1.717587         3
        21        20        28        27     9      180.000000       -0.461429         4
        21        20        28        49     9        0.000000       -0.015047         1
        21        20        28        49     9      180.000000       14.201647         2
        21        20        28        49     9        0.000000       -0.489871         3
        21        20        28        49     9      180.000000        0.066589         4
        21        22        23        24     9        0.000000        0.139640         1
        21        22        23        24     9      180.000000       11.636698         2
        21        22        23        24     9        0.000000       -0.542128         3
        21        22        23        24     9      180.000000       -0.119475         4
        21        22        23        27     9        0.000000        0.040250         1
        21        22        23        27     9      180.000000       19.441381         2
        21        22        23        27     9        0.000000       -2.386377         3
        21        22        23        27     9      180.000000       -0.429819         4
        22        21        20        28     9        0.000000       -0.107119         1
        22        21        20        28     9      180.000000       16.592383         2
        22        21        20        28     9        0.000000       -1.318220         3
        22        21        20        28     9      180.000000       -0.279142         4
        22        23        24        25     9        0.000000       -0.220760         1
        22        23        24        25     9      180.000000        4.549868         2
        22        23        24        25     9        0.000000       -0.722273         3
        22        23        24        25     9      180.000000        0.079155         4
        22        23        24        47     9        0.000000       -0.517556         1
        22        23        24        47     9      180.000000        4.883030         2
        22        23        24        47     9        0.000000        0.082458         3
        22        23        24        47     9      180.000000        0.099245         4
        22        23        27        26     9        0.000000        0.408956         1
        22        23        27        26     9      180.000000        9.908660         2
        22        23        27        26     9        0.000000       -1.829778         3
        22        23        27        26     9      180.000000        0.066646         4
        22        23        27        28     9        0.000000       -0.240999         1
        22        23        27        28     9      180.000000        9.774335         2
        22        23        27        28     9        0.000000       -1.540979         3
        22        23        27        28     9      180.000000        0.061509         4
        23        22        21        45     9        0.000000        0.116069         1
        23        22        21        45     9      180.000000       16.925254         2
        23        22        21        45     9        0.000000       -0.405095         3
        23        22        21        45     9      180.000000       -0.044939         4
        23        24        25        26     9        0.000000       -0.284270         1
        23        24        25        26     9      180.000000       41.018076         2
        23        24        25        26     9        0.000000       -4.737093         3
        23        24        25        26     9      180.000000       -0.187157         4
        23        27        26        25     9        0.000000        0.553012         1
        23        27        26        25     9      180.000000       22.995906         2
        23        27        26        25     9        0.000000       -4.944660         3
        23        27        26        25     9      180.000000       -0.958832         4
        23        27        26        48     9        0.000000        0.214200         1
        23        27        26        48     9      180.000000        1.495357         2
        23        27        26        48     9        0.000000        0.443301         3
        23        27        26        48     9      180.000000        0.005189         4
        23        27        28        49     9        0.000000        0.144083         1
        23        27        28        49     9      180.000000       11.714342         2
        23        27        28        49     9        0.000000       -0.120434         3
        23        27        28        49     9      180.000000        0.033214         4
        24        23        22        46     9        0.000000        0.021693         1
        24        23        22        46     9      180.000000        9.433860         2
        24        23        22        46     9        0.000000        0.021702         3
        24        23        22        46     9      180.000000        0.039741         4
        24        23        27        26     9        0.000000        0.361318         1
        24        23        27        26     9      180.000000       16.000809         2
        24        23        27        26     9        0.000000       -5.553572         3
        24        23        27        26     9      180.000000       -0.093660         4
        24        23        27        28     9        0.000000       -0.036103         1
        24        23        27        28     9      180.000000        9.290578         2
        24        23        27        28     9        0.000000       -1.652287         3
        24        23        27        28     9      180.000000        0.165067         4
        24        25        26        27     9        0.000000       -0.046163         1
        24        25        26        27     9      180.000000       18.138356         2
        24        25        26        27     9        0.000000       -2.785129         3
        24        25        26        27     9      180.000000       -0.764410         4
        24        25        26        48     9        0.000000        1.177740         1
        24        25        26        48     9      180.000000        3.861928         2
        24        25        26        48     9        0.000000        0.442982         3
        24        25        26        48     9      180.000000        0.067653         4
        25        24        23        27     9        0.000000       -0.126812         1
        25        24        23        27     9      180.000000       30.398344         2
        25        24        23        27     9        0.000000       -9.789498         3
        25        24        23        27     9      180.000000       -0.317035         4
        25        26        27        28     9        0.000000        1.093301         1
        25        26        27        28     9      180.000000        4.724149         2
        25        26        27        28     9        0.000000        0.395240         3
        25        26        27        28     9      180.000000       -0.001503         4
        26        25        24        47     9        0.000000        1.701934         1
        26        25        24        47     9      180.000000       28.876370         2
        26        25        24        47     9        0.000000        0.495705         3
        26        25        24        47     9      180.000000       -0.175253         4
        26        27        28        49     9        0.000000       -0.014434         1
        26        27        28        49     9      180.000000       10.806740         2
        26        27        28        49     9        0.000000       -0.063952         3
        26        27        28        49     9      180.000000        0.069027         4
        27        23        22        46     9        0.000000        0.207944         1
        27        23        22        46     9      180.000000       14.058516         2
        27        23        22        46     9        0.000000       -0.421088         3
        27        23        22        46     9      180.000000       -0.172162         4
        27        23        24        47     9        0.000000        0.975082         1
        27        23        24        47     9      180.000000       13.204561         2
        27        23        24        47     9        0.000000        0.283179         3
        27        23        24        47     9      180.000000       -0.304877         4
        28        20        21        45     9        0.000000       -0.083817         1
        28        20        21        45     9      180.000000       12.802174         2
        28        20        21        45     9        0.000000       -0.655207         3
        28        20        21        45     9      180.000000        0.081735         4
        28        27        26        48     9        0.000000       -0.487770         1
        28        27        26        48     9      180.000000        1.252037         2
        28        27        26        48     9        0.000000       -0.071214         3
        28        27        26        48     9      180.000000       -0.079567         4
        29         9         8        40     9        0.000000        0.073244         1
        29         9         8        40     9      180.000000       12.641135         2
        29         9         8        40     9        0.000000       -0.495373         3
        29         9         8        40     9      180.000000        0.184272         4
        29         9        10        41     9        0.000000        0.273745         1
        29         9        10        41     9      180.000000        3.237242         2
        29         9        10        41     9        0.000000        0.160863         3
        29         9        10        41     9      180.000000        0.866117         4
        30         6         7        39     9        0.000000        0.139625         1
        30         6         7        39     9      180.000000       12.454230         2
        30         6         7        39     9        0.000000       -0.490596         3
        30         6         7        39     9      180.000000        0.183369         4
        34         3         4        36     9        0.000000       -0.064012         1
        34         3         4        36     9      180.000000        0.008943         2
        34         3         4        36     9        0.000000        0.741643         3
        34         3         4        36     9      180.000000       -0.050987         4
        34         3         4        37     9        0.000000       -0.064012         1
        34         3         4        37     9      180.000000        0.008943         2
        34         3         4        37     9        0.000000        0.741643         3
        34         3         4        37     9      180.000000       -0.050987         4
        35         3         4        36     9        0.000000       -0.064012         1
        35         3         4        36     9      180.000000        0.008943         2
        35         3         4        36     9        0.000000        0.741643         3
        35         3         4        36     9      180.000000       -0.050987         4
        35         3         4        37     9        0.000000       -0.064012         1
        35         3         4        37     9      180.000000        0.008943         2
        35         3         4        37     9        0.000000        0.741643         3
        35         3         4        37     9      180.000000       -0.050987         4
        36         4         5        38     9        0.000000       -0.267430         1
        36         4         5        38     9      180.000000        0.093874         2
        36         4         5        38     9        0.000000        0.906651         3
        36         4         5        38     9      180.000000        0.098039         4
        37         4         5        38     9        0.000000       -0.267430         1
        37         4         5        38     9      180.000000        0.093874         2
        37         4         5        38     9        0.000000        0.906651         3
        37         4         5        38     9      180.000000        0.098039         4
        39         7         8        40     9        0.000000       -0.204966         1
        39         7         8        40     9      180.000000       12.204631         2
        39         7         8        40     9        0.000000       -0.693912         3
        39         7         8        40     9      180.000000        0.311745         4
        43        16        17        44     9        0.000000       -0.357707         1
        43        16        17        44     9      180.000000        9.061504         2
        43        16        17        44     9        0.000000       -0.277917         3
        43        16        17        44     9      180.000000        0.193706         4
        45        21        22        46     9        0.000000       -0.091146         1
        45        21        22        46     9      180.000000       12.794649         2
        45        21        22        46     9        0.000000       -0.693019         3
        45        21        22        46     9      180.000000        0.301122         4
        50        29        30        51     9        0.000000       -0.204965         1
        50        29        30        51     9      180.000000       12.204631         2
        50        29        30        51     9        0.000000       -0.693912         3
        50        29        30        51     9      180.000000        0.311745         4

[ pairs ]
;       ai        aj funct
         1         4     1
         1         7     1
         1        30     1
         1        34     1
         1        35     1
         2         5     1
         2         8     1
         2        29     1
         2        36     1
         2        37     1
         2        39     1
         2        51     1
         3         7     1
         3        30     1
         3        31     1
         3        32     1
         3        33     1
         3        38     1
         4         6     1
         5        34     1
         5        35     1
         6         9     1
         6        31     1
         6        32     1
         6        33     1
         6        34     1
         6        35     1
         6        40     1
         6        50     1
         7        10     1
         7        29     1
         7        51     1
         8        11     1
         8        30     1
         8        41     1
         8        50     1
         9        12     1
         9        19     1
         9        39     1
         9        51     1
        10        13     1
        10        15     1
        10        18     1
        10        30     1
        10        40     1
        10        50     1
        11        14     1
        11        16     1
        11        17     1
        11        20     1
        11        29     1
        12        15     1
        12        18     1
        12        21     1
        12        28     1
        12        41     1
        12        42     1
        13        16     1
        13        19     1
        13        22     1
        13        27     1
        13        45     1
        13        49     1
        14        17     1
        14        18     1
        14        21     1
        14        28     1
        14        43     1
        15        20     1
        15        44     1
        16        42     1
        18        43     1
        19        41     1
        19        42     1
        19        43     1
        19        44     1
        20        23     1
        20        26     1
        20        42     1
        20        46     1
        21        24     1
        21        27     1
        21        49     1
        22        25     1
        22        26     1
        22        28     1
        22        47     1
        23        45     1
        23        48     1
        23        49     1
        24        28     1
        24        46     1
        24        48     1
        25        28     1
        26        47     1
        26        49     1
        27        46     1
        27        47     1
        28        45     1
        28        48     1
        29        40     1
        29        41     1
        30        39     1
        34        36     1
        34        37     1
        35        36     1
        35        37     1
        36        38     1
        37        38     1
        39        40     1
        43        44     1
        45        46     1
        50        51     1
