; ITP file created by ByteFF-ML, 2026-02-21 07:50:23.638774

[ atomtypes ]
;name           bonded.type        at.num        mass        charge   ptype           sigma         epsilon
 c0bf                                   6      0.0000       0.00000       A     3.39801e-01     4.50281e-01
 o1bf                                   8      0.0000       0.00000       A     3.15814e-01     3.04919e-01
 c2bf                                   6      0.0000       0.00000       A     3.31438e-01     4.12463e-01
 c3bf                                   6      0.0000       0.00000       A     3.31431e-01     4.13358e-01
 c4bf                                   6      0.0000       0.00000       A     3.31274e-01     4.11805e-01
 n5bf                                   7      0.0000       0.00000       A     3.27838e-01     6.48900e-01
 c6bf                                   6      0.0000       0.00000       A     3.31293e-01     4.14462e-01
 n7bf                                   7      0.0000       0.00000       A     3.38671e-01     3.94073e-01
 c8bf                                   6      0.0000       0.00000       A     3.31501e-01     4.11066e-01
 c9bf                                   6      0.0000       0.00000       A     3.31499e-01     4.12954e-01
 n10bf                                  7      0.0000       0.00000       A     3.20544e-01     8.50304e-01
 c11bf                                  6      0.0000       0.00000       A     3.31513e-01     4.11963e-01
 c12bf                                  6      0.0000       0.00000       A     3.31488e-01     4.12482e-01
 n13bf                                  7      0.0000       0.00000       A     3.38571e-01     3.94678e-01
 c14bf                                  6      0.0000       0.00000       A     3.31524e-01     4.13157e-01
 c15bf                                  6      0.0000       0.00000       A     3.31318e-01     4.13275e-01
 c16bf                                  6      0.0000       0.00000       A     3.31459e-01     4.13269e-01
 c17bf                                  6      0.0000       0.00000       A     3.31493e-01     4.13770e-01
 c18bf                                  6      0.0000       0.00000       A     3.31459e-01     4.13510e-01
 c19bf                                  6      0.0000       0.00000       A     3.31378e-01     4.12493e-01
 n20bf                                  7      0.0000       0.00000       A     3.38246e-01     3.92809e-01
 n21bf                                  7      0.0000       0.00000       A     3.20449e-01     8.56124e-01
 c22bf                                  6      0.0000       0.00000       A     3.31534e-01     4.12214e-01
 c23bf                                  6      0.0000       0.00000       A     3.31394e-01     4.12726e-01
 c24bf                                  6      0.0000       0.00000       A     3.31447e-01     4.12865e-01
 c25bf                                  6      0.0000       0.00000       A     3.31445e-01     4.13072e-01
 c26bf                                  6      0.0000       0.00000       A     3.31422e-01     4.13822e-01
 n27bf                                  7      0.0000       0.00000       A     3.18968e-01     9.01497e-01
 c28bf                                  6      0.0000       0.00000       A     3.39734e-01     4.50708e-01
 c29bf                                  6      0.0000       0.00000       A     3.39677e-01     4.50703e-01
 o30bf                                  8      0.0000       0.00000       A     3.15600e-01     3.02985e-01
 c31bf                                  6      0.0000       0.00000       A     3.39677e-01     4.50703e-01
 c32bf                                  6      0.0000       0.00000       A     3.39734e-01     4.50708e-01
 h33bf                                  1      0.0000       0.00000       A     2.42080e-01     8.75859e-02
 h34bf                                  1      0.0000       0.00000       A     2.42080e-01     8.75859e-02
 h35bf                                  1      0.0000       0.00000       A     2.42080e-01     8.75859e-02
 h36bf                                  1      0.0000       0.00000       A     2.62422e-01     6.71770e-02
 h37bf                                  1      0.0000       0.00000       A     1.10437e-01     4.36637e-02
 h38bf                                  1      0.0000       0.00000       A     2.53936e-01     6.71690e-02
 h39bf                                  1      0.0000       0.00000       A     2.54157e-01     6.73717e-02
 h40bf                                  1      0.0000       0.00000       A     2.53844e-01     6.71387e-02
 h41bf                                  1      0.0000       0.00000       A     2.62540e-01     6.75377e-02
 h42bf                                  1      0.0000       0.00000       A     2.62573e-01     6.68386e-02
 h43bf                                  1      0.0000       0.00000       A     2.53797e-01     6.68737e-02
 h44bf                                  1      0.0000       0.00000       A     1.10610e-01     4.13941e-02
 h45bf                                  1      0.0000       0.00000       A     2.62479e-01     6.75951e-02
 h46bf                                  1      0.0000       0.00000       A     2.62508e-01     6.74802e-02
 h47bf                                  1      0.0000       0.00000       A     2.62738e-01     6.79064e-02
 h48bf                                  1      0.0000       0.00000       A     2.42121e-01     8.72763e-02
 h49bf                                  1      0.0000       0.00000       A     2.42121e-01     8.72763e-02
 h50bf                                  1      0.0000       0.00000       A     2.42018e-01     8.71709e-02
 h51bf                                  1      0.0000       0.00000       A     2.42018e-01     8.71709e-02
 h52bf                                  1      0.0000       0.00000       A     2.42018e-01     8.71709e-02
 h53bf                                  1      0.0000       0.00000       A     2.42018e-01     8.71709e-02
 h54bf                                  1      0.0000       0.00000       A     2.42121e-01     8.72763e-02
 h55bf                                  1      0.0000       0.00000       A     2.42121e-01     8.72763e-02

[ moleculetype ]
;name             nrexcl
 CHEMBL3265037         3

[ atoms ]
;       nr            type      resi   res      atom      cgnr      charge          mass ; qtot
         1            c0bf         1   UNL        c0         1     0.14200       12.0110 ; qtot    0.142
         2            o1bf         1   UNL        o1         2    -0.35379       15.9990 ; qtot   -0.212
         3            c2bf         1   UNL        c2         3     0.11434       12.0110 ; qtot   -0.097
         4            c3bf         1   UNL        c3         4    -0.19561       12.0110 ; qtot   -0.293
         5            c4bf         1   UNL        c4         5     0.31576       12.0110 ; qtot    0.023
         6            n5bf         1   UNL        n5         6    -0.91402       14.0070 ; qtot   -0.891
         7            c6bf         1   UNL        c6         7     0.67837       12.0110 ; qtot   -0.213
         8            n7bf         1   UNL        n7         8    -0.75880       14.0070 ; qtot   -0.972
         9            c8bf         1   UNL        c8         9     0.39367       12.0110 ; qtot   -0.578
        10            c9bf         1   UNL        c9        10    -0.18305       12.0110 ; qtot   -0.761
        11           n10bf         1   UNL       n10        11     0.16185       14.0070 ; qtot   -0.599
        12           c11bf         1   UNL       c11        12    -0.26112       12.0110 ; qtot   -0.860
        13           c12bf         1   UNL       c12        13    -0.04248       12.0110 ; qtot   -0.903
        14           n13bf         1   UNL       n13        14    -0.27126       14.0070 ; qtot   -1.174
        15           c14bf         1   UNL       c14        15    -0.16948       12.0110 ; qtot   -1.344
        16           c15bf         1   UNL       c15        16    -0.09700       12.0110 ; qtot   -1.441
        17           c16bf         1   UNL       c16        17    -0.12311       12.0110 ; qtot   -1.564
        18           c17bf         1   UNL       c17        18    -0.03392       12.0110 ; qtot   -1.598
        19           c18bf         1   UNL       c18        19    -0.22776       12.0110 ; qtot   -1.825
        20           c19bf         1   UNL       c19        20     0.35866       12.0110 ; qtot   -1.467
        21           n20bf         1   UNL       n20        21    -0.50917       14.0070 ; qtot   -1.976
        22           n21bf         1   UNL       n21        22    -0.08410       14.0070 ; qtot   -2.060
        23           c22bf         1   UNL       c22        23    -0.02985       12.0110 ; qtot   -2.090
        24           c23bf         1   UNL       c23        24    -0.10271       12.0110 ; qtot   -2.193
        25           c24bf         1   UNL       c24        25    -0.14546       12.0110 ; qtot   -2.338
        26           c25bf         1   UNL       c25        26    -0.10547       12.0110 ; qtot   -2.444
        27           c26bf         1   UNL       c26        27     0.22058       12.0110 ; qtot   -2.223
        28           n27bf         1   UNL       n27        28    -0.78225       14.0070 ; qtot   -3.005
        29           c28bf         1   UNL       c28        29     0.15948       12.0110 ; qtot   -2.846
        30           c29bf         1   UNL       c29        30     0.13959       12.0110 ; qtot   -2.706
        31           o30bf         1   UNL       o30        31    -0.45750       15.9990 ; qtot   -3.164
        32           c31bf         1   UNL       c31        32     0.13959       12.0110 ; qtot   -3.024
        33           c32bf         1   UNL       c32        33     0.15948       12.0110 ; qtot   -2.865
        34           h33bf         1   UNL       h33        34     0.04447        1.0080 ; qtot   -2.820
        35           h34bf         1   UNL       h34        35     0.04447        1.0080 ; qtot   -2.776
        36           h35bf         1   UNL       h35        36     0.04447        1.0080 ; qtot   -2.731
        37           h36bf         1   UNL       h36        37     0.12745        1.0080 ; qtot   -2.604
        38           h37bf         1   UNL       h37        38     0.50588        1.0080 ; qtot   -2.098
        39           h38bf         1   UNL       h38        39     0.15334        1.0080 ; qtot   -1.944
        40           h39bf         1   UNL       h39        40     0.22767        1.0080 ; qtot   -1.717
        41           h40bf         1   UNL       h40        41     0.22246        1.0080 ; qtot   -1.494
        42           h41bf         1   UNL       h41        42     0.12542        1.0080 ; qtot   -1.369
        43           h42bf         1   UNL       h42        43     0.12504        1.0080 ; qtot   -1.244
        44           h43bf         1   UNL       h43        44     0.05082        1.0080 ; qtot   -1.193
        45           h44bf         1   UNL       h44        45     0.37661        1.0080 ; qtot   -0.816
        46           h45bf         1   UNL       h45        46     0.13324        1.0080 ; qtot   -0.683
        47           h46bf         1   UNL       h46        47     0.12874        1.0080 ; qtot   -0.554
        48           h47bf         1   UNL       h47        48     0.11538        1.0080 ; qtot   -0.439
        49           h48bf         1   UNL       h48        49     0.05571        1.0080 ; qtot   -0.383
        50           h49bf         1   UNL       h49        50     0.05571        1.0080 ; qtot   -0.328
        51           h50bf         1   UNL       h50        51     0.05407        1.0080 ; qtot   -0.274
        52           h51bf         1   UNL       h51        52     0.05407        1.0080 ; qtot   -0.220
        53           h52bf         1   UNL       h52        53     0.05407        1.0080 ; qtot   -0.165
        54           h53bf         1   UNL       h53        54     0.05407        1.0080 ; qtot   -0.111
        55           h54bf         1   UNL       h54        55     0.05571        1.0080 ; qtot   -0.056
        56           h55bf         1   UNL       h55        56     0.05567        1.0080 ; qtot    0.000

[ bonds ]
;       ai        aj funct               r               k
         1         2     1        0.142599   207327.414844
         1        34     1        0.109386   298977.802051
         1        35     1        0.109386   298977.802051
         1        36     1        0.109386   298977.802051
         2         3     1        0.137346   261874.527246
         3         4     1        0.139568   306251.996582
         3        27     1        0.141886   239981.563379
         4         5     1        0.140549   284830.600977
         4        37     1        0.108253   325003.589551
         5         6     1        0.140828   254775.747119
         5        25     1        0.140189   291019.315137
         6         7     1        0.136729   311607.817920
         6        38     1        0.101302   413497.768799
         7         8     1        0.132061   353646.930762
         7        15     1        0.143870   235848.075781
         8         9     1        0.137731   242889.474023
         9        10     1        0.137592   344983.108887
         9        16     1        0.148350   208057.444189
        10        11     1        0.137846   276179.598730
        10        39     1        0.108178   332012.657812
        11        12     1        0.137750   263209.071045
        11        15     1        0.138998   204565.857373
        12        13     1        0.138746   337814.101709
        12        40     1        0.107915   345078.311230
        13        14     1        0.136744   275913.399902
        13        41     1        0.108260   332273.212939
        14        15     1        0.133378   321390.292871
        16        17     1        0.142433   254268.222607
        16        24     1        0.139561   307102.024805
        17        18     1        0.138513   345982.120605
        17        42     1        0.108464   321585.677295
        18        19     1        0.140977   299472.200488
        18        43     1        0.108610   319899.819482
        19        20     1        0.143230   248711.168848
        19        23     1        0.142098   249269.716504
        20        21     1        0.132469   384599.490625
        20        44     1        0.108275   331411.488721
        21        22     1        0.136225   242542.935449
        22        23     1        0.137146   283722.188281
        22        45     1        0.100944   434666.372559
        23        24     1        0.140152   304627.402295
        24        46     1        0.108507   321591.014551
        25        26     1        0.139733   321780.704199
        25        47     1        0.108439   322856.710303
        26        27     1        0.140046   293641.950732
        26        48     1        0.108450   321690.685889
        27        28     1        0.141492   246928.550928
        28        29     1        0.146881   187072.324561
        28        33     1        0.146881   187072.324561
        29        30     1        0.152801   183606.274854
        29        49     1        0.109604   290553.262891
        29        50     1        0.109604   290553.262891
        30        31     1        0.142960   198821.476147
        30        51     1        0.109608   292184.828809
        30        52     1        0.109608   292184.828809
        31        32     1        0.142960   198821.476147
        32        33     1        0.152801   183606.274854
        32        53     1        0.109608   292184.828809
        32        54     1        0.109608   292184.828809
        33        55     1        0.109604   290553.262891
        33        56     1        0.109604   290553.262891

[ angles ]
;       ai        aj        ak funct           theta             cth
         1         2         3     1      117.692520      541.205022
         2         1        34     1      109.442184      451.651966
         2         1        35     1      109.442184      451.651966
         2         1        36     1      109.442184      451.651966
         2         3         4     1      122.811623      492.960092
         2         3        27     1      116.269493      422.800012
         3         4         5     1      120.388649      769.909181
         3         4        37     1      120.240150      410.083362
         3        27        26     1      117.230431      620.465634
         3        27        28     1      121.256920      347.836370
         4         3        27     1      120.825241      629.919344
         4         5         6     1      119.352112      529.828304
         4         5        25     1      119.036316      564.481331
         5         4        37     1      119.484390      430.675752
         5         6         7     1      131.012955      390.570871
         5         6        38     1      115.516464      445.049825
         5        25        26     1      119.733131      701.999623
         5        25        47     1      119.996170      439.058340
         6         5        25     1      121.115211      569.690902
         6         7         8     1      121.347000      603.746488
         6         7        15     1      116.105576      347.689596
         7         6        38     1      112.198647      485.186500
         7         8         9     1      119.793762      659.281466
         7        15        11     1      117.476013      691.884693
         7        15        14     1      131.168365      328.267219
         8         7        15     1      121.163086      641.590825
         8         9        10     1      121.966331      389.510187
         8         9        16     1      116.263992      505.959789
         9        10        11     1      118.184242      872.211990
         9        10        39     1      124.892982      345.345800
         9        16        17     1      119.968796      596.169245
         9        16        24     1      120.006363      462.288651
        10         9        16     1      121.468979      451.185722
        10        11        12     1      132.324738      451.412524
        10        11        15     1      121.398743      769.110508
        11        10        39     1      117.429405      489.573775
        11        12        13     1      105.222717      375.667031
        11        12        40     1      122.391075      461.871917
        11        15        14     1      111.412987      167.360000
        12        11        15     1      106.439148      167.360000
        12        13        14     1      111.710022      296.607652
        12        13        41     1      126.932030      353.254674
        13        12        40     1      132.665771      296.979153
        13        14        15     1      105.148094      501.387338
        14        13        41     1      121.224686      373.698758
        16        17        18     1      121.768967      637.524678
        16        17        42     1      118.821861      437.177245
        16        24        23     1      117.575485      752.943475
        16        24        46     1      120.740341      417.152991
        17        16        24     1      120.215416      565.096584
        17        18        19     1      118.718689      667.878789
        17        18        43     1      120.630470      435.955039
        18        17        42     1      119.666855      423.052574
        18        19        20     1      136.517990      472.986497
        18        19        23     1      119.114426      702.113072
        19        18        43     1      120.868912      437.569878
        19        20        21     1      111.479248      389.645023
        19        20        44     1      128.954620      353.879567
        19        23        22     1      105.629051      167.360000
        19        23        24     1      122.444931      646.521977
        20        19        23     1      104.386375      456.099828
        20        21        22     1      105.968895      513.160456
        21        20        44     1      119.559181      397.470551
        21        22        23     1      112.587364      425.755198
        21        22        45     1      118.749695      478.428647
        22        23        24     1      132.012619      439.872176
        23        22        45     1      128.703522      382.976326
        23        24        46     1      121.796425      432.612870
        25        26        27     1      122.307449      702.959307
        25        26        48     1      118.649643      428.024841
        26        25        47     1      120.151466      405.418594
        26        27        28     1      121.530197      534.136127
        27        26        48     1      118.880081      429.502673
        27        28        29     1      117.091599      549.630034
        27        28        33     1      117.091599      549.630034
        28        29        30     1      110.089294      665.401689
        28        29        49     1      110.203659      428.055677
        28        29        50     1      110.203659      428.055677
        28        33        32     1      110.089294      665.401689
        28        33        55     1      110.203659      428.055677
        28        33        56     1      110.203659      428.055677
        29        28        33     1      112.715073      504.139376
        29        30        31     1      112.103493      649.772978
        29        30        51     1      109.824356      502.064486
        29        30        52     1      109.824356      502.064486
        30        29        49     1      109.320969      503.594159
        30        29        50     1      109.320969      503.594159
        30        31        32     1      112.349747      591.221366
        31        30        51     1      108.186844      459.912295
        31        30        52     1      108.186844      459.912295
        31        32        33     1      112.103493      649.772978
        31        32        53     1      108.186844      459.912295
        31        32        54     1      108.186844      459.912295
        32        33        55     1      109.320969      503.594159
        32        33        56     1      109.320969      503.594159
        33        32        53     1      109.824356      502.064486
        33        32        54     1      109.824356      502.064486
        34         1        35     1      109.626175      343.195671
        34         1        36     1      109.626175      343.195671
        35         1        36     1      109.626175      343.195671
        49        29        50     1      107.580261      345.741657
        51        30        52     1      108.373306      337.630049
        53        32        54     1      108.373306      337.630049
        55        33        56     1      107.580261      345.741657

[ dihedrals ] ; propers for gromacs 4.5 or higher, use funct 9
;       ai        aj        ak        al funct           phase               k        pn
         1         2         3         4     9        0.000000       -0.458623         1
         1         2         3         4     9      180.000000        4.665697         2
         1         2         3         4     9        0.000000       -0.728908         3
         1         2         3         4     9      180.000000        0.436985         4
         1         2         3        27     9        0.000000        4.021115         1
         1         2         3        27     9      180.000000        2.819221         2
         1         2         3        27     9        0.000000        0.961755         3
         1         2         3        27     9      180.000000        0.196815         4
         2         3         4         5     9        0.000000        0.324069         1
         2         3         4         5     9      180.000000       18.466367         2
         2         3         4         5     9        0.000000        0.288808         3
         2         3         4         5     9      180.000000       -0.339719         4
         2         3         4        37     9        0.000000        0.128128         1
         2         3         4        37     9      180.000000       14.340327         2
         2         3         4        37     9        0.000000        0.067660         3
         2         3         4        37     9      180.000000        0.336841         4
         2         3        27        26     9        0.000000        0.325936         1
         2         3        27        26     9      180.000000       12.734892         2
         2         3        27        26     9        0.000000        0.156171         3
         2         3        27        26     9      180.000000        0.000298         4
         2         3        27        28     9        0.000000       -0.134088         1
         2         3        27        28     9      180.000000       15.248149         2
         2         3        27        28     9        0.000000       -0.246420         3
         2         3        27        28     9      180.000000       -0.111894         4
         3         2         1        34     9        0.000000        0.036013         1
         3         2         1        34     9      180.000000        0.002025         2
         3         2         1        34     9        0.000000        0.388271         3
         3         2         1        34     9      180.000000       -0.023634         4
         3         2         1        35     9        0.000000        0.036013         1
         3         2         1        35     9      180.000000        0.002025         2
         3         2         1        35     9        0.000000        0.388271         3
         3         2         1        35     9      180.000000       -0.023634         4
         3         2         1        36     9        0.000000        0.036013         1
         3         2         1        36     9      180.000000        0.002025         2
         3         2         1        36     9        0.000000        0.388271         3
         3         2         1        36     9      180.000000       -0.023634         4
         3         4         5         6     9        0.000000       -0.029918         1
         3         4         5         6     9      180.000000       15.915094         2
         3         4         5         6     9        0.000000       -0.039481         3
         3         4         5         6     9      180.000000       -0.403124         4
         3         4         5        25     9        0.000000        0.015532         1
         3         4         5        25     9      180.000000       16.074499         2
         3         4         5        25     9        0.000000       -1.499582         3
         3         4         5        25     9      180.000000       -0.219451         4
         3        27        26        25     9        0.000000        0.096310         1
         3        27        26        25     9      180.000000       16.962612         2
         3        27        26        25     9        0.000000       -1.150287         3
         3        27        26        25     9      180.000000       -0.234717         4
         3        27        26        48     9        0.000000        0.123476         1
         3        27        26        48     9      180.000000       13.180861         2
         3        27        26        48     9        0.000000       -0.426570         3
         3        27        26        48     9      180.000000        0.148168         4
         3        27        28        29     9        0.000000        4.715170         1
         3        27        28        29     9      180.000000        3.199046         2
         3        27        28        29     9        0.000000        1.706474         3
         3        27        28        29     9      180.000000       -0.001838         4
         3        27        28        33     9        0.000000        4.715170         1
         3        27        28        33     9      180.000000        3.199046         2
         3        27        28        33     9        0.000000        1.706474         3
         3        27        28        33     9      180.000000       -0.001838         4
         4         3        27        26     9        0.000000       -0.010021         1
         4         3        27        26     9      180.000000       11.709770         2
         4         3        27        26     9        0.000000       -0.533705         3
         4         3        27        26     9      180.000000       -0.104412         4
         4         3        27        28     9        0.000000        0.052133         1
         4         3        27        28     9      180.000000       13.235084         2
         4         3        27        28     9        0.000000       -0.073861         3
         4         3        27        28     9      180.000000       -0.224729         4
         4         5         6         7     9        0.000000       -0.497196         1
         4         5         6         7     9      180.000000        3.613214         2
         4         5         6         7     9        0.000000       -0.275146         3
         4         5         6         7     9      180.000000        0.414375         4
         4         5         6        38     9        0.000000        1.822610         1
         4         5         6        38     9      180.000000        3.469518         2
         4         5         6        38     9        0.000000        0.480134         3
         4         5         6        38     9      180.000000        0.879213         4
         4         5        25        26     9        0.000000       -0.014879         1
         4         5        25        26     9      180.000000       17.214232         2
         4         5        25        26     9        0.000000       -1.280649         3
         4         5        25        26     9      180.000000       -0.280236         4
         4         5        25        47     9        0.000000        0.073982         1
         4         5        25        47     9      180.000000       12.946810         2
         4         5        25        47     9        0.000000       -0.480383         3
         4         5        25        47     9      180.000000        0.105313         4
         5         4         3        27     9        0.000000       -0.171584         1
         5         4         3        27     9      180.000000       16.408712         2
         5         4         3        27     9        0.000000       -1.294988         3
         5         4         3        27     9      180.000000       -0.360795         4
         5         6         7         8     9        0.000000       -0.178739         1
         5         6         7         8     9      180.000000        6.854143         2
         5         6         7         8     9        0.000000       -0.015969         3
         5         6         7         8     9      180.000000       -0.520192         4
         5         6         7        15     9        0.000000        2.383176         1
         5         6         7        15     9      180.000000        5.746452         2
         5         6         7        15     9        0.000000        0.352996         3
         5         6         7        15     9      180.000000       -0.331704         4
         5        25        26        27     9        0.000000       -0.260963         1
         5        25        26        27     9      180.000000       17.434179         2
         5        25        26        27     9        0.000000       -1.787104         3
         5        25        26        27     9      180.000000       -0.312199         4
         5        25        26        48     9        0.000000        0.111332         1
         5        25        26        48     9      180.000000       13.644227         2
         5        25        26        48     9        0.000000       -0.600543         3
         5        25        26        48     9      180.000000        0.126068         4
         6         5         4        37     9        0.000000       -0.152403         1
         6         5         4        37     9      180.000000       13.374065         2
         6         5         4        37     9        0.000000       -0.120772         3
         6         5         4        37     9      180.000000        0.252233         4
         6         5        25        26     9        0.000000        0.108039         1
         6         5        25        26     9      180.000000       17.533502         2
         6         5        25        26     9        0.000000        0.110656         3
         6         5        25        26     9      180.000000       -0.396508         4
         6         5        25        47     9        0.000000       -0.049126         1
         6         5        25        47     9      180.000000       14.260680         2
         6         5        25        47     9        0.000000       -0.013240         3
         6         5        25        47     9      180.000000        0.097423         4
         6         7         8         9     9        0.000000        1.977215         1
         6         7         8         9     9      180.000000       24.436278         2
         6         7         8         9     9        0.000000        0.709093         3
         6         7         8         9     9      180.000000       -0.989166         4
         6         7        15        11     9        0.000000        0.532707         1
         6         7        15        11     9      180.000000       12.023478         2
         6         7        15        11     9        0.000000        0.177021         3
         6         7        15        11     9      180.000000       -0.593144         4
         6         7        15        14     9        0.000000       -0.356302         1
         6         7        15        14     9      180.000000       10.853867         2
         6         7        15        14     9        0.000000       -0.107328         3
         6         7        15        14     9      180.000000       -0.464326         4
         7         6         5        25     9        0.000000        0.377892         1
         7         6         5        25     9      180.000000        3.314793         2
         7         6         5        25     9        0.000000       -0.166938         3
         7         6         5        25     9      180.000000        0.459896         4
         7         8         9        10     9        0.000000        1.012028         1
         7         8         9        10     9      180.000000       13.620728         2
         7         8         9        10     9        0.000000       -0.226826         3
         7         8         9        10     9      180.000000       -0.061795         4
         7         8         9        16     9        0.000000        1.551272         1
         7         8         9        16     9      180.000000       18.137816         2
         7         8         9        16     9        0.000000        0.656586         3
         7         8         9        16     9      180.000000       -1.048878         4
         7        15        11        10     9        0.000000        0.337947         1
         7        15        11        10     9      180.000000        5.781634         2
         7        15        11        10     9        0.000000       -0.134535         3
         7        15        11        10     9      180.000000        0.122361         4
         7        15        11        12     9        0.000000       -0.529939         1
         7        15        11        12     9      180.000000        7.254573         2
         7        15        11        12     9        0.000000       -2.285934         3
         7        15        11        12     9      180.000000        0.374903         4
         7        15        14        13     9        0.000000        1.546001         1
         7        15        14        13     9      180.000000       16.470755         2
         7        15        14        13     9        0.000000       -0.373495         3
         7        15        14        13     9      180.000000        0.010417         4
         8         7         6        38     9        0.000000       11.460095         1
         8         7         6        38     9      180.000000        6.771971         2
         8         7         6        38     9        0.000000       -0.389215         3
         8         7         6        38     9      180.000000        0.126291         4
         8         7        15        11     9        0.000000       -0.070283         1
         8         7        15        11     9      180.000000        9.274434         2
         8         7        15        11     9        0.000000       -0.539211         3
         8         7        15        11     9      180.000000       -0.339003         4
         8         7        15        14     9        0.000000       -1.871942         1
         8         7        15        14     9      180.000000        6.551413         2
         8         7        15        14     9        0.000000       -0.111201         3
         8         7        15        14     9      180.000000       -0.440309         4
         8         9        10        11     9        0.000000       -0.615167         1
         8         9        10        11     9      180.000000       29.692546         2
         8         9        10        11     9        0.000000       -1.048838         3
         8         9        10        11     9      180.000000       -1.730461         4
         8         9        10        39     9        0.000000        0.287258         1
         8         9        10        39     9      180.000000       17.653568         2
         8         9        10        39     9        0.000000        0.213045         3
         8         9        10        39     9      180.000000       -0.531464         4
         8         9        16        17     9        0.000000       -0.478480         1
         8         9        16        17     9      180.000000        4.213459         2
         8         9        16        17     9        0.000000        0.158819         3
         8         9        16        17     9      180.000000        0.023849         4
         8         9        16        24     9        0.000000       -0.249697         1
         8         9        16        24     9      180.000000        4.070625         2
         8         9        16        24     9        0.000000       -0.122232         3
         8         9        16        24     9      180.000000        0.044803         4
         9         8         7        15     9        0.000000        0.893690         1
         9         8         7        15     9      180.000000       22.117335         2
         9         8         7        15     9        0.000000        0.584990         3
         9         8         7        15     9      180.000000       -0.568744         4
         9        10        11        12     9        0.000000        0.496724         1
         9        10        11        12     9      180.000000        4.951623         2
         9        10        11        12     9        0.000000        0.249348         3
         9        10        11        12     9      180.000000        0.108870         4
         9        10        11        15     9        0.000000       -0.634424         1
         9        10        11        15     9      180.000000        9.291540         2
         9        10        11        15     9        0.000000       -1.054575         3
         9        10        11        15     9      180.000000       -0.058807         4
         9        16        17        18     9        0.000000        0.236000         1
         9        16        17        18     9      180.000000       14.368995         2
         9        16        17        18     9        0.000000       -0.147065         3
         9        16        17        18     9      180.000000       -0.199062         4
         9        16        17        42     9        0.000000       -0.132256         1
         9        16        17        42     9      180.000000       12.075875         2
         9        16        17        42     9        0.000000       -0.206751         3
         9        16        17        42     9      180.000000        0.138571         4
         9        16        24        23     9        0.000000        0.253658         1
         9        16        24        23     9      180.000000       18.931389         2
         9        16        24        23     9        0.000000        0.007612         3
         9        16        24        23     9      180.000000       -0.761700         4
         9        16        24        46     9        0.000000       -0.016970         1
         9        16        24        46     9      180.000000       12.777236         2
         9        16        24        46     9        0.000000       -0.099454         3
         9        16        24        46     9      180.000000        0.149938         4
        10         9        16        17     9        0.000000       -0.325306         1
        10         9        16        17     9      180.000000        3.533701         2
        10         9        16        17     9        0.000000       -0.028931         3
        10         9        16        17     9      180.000000       -0.107973         4
        10         9        16        24     9        0.000000       -0.318427         1
        10         9        16        24     9      180.000000        3.394259         2
        10         9        16        24     9        0.000000        0.363761         3
        10         9        16        24     9      180.000000       -0.261940         4
        10        11        12        13     9        0.000000        0.967452         1
        10        11        12        13     9      180.000000        5.219958         2
        10        11        12        13     9        0.000000        0.738494         3
        10        11        12        13     9      180.000000       -0.038282         4
        10        11        12        40     9        0.000000        0.151014         1
        10        11        12        40     9      180.000000        3.680098         2
        10        11        12        40     9        0.000000        0.373012         3
        10        11        12        40     9      180.000000        0.067587         4
        10        11        15        14     9        0.000000        0.545807         1
        10        11        15        14     9      180.000000        7.748301         2
        10        11        15        14     9        0.000000       -0.729831         3
        10        11        15        14     9      180.000000        0.136710         4
        11        10         9        16     9        0.000000        0.167931         1
        11        10         9        16     9      180.000000       26.604066         2
        11        10         9        16     9        0.000000        0.428746         3
        11        10         9        16     9      180.000000       -1.876920         4
        11        12        13        14     9        0.000000       -0.258793         1
        11        12        13        14     9      180.000000       36.323027         2
        11        12        13        14     9        0.000000       -7.442937         3
        11        12        13        14     9      180.000000       -0.839992         4
        11        12        13        41     9        0.000000        0.279819         1
        11        12        13        41     9      180.000000       18.770133         2
        11        12        13        41     9        0.000000       -0.507968         3
        11        12        13        41     9      180.000000       -0.564047         4
        11        15        14        13     9        0.000000       -0.172777         1
        11        15        14        13     9      180.000000       37.627789         2
        11        15        14        13     9        0.000000       -7.120096         3
        11        15        14        13     9      180.000000        0.116816         4
        12        11        10        39     9        0.000000       -0.200404         1
        12        11        10        39     9      180.000000        3.566462         2
        12        11        10        39     9        0.000000        0.306552         3
        12        11        10        39     9      180.000000        0.065875         4
        12        11        15        14     9        0.000000        0.131710         1
        12        11        15        14     9      180.000000       15.566772         2
        12        11        15        14     9        0.000000       -7.866552         3
        12        11        15        14     9      180.000000        0.257373         4
        12        13        14        15     9        0.000000       -0.255849         1
        12        13        14        15     9      180.000000       31.025341         2
        12        13        14        15     9        0.000000       -4.653101         3
        12        13        14        15     9      180.000000        0.341646         4
        13        12        11        15     9        0.000000        0.086044         1
        13        12        11        15     9      180.000000       25.283693         2
        13        12        11        15     9        0.000000       -9.272059         3
        13        12        11        15     9      180.000000        0.296509         4
        14        13        12        40     9        0.000000        0.292780         1
        14        13        12        40     9      180.000000       15.681647         2
        14        13        12        40     9        0.000000       -0.422048         3
        14        13        12        40     9      180.000000       -0.479005         4
        15         7         6        38     9        0.000000        3.047133         1
        15         7         6        38     9      180.000000        7.216450         2
        15         7         6        38     9        0.000000       -0.156868         3
        15         7         6        38     9      180.000000        0.486791         4
        15        11        10        39     9        0.000000        0.590661         1
        15        11        10        39     9      180.000000        4.595214         2
        15        11        10        39     9        0.000000        0.398248         3
        15        11        10        39     9      180.000000        0.099104         4
        15        11        12        40     9        0.000000        1.026521         1
        15        11        12        40     9      180.000000        6.099846         2
        15        11        12        40     9        0.000000        0.349087         3
        15        11        12        40     9      180.000000        0.232409         4
        15        14        13        41     9        0.000000        2.009587         1
        15        14        13        41     9      180.000000       22.682230         2
        15        14        13        41     9        0.000000        0.566970         3
        15        14        13        41     9      180.000000       -0.265560         4
        16         9        10        39     9        0.000000       -0.096732         1
        16         9        10        39     9      180.000000       14.902795         2
        16         9        10        39     9        0.000000        0.326008         3
        16         9        10        39     9      180.000000       -0.006970         4
        16        17        18        19     9        0.000000       -0.107889         1
        16        17        18        19     9      180.000000       21.232215         2
        16        17        18        19     9        0.000000       -1.587275         3
        16        17        18        19     9      180.000000       -0.422021         4
        16        17        18        43     9        0.000000       -0.009248         1
        16        17        18        43     9      180.000000       15.753535         2
        16        17        18        43     9        0.000000       -0.469098         3
        16        17        18        43     9      180.000000        0.063646         4
        16        24        23        19     9        0.000000       -0.066773         1
        16        24        23        19     9      180.000000       16.902019         2
        16        24        23        19     9        0.000000       -1.560631         3
        16        24        23        19     9      180.000000       -0.377307         4
        16        24        23        22     9        0.000000        0.254192         1
        16        24        23        22     9      180.000000       14.622405         2
        16        24        23        22     9        0.000000       -0.237802         3
        16        24        23        22     9      180.000000       -0.298818         4
        17        16        24        23     9        0.000000       -0.244728         1
        17        16        24        23     9      180.000000       20.621677         2
        17        16        24        23     9        0.000000       -1.717587         3
        17        16        24        23     9      180.000000       -0.461428         4
        17        16        24        46     9        0.000000       -0.015046         1
        17        16        24        46     9      180.000000       14.201644         2
        17        16        24        46     9        0.000000       -0.489870         3
        17        16        24        46     9      180.000000        0.066589         4
        17        18        19        20     9        0.000000        0.139640         1
        17        18        19        20     9      180.000000       11.636698         2
        17        18        19        20     9        0.000000       -0.542128         3
        17        18        19        20     9      180.000000       -0.119475         4
        17        18        19        23     9        0.000000        0.040252         1
        17        18        19        23     9      180.000000       19.441381         2
        17        18        19        23     9        0.000000       -2.386377         3
        17        18        19        23     9      180.000000       -0.429819         4
        18        17        16        24     9        0.000000       -0.107118         1
        18        17        16        24     9      180.000000       16.592384         2
        18        17        16        24     9        0.000000       -1.318221         3
        18        17        16        24     9      180.000000       -0.279142         4
        18        19        20        21     9        0.000000       -0.220760         1
        18        19        20        21     9      180.000000        4.549868         2
        18        19        20        21     9        0.000000       -0.722273         3
        18        19        20        21     9      180.000000        0.079155         4
        18        19        20        44     9        0.000000       -0.517556         1
        18        19        20        44     9      180.000000        4.883030         2
        18        19        20        44     9        0.000000        0.082458         3
        18        19        20        44     9      180.000000        0.099245         4
        18        19        23        22     9        0.000000        0.408955         1
        18        19        23        22     9      180.000000        9.908659         2
        18        19        23        22     9        0.000000       -1.829778         3
        18        19        23        22     9      180.000000        0.066646         4
        18        19        23        24     9        0.000000       -0.240999         1
        18        19        23        24     9      180.000000        9.774335         2
        18        19        23        24     9        0.000000       -1.540979         3
        18        19        23        24     9      180.000000        0.061509         4
        19        18        17        42     9        0.000000        0.116069         1
        19        18        17        42     9      180.000000       16.925254         2
        19        18        17        42     9        0.000000       -0.405095         3
        19        18        17        42     9      180.000000       -0.044940         4
        19        20        21        22     9        0.000000       -0.284270         1
        19        20        21        22     9      180.000000       41.018076         2
        19        20        21        22     9        0.000000       -4.737093         3
        19        20        21        22     9      180.000000       -0.187157         4
        19        23        22        21     9        0.000000        0.553013         1
        19        23        22        21     9      180.000000       22.995906         2
        19        23        22        21     9        0.000000       -4.944660         3
        19        23        22        21     9      180.000000       -0.958832         4
        19        23        22        45     9        0.000000        0.214200         1
        19        23        22        45     9      180.000000        1.495357         2
        19        23        22        45     9        0.000000        0.443301         3
        19        23        22        45     9      180.000000        0.005188         4
        19        23        24        46     9        0.000000        0.144083         1
        19        23        24        46     9      180.000000       11.714340         2
        19        23        24        46     9        0.000000       -0.120435         3
        19        23        24        46     9      180.000000        0.033214         4
        20        19        18        43     9        0.000000        0.021693         1
        20        19        18        43     9      180.000000        9.433860         2
        20        19        18        43     9        0.000000        0.021702         3
        20        19        18        43     9      180.000000        0.039741         4
        20        19        23        22     9        0.000000        0.361316         1
        20        19        23        22     9      180.000000       16.000808         2
        20        19        23        22     9        0.000000       -5.553572         3
        20        19        23        22     9      180.000000       -0.093660         4
        20        19        23        24     9        0.000000       -0.036103         1
        20        19        23        24     9      180.000000        9.290577         2
        20        19        23        24     9        0.000000       -1.652287         3
        20        19        23        24     9      180.000000        0.165067         4
        20        21        22        23     9        0.000000       -0.046164         1
        20        21        22        23     9      180.000000       18.138356         2
        20        21        22        23     9        0.000000       -2.785128         3
        20        21        22        23     9      180.000000       -0.764409         4
        20        21        22        45     9        0.000000        1.177740         1
        20        21        22        45     9      180.000000        3.861928         2
        20        21        22        45     9        0.000000        0.442982         3
        20        21        22        45     9      180.000000        0.067653         4
        21        20        19        23     9        0.000000       -0.126813         1
        21        20        19        23     9      180.000000       30.398342         2
        21        20        19        23     9        0.000000       -9.789498         3
        21        20        19        23     9      180.000000       -0.317035         4
        21        22        23        24     9        0.000000        1.093301         1
        21        22        23        24     9      180.000000        4.724150         2
        21        22        23        24     9        0.000000        0.395240         3
        21        22        23        24     9      180.000000       -0.001503         4
        22        21        20        44     9        0.000000        1.701934         1
        22        21        20        44     9      180.000000       28.876370         2
        22        21        20        44     9        0.000000        0.495705         3
        22        21        20        44     9      180.000000       -0.175253         4
        22        23        24        46     9        0.000000       -0.014433         1
        22        23        24        46     9      180.000000       10.806740         2
        22        23        24        46     9        0.000000       -0.063952         3
        22        23        24        46     9      180.000000        0.069026         4
        23        19        18        43     9        0.000000        0.207944         1
        23        19        18        43     9      180.000000       14.058516         2
        23        19        18        43     9        0.000000       -0.421089         3
        23        19        18        43     9      180.000000       -0.172162         4
        23        19        20        44     9        0.000000        0.975082         1
        23        19        20        44     9      180.000000       13.204561         2
        23        19        20        44     9        0.000000        0.283180         3
        23        19        20        44     9      180.000000       -0.304877         4
        24        16        17        42     9        0.000000       -0.083817         1
        24        16        17        42     9      180.000000       12.802173         2
        24        16        17        42     9        0.000000       -0.655207         3
        24        16        17        42     9      180.000000        0.081735         4
        24        23        22        45     9        0.000000       -0.487769         1
        24        23        22        45     9      180.000000        1.252037         2
        24        23        22        45     9        0.000000       -0.071214         3
        24        23        22        45     9      180.000000       -0.079568         4
        25         5         4        37     9        0.000000        0.024377         1
        25         5         4        37     9      180.000000       12.250252         2
        25         5         4        37     9        0.000000       -0.500833         3
        25         5         4        37     9      180.000000        0.274685         4
        25         5         6        38     9        0.000000       -0.018151         1
        25         5         6        38     9      180.000000        3.624693         2
        25         5         6        38     9        0.000000        0.096738         3
        25         5         6        38     9      180.000000        0.892329         4
        25        26        27        28     9        0.000000        0.300058         1
        25        26        27        28     9      180.000000       17.843796         2
        25        26        27        28     9        0.000000        0.183319         3
        25        26        27        28     9      180.000000       -0.334870         4
        26        27        28        29     9        0.000000       -2.082570         1
        26        27        28        29     9      180.000000        5.273191         2
        26        27        28        29     9        0.000000       -0.880452         3
        26        27        28        29     9      180.000000        0.513571         4
        26        27        28        33     9        0.000000       -2.082570         1
        26        27        28        33     9      180.000000        5.273191         2
        26        27        28        33     9        0.000000       -0.880452         3
        26        27        28        33     9      180.000000        0.513571         4
        27         3         4        37     9        0.000000        0.306632         1
        27         3         4        37     9      180.000000       12.047873         2
        27         3         4        37     9        0.000000       -0.348644         3
        27         3         4        37     9      180.000000        0.341153         4
        27        26        25        47     9        0.000000        0.025738         1
        27        26        25        47     9      180.000000       14.123264         2
        27        26        25        47     9        0.000000       -0.547847         3
        27        26        25        47     9      180.000000        0.082382         4
        27        28        29        30     9        0.000000        0.689156         1
        27        28        29        30     9      180.000000        0.403284         2
        27        28        29        30     9        0.000000        0.345809         3
        27        28        29        30     9      180.000000        0.196402         4
        27        28        29        49     9        0.000000       -0.197945         1
        27        28        29        49     9      180.000000       -0.077102         2
        27        28        29        49     9        0.000000        0.416436         3
        27        28        29        49     9      180.000000       -0.094908         4
        27        28        29        50     9        0.000000       -0.197945         1
        27        28        29        50     9      180.000000       -0.077102         2
        27        28        29        50     9        0.000000        0.416436         3
        27        28        29        50     9      180.000000       -0.094908         4
        27        28        33        32     9        0.000000        0.689156         1
        27        28        33        32     9      180.000000        0.403284         2
        27        28        33        32     9        0.000000        0.345809         3
        27        28        33        32     9      180.000000        0.196402         4
        27        28        33        55     9        0.000000       -0.197945         1
        27        28        33        55     9      180.000000       -0.077102         2
        27        28        33        55     9        0.000000        0.416436         3
        27        28        33        55     9      180.000000       -0.094908         4
        27        28        33        56     9        0.000000       -0.197945         1
        27        28        33        56     9      180.000000       -0.077102         2
        27        28        33        56     9        0.000000        0.416436         3
        27        28        33        56     9      180.000000       -0.094908         4
        28        27        26        48     9        0.000000       -0.105529         1
        28        27        26        48     9      180.000000       14.400413         2
        28        27        26        48     9        0.000000       -0.191832         3
        28        27        26        48     9      180.000000        0.252248         4
        28        29        30        31     9        0.000000       -1.638627         1
        28        29        30        31     9      180.000000       -0.659019         2
        28        29        30        31     9        0.000000        0.405310         3
        28        29        30        31     9      180.000000       -0.283227         4
        28        29        30        51     9        0.000000       -0.115079         1
        28        29        30        51     9      180.000000        0.053202         2
        28        29        30        51     9        0.000000        0.515825         3
        28        29        30        51     9      180.000000        0.010938         4
        28        29        30        52     9        0.000000       -0.115079         1
        28        29        30        52     9      180.000000        0.053202         2
        28        29        30        52     9        0.000000        0.515825         3
        28        29        30        52     9      180.000000        0.010938         4
        28        33        32        31     9        0.000000       -1.638627         1
        28        33        32        31     9      180.000000       -0.659019         2
        28        33        32        31     9        0.000000        0.405310         3
        28        33        32        31     9      180.000000       -0.283227         4
        28        33        32        53     9        0.000000       -0.115079         1
        28        33        32        53     9      180.000000        0.053202         2
        28        33        32        53     9        0.000000        0.515825         3
        28        33        32        53     9      180.000000        0.010938         4
        28        33        32        54     9        0.000000       -0.115079         1
        28        33        32        54     9      180.000000        0.053202         2
        28        33        32        54     9        0.000000        0.515825         3
        28        33        32        54     9      180.000000        0.010938         4
        29        28        33        32     9        0.000000        3.911637         1
        29        28        33        32     9      180.000000       -4.102768         2
        29        28        33        32     9        0.000000        0.484030         3
        29        28        33        32     9      180.000000        0.591866         4
        29        28        33        55     9        0.000000       -0.108405         1
        29        28        33        55     9      180.000000        0.208502         2
        29        28        33        55     9        0.000000        0.823272         3
        29        28        33        55     9      180.000000       -0.043769         4
        29        28        33        56     9        0.000000       -0.108405         1
        29        28        33        56     9      180.000000        0.208502         2
        29        28        33        56     9        0.000000        0.823272         3
        29        28        33        56     9      180.000000       -0.043769         4
        29        30        31        32     9        0.000000        1.357204         1
        29        30        31        32     9      180.000000       -1.896684         2
        29        30        31        32     9        0.000000        0.461440         3
        29        30        31        32     9      180.000000        0.048318         4
        30        29        28        33     9        0.000000        3.911637         1
        30        29        28        33     9      180.000000       -4.102768         2
        30        29        28        33     9        0.000000        0.484030         3
        30        29        28        33     9      180.000000        0.591866         4
        30        31        32        33     9        0.000000        1.357204         1
        30        31        32        33     9      180.000000       -1.896684         2
        30        31        32        33     9        0.000000        0.461440         3
        30        31        32        33     9      180.000000        0.048318         4
        30        31        32        53     9        0.000000       -0.079354         1
        30        31        32        53     9      180.000000        0.068416         2
        30        31        32        53     9        0.000000        0.353764         3
        30        31        32        53     9      180.000000        0.017368         4
        30        31        32        54     9        0.000000       -0.079354         1
        30        31        32        54     9      180.000000        0.068416         2
        30        31        32        54     9        0.000000        0.353764         3
        30        31        32        54     9      180.000000        0.017368         4
        31        30        29        49     9        0.000000       -0.038900         1
        31        30        29        49     9      180.000000        0.080056         2
        31        30        29        49     9        0.000000        0.329867         3
        31        30        29        49     9      180.000000        0.032463         4
        31        30        29        50     9        0.000000       -0.038900         1
        31        30        29        50     9      180.000000        0.080056         2
        31        30        29        50     9        0.000000        0.329867         3
        31        30        29        50     9      180.000000        0.032463         4
        31        32        33        55     9        0.000000       -0.038900         1
        31        32        33        55     9      180.000000        0.080056         2
        31        32        33        55     9        0.000000        0.329867         3
        31        32        33        55     9      180.000000        0.032463         4
        31        32        33        56     9        0.000000       -0.038900         1
        31        32        33        56     9      180.000000        0.080056         2
        31        32        33        56     9        0.000000        0.329867         3
        31        32        33        56     9      180.000000        0.032463         4
        32        31        30        51     9        0.000000       -0.079354         1
        32        31        30        51     9      180.000000        0.068416         2
        32        31        30        51     9        0.000000        0.353764         3
        32        31        30        51     9      180.000000        0.017368         4
        32        31        30        52     9        0.000000       -0.079354         1
        32        31        30        52     9      180.000000        0.068416         2
        32        31        30        52     9        0.000000        0.353764         3
        32        31        30        52     9      180.000000        0.017368         4
        33        28        29        49     9        0.000000       -0.108405         1
        33        28        29        49     9      180.000000        0.208502         2
        33        28        29        49     9        0.000000        0.823272         3
        33        28        29        49     9      180.000000       -0.043769         4
        33        28        29        50     9        0.000000       -0.108405         1
        33        28        29        50     9      180.000000        0.208502         2
        33        28        29        50     9        0.000000        0.823272         3
        33        28        29        50     9      180.000000       -0.043769         4
        40        12        13        41     9        0.000000       -0.357707         1
        40        12        13        41     9      180.000000        9.061502         2
        40        12        13        41     9        0.000000       -0.277918         3
        40        12        13        41     9      180.000000        0.193706         4
        42        17        18        43     9        0.000000       -0.091146         1
        42        17        18        43     9      180.000000       12.794648         2
        42        17        18        43     9        0.000000       -0.693019         3
        42        17        18        43     9      180.000000        0.301123         4
        47        25        26        48     9        0.000000       -0.174253         1
        47        25        26        48     9      180.000000       11.806255         2
        47        25        26        48     9        0.000000       -0.800089         3
        47        25        26        48     9      180.000000        0.239852         4
        49        29        30        51     9        0.000000        0.015571         1
        49        29        30        51     9      180.000000       -0.001045         2
        49        29        30        51     9        0.000000        0.284217         3
        49        29        30        51     9      180.000000        0.016642         4
        49        29        30        52     9        0.000000        0.015571         1
        49        29        30        52     9      180.000000       -0.001045         2
        49        29        30        52     9        0.000000        0.284217         3
        49        29        30        52     9      180.000000        0.016642         4
        50        29        30        51     9        0.000000        0.015571         1
        50        29        30        51     9      180.000000       -0.001045         2
        50        29        30        51     9        0.000000        0.284217         3
        50        29        30        51     9      180.000000        0.016642         4
        50        29        30        52     9        0.000000        0.015571         1
        50        29        30        52     9      180.000000       -0.001045         2
        50        29        30        52     9        0.000000        0.284217         3
        50        29        30        52     9      180.000000        0.016642         4
        53        32        33        55     9        0.000000        0.015571         1
        53        32        33        55     9      180.000000       -0.001045         2
        53        32        33        55     9        0.000000        0.284217         3
        53        32        33        55     9      180.000000        0.016642         4
        53        32        33        56     9        0.000000        0.015571         1
        53        32        33        56     9      180.000000       -0.001045         2
        53        32        33        56     9        0.000000        0.284217         3
        53        32        33        56     9      180.000000        0.016642         4
        54        32        33        55     9        0.000000        0.015571         1
        54        32        33        55     9      180.000000       -0.001045         2
        54        32        33        55     9        0.000000        0.284217         3
        54        32        33        55     9      180.000000        0.016642         4
        54        32        33        56     9        0.000000        0.015571         1
        54        32        33        56     9      180.000000       -0.001045         2
        54        32        33        56     9        0.000000        0.284217         3
        54        32        33        56     9      180.000000        0.016642         4

[ pairs ]
;       ai        aj funct
         1         4     1
         1        27     1
         2         5     1
         2        26     1
         2        28     1
         2        37     1
         3         6     1
         3        25     1
         3        29     1
         3        33     1
         3        34     1
         3        35     1
         3        36     1
         3        48     1
         4         7     1
         4        26     1
         4        28     1
         4        38     1
         4        47     1
         5         8     1
         5        15     1
         5        27     1
         5        48     1
         6         9     1
         6        11     1
         6        14     1
         6        26     1
         6        37     1
         6        47     1
         7        10     1
         7        12     1
         7        13     1
         7        16     1
         7        25     1
         8        11     1
         8        14     1
         8        17     1
         8        24     1
         8        38     1
         8        39     1
         9        12     1
         9        15     1
         9        18     1
         9        23     1
         9        42     1
         9        46     1
        10        13     1
        10        14     1
        10        17     1
        10        24     1
        10        40     1
        11        16     1
        11        41     1
        12        39     1
        14        40     1
        15        38     1
        15        39     1
        15        40     1
        15        41     1
        16        19     1
        16        22     1
        16        39     1
        16        43     1
        17        20     1
        17        23     1
        17        46     1
        18        21     1
        18        22     1
        18        24     1
        18        44     1
        19        42     1
        19        45     1
        19        46     1
        20        24     1
        20        43     1
        20        45     1
        21        24     1
        22        44     1
        22        46     1
        23        43     1
        23        44     1
        24        42     1
        24        45     1
        25        28     1
        25        37     1
        25        38     1
        26        29     1
        26        33     1
        27        30     1
        27        32     1
        27        37     1
        27        47     1
        27        49     1
        27        50     1
        27        55     1
        27        56     1
        28        31     1
        28        48     1
        28        51     1
        28        52     1
        28        53     1
        28        54     1
        29        32     1
        29        55     1
        29        56     1
        30        33     1
        30        53     1
        30        54     1
        31        49     1
        31        50     1
        31        55     1
        31        56     1
        32        51     1
        32        52     1
        33        49     1
        33        50     1
        40        41     1
        42        43     1
        47        48     1
        49        51     1
        49        52     1
        50        51     1
        50        52     1
        53        55     1
        53        56     1
        54        55     1
        54        56     1
