; ITP file created by ByteFF-ML, 2026-02-21 07:48:07.254481

[ atomtypes ]
;name           bonded.type        at.num        mass        charge   ptype           sigma         epsilon
 c0bf                                   6      0.0000       0.00000       A     3.39799e-01     4.50095e-01
 o1bf                                   8      0.0000       0.00000       A     3.15802e-01     3.03422e-01
 c2bf                                   6      0.0000       0.00000       A     3.31494e-01     4.13273e-01
 c3bf                                   6      0.0000       0.00000       A     3.31460e-01     4.13344e-01
 c4bf                                   6      0.0000       0.00000       A     3.31371e-01     4.12570e-01
 c5bf                                   6      0.0000       0.00000       A     3.31310e-01     4.12073e-01
 n6bf                                   7      0.0000       0.00000       A     3.27838e-01     6.48901e-01
 c7bf                                   6      0.0000       0.00000       A     3.31293e-01     4.14462e-01
 n8bf                                   7      0.0000       0.00000       A     3.38671e-01     3.94073e-01
 c9bf                                   6      0.0000       0.00000       A     3.31501e-01     4.11066e-01
 c10bf                                  6      0.0000       0.00000       A     3.31499e-01     4.12954e-01
 n11bf                                  7      0.0000       0.00000       A     3.20544e-01     8.50304e-01
 c12bf                                  6      0.0000       0.00000       A     3.31513e-01     4.11963e-01
 c13bf                                  6      0.0000       0.00000       A     3.31488e-01     4.12482e-01
 n14bf                                  7      0.0000       0.00000       A     3.38571e-01     3.94678e-01
 c15bf                                  6      0.0000       0.00000       A     3.31524e-01     4.13157e-01
 c16bf                                  6      0.0000       0.00000       A     3.31338e-01     4.12795e-01
 c17bf                                  6      0.0000       0.00000       A     3.31453e-01     4.12902e-01
 c18bf                                  6      0.0000       0.00000       A     3.31495e-01     4.13688e-01
 c19bf                                  6      0.0000       0.00000       A     3.31383e-01     4.13476e-01
 c20bf                                  6      0.0000       0.00000       A     3.31388e-01     4.12927e-01
 c21bf                                  6      0.0000       0.00000       A     3.31491e-01     4.12716e-01
 n22bf                                  7      0.0000       0.00000       A     3.20487e-01     8.54314e-01
 c23bf                                  6      0.0000       0.00000       A     3.31432e-01     4.12715e-01
 c24bf                                  6      0.0000       0.00000       A     3.31346e-01     4.13012e-01
 c25bf                                  6      0.0000       0.00000       A     3.31426e-01     4.12512e-01
 c26bf                                  6      0.0000       0.00000       A     3.31334e-01     4.12096e-01
 o27bf                                  8      0.0000       0.00000       A     3.15839e-01     3.04251e-01
 c28bf                                  6      0.0000       0.00000       A     3.39799e-01     4.50095e-01
 h29bf                                  1      0.0000       0.00000       A     2.42080e-01     8.75859e-02
 h30bf                                  1      0.0000       0.00000       A     2.42080e-01     8.75859e-02
 h31bf                                  1      0.0000       0.00000       A     2.42080e-01     8.75859e-02
 h32bf                                  1      0.0000       0.00000       A     2.62545e-01     6.69663e-02
 h33bf                                  1      0.0000       0.00000       A     2.62478e-01     6.76031e-02
 h34bf                                  1      0.0000       0.00000       A     1.10437e-01     4.36637e-02
 h35bf                                  1      0.0000       0.00000       A     2.53936e-01     6.71690e-02
 h36bf                                  1      0.0000       0.00000       A     2.54157e-01     6.73717e-02
 h37bf                                  1      0.0000       0.00000       A     2.53844e-01     6.71387e-02
 h38bf                                  1      0.0000       0.00000       A     2.62540e-01     6.75377e-02
 h39bf                                  1      0.0000       0.00000       A     2.62498e-01     6.69232e-02
 h40bf                                  1      0.0000       0.00000       A     2.62699e-01     6.73988e-02
 h41bf                                  1      0.0000       0.00000       A     2.53920e-01     6.76318e-02
 h42bf                                  1      0.0000       0.00000       A     1.10761e-01     4.16494e-02
 h43bf                                  1      0.0000       0.00000       A     2.62528e-01     6.77771e-02
 h44bf                                  1      0.0000       0.00000       A     2.62385e-01     6.71291e-02
 h45bf                                  1      0.0000       0.00000       A     2.42080e-01     8.75859e-02
 h46bf                                  1      0.0000       0.00000       A     2.42080e-01     8.75859e-02
 h47bf                                  1      0.0000       0.00000       A     2.42080e-01     8.75859e-02

[ moleculetype ]
;name             nrexcl
 CHEMBL3265016         3

[ atoms ]
;       nr            type      resi   res      atom      cgnr      charge          mass ; qtot
         1            c0bf         1   UNL        c0         1     0.14145       12.0110 ; qtot    0.141
         2            o1bf         1   UNL        o1         2    -0.33647       15.9990 ; qtot   -0.195
         3            c2bf         1   UNL        c2         3     0.08002       12.0110 ; qtot   -0.115
         4            c3bf         1   UNL        c3         4    -0.13937       12.0110 ; qtot   -0.254
         5            c4bf         1   UNL        c4         5    -0.13475       12.0110 ; qtot   -0.389
         6            c5bf         1   UNL        c5         6     0.30239       12.0110 ; qtot   -0.087
         7            n6bf         1   UNL        n6         7    -0.91203       14.0070 ; qtot   -0.999
         8            c7bf         1   UNL        c7         8     0.67837       12.0110 ; qtot   -0.320
         9            n8bf         1   UNL        n8         9    -0.75880       14.0070 ; qtot   -1.079
        10            c9bf         1   UNL        c9        10     0.39585       12.0110 ; qtot   -0.683
        11           c10bf         1   UNL       c10        11    -0.18305       12.0110 ; qtot   -0.866
        12           n11bf         1   UNL       n11        12     0.16185       14.0070 ; qtot   -0.705
        13           c12bf         1   UNL       c12        13    -0.26112       12.0110 ; qtot   -0.966
        14           c13bf         1   UNL       c13        14    -0.04248       12.0110 ; qtot   -1.008
        15           n14bf         1   UNL       n14        15    -0.27126       14.0070 ; qtot   -1.279
        16           c15bf         1   UNL       c15        16    -0.16948       12.0110 ; qtot   -1.449
        17           c16bf         1   UNL       c16        17    -0.12131       12.0110 ; qtot   -1.570
        18           c17bf         1   UNL       c17        18    -0.10988       12.0110 ; qtot   -1.680
        19           c18bf         1   UNL       c18        19    -0.06640       12.0110 ; qtot   -1.746
        20           c19bf         1   UNL       c19        20    -0.08821       12.0110 ; qtot   -1.835
        21           c20bf         1   UNL       c20        21    -0.23917       12.0110 ; qtot   -2.074
        22           c21bf         1   UNL       c21        22    -0.15387       12.0110 ; qtot   -2.228
        23           n22bf         1   UNL       n22        23    -0.24321       14.0070 ; qtot   -2.471
        24           c23bf         1   UNL       c23        24    -0.05753       12.0110 ; qtot   -2.528
        25           c24bf         1   UNL       c24        25    -0.09043       12.0110 ; qtot   -2.619
        26           c25bf         1   UNL       c25        26    -0.18949       12.0110 ; qtot   -2.808
        27           c26bf         1   UNL       c26        27     0.11411       12.0110 ; qtot   -2.694
        28           o27bf         1   UNL       o27        28    -0.33842       15.9990 ; qtot   -3.033
        29           c28bf         1   UNL       c28        29     0.14175       12.0110 ; qtot   -2.891
        30           h29bf         1   UNL       h29        30     0.04404        1.0080 ; qtot   -2.847
        31           h30bf         1   UNL       h30        31     0.04404        1.0080 ; qtot   -2.803
        32           h31bf         1   UNL       h31        32     0.04404        1.0080 ; qtot   -2.759
        33           h32bf         1   UNL       h32        33     0.12393        1.0080 ; qtot   -2.635
        34           h33bf         1   UNL       h33        34     0.13132        1.0080 ; qtot   -2.504
        35           h34bf         1   UNL       h34        35     0.50588        1.0080 ; qtot   -1.998
        36           h35bf         1   UNL       h35        36     0.15334        1.0080 ; qtot   -1.844
        37           h36bf         1   UNL       h36        37     0.22767        1.0080 ; qtot   -1.617
        38           h37bf         1   UNL       h37        38     0.22246        1.0080 ; qtot   -1.394
        39           h38bf         1   UNL       h38        39     0.12162        1.0080 ; qtot   -1.273
        40           h39bf         1   UNL       h39        40     0.11874        1.0080 ; qtot   -1.154
        41           h40bf         1   UNL       h40        41     0.20453        1.0080 ; qtot   -0.949
        42           h41bf         1   UNL       h41        42     0.21038        1.0080 ; qtot   -0.739
        43           h42bf         1   UNL       h42        43     0.34894        1.0080 ; qtot   -0.390
        44           h43bf         1   UNL       h43        44     0.12578        1.0080 ; qtot   -0.264
        45           h44bf         1   UNL       h44        45     0.13212        1.0080 ; qtot   -0.132
        46           h45bf         1   UNL       h45        46     0.04404        1.0080 ; qtot   -0.088
        47           h46bf         1   UNL       h46        47     0.04404        1.0080 ; qtot   -0.044
        48           h47bf         1   UNL       h47        48     0.04403        1.0080 ; qtot   -0.000

[ bonds ]
;       ai        aj funct               r               k
         1         2     1        0.142750   205228.507056
         1        30     1        0.109386   299034.366748
         1        31     1        0.109386   299034.366748
         1        32     1        0.109386   299034.366748
         2         3     1        0.137015   270782.100830
         3         4     1        0.139488   304008.331689
         3        27     1        0.141529   250914.434033
         4         5     1        0.140005   315466.551758
         4        33     1        0.108446   322299.133057
         5         6     1        0.140061   293503.054395
         5        34     1        0.108414   324178.051416
         6         7     1        0.141092   252182.734570
         6        26     1        0.140674   282765.542627
         7         8     1        0.136729   311607.817920
         7        35     1        0.101302   413497.768799
         8         9     1        0.132061   353646.930762
         8        16     1        0.143870   235848.075781
         9        10     1        0.137731   242889.474023
        10        11     1        0.137592   344983.108887
        10        17     1        0.148253   208814.287500
        11        12     1        0.137846   276179.598730
        11        36     1        0.108178   332012.657812
        12        13     1        0.137750   263209.071045
        12        16     1        0.138998   204565.857373
        13        14     1        0.138746   337814.101709
        13        37     1        0.107915   345078.311230
        14        15     1        0.136744   275913.425439
        14        38     1        0.108260   332273.212939
        15        16     1        0.133378   321390.292871
        17        18     1        0.141923   263310.070312
        17        25     1        0.140115   293447.613330
        18        19     1        0.138856   337922.532275
        18        39     1        0.108500   320225.060107
        19        20     1        0.140839   298915.287207
        19        40     1        0.108652   317546.932373
        20        21     1        0.143893   247260.712109
        20        24     1        0.142607   240828.654834
        21        22     1        0.137577   380776.202295
        21        41     1        0.108174   334469.480957
        22        23     1        0.138663   284187.525488
        22        42     1        0.108144   336386.858203
        23        24     1        0.138463   270968.113135
        23        43     1        0.100912   432599.296777
        24        25     1        0.139627   312257.252148
        25        44     1        0.108557   318971.979687
        26        27     1        0.139409   309212.462598
        26        45     1        0.108244   326136.952002
        27        28     1        0.136800   272579.862256
        28        29     1        0.142754   205101.357788
        29        46     1        0.109386   299034.341211
        29        47     1        0.109386   299034.341211
        29        48     1        0.109386   299034.341211

[ angles ]
;       ai        aj        ak funct           theta             cth
         1         2         3     1      117.082443      547.136590
         2         1        30     1      109.406631      448.806110
         2         1        31     1      109.406631      448.806110
         2         1        32     1      109.406631      448.806110
         2         3         4     1      124.061974      526.185244
         2         3        27     1      116.730186      403.093057
         3         4         5     1      121.105545      730.301061
         3         4        33     1      119.820435      430.270000
         3        27        26     1      119.959702      641.355245
         3        27        28     1      116.770729      382.344602
         4         3        27     1      118.961632      615.309053
         4         5         6     1      119.989258      692.295585
         4         5        34     1      119.981018      402.478985
         5         4        33     1      119.168861      430.731806
         5         6         7     1      121.161964      571.797075
         5         6        26     1      119.274185      562.540766
         6         5        34     1      119.993568      438.163871
         6         7         8     1      130.908600      390.906748
         6         7        35     1      115.466995      445.927919
         6        26        27     1      120.440468      771.725955
         6        26        45     1      119.557449      428.763885
         7         6        26     1      119.328491      531.273672
         7         8         9     1      121.347000      603.746488
         7         8        16     1      116.105576      347.689596
         8         7        35     1      112.198647      485.186500
         8         9        10     1      119.793762      659.281466
         8        16        12     1      117.476013      691.884693
         8        16        15     1      131.168365      328.267219
         9         8        16     1      121.163086      641.590825
         9        10        11     1      121.966331      389.510187
         9        10        17     1      116.369308      509.009048
        10        11        12     1      118.184242      872.211990
        10        11        36     1      124.892982      345.345800
        10        17        18     1      120.256546      590.693131
        10        17        25     1      120.119858      466.014707
        11        10        17     1      121.522606      450.357330
        11        12        13     1      132.324738      451.412524
        11        12        16     1      121.398743      769.110508
        12        11        36     1      117.429405      489.573775
        12        13        14     1      105.222717      375.667031
        12        13        37     1      122.391075      461.871917
        12        16        15     1      111.412987      167.360000
        13        12        16     1      106.439148      167.360000
        13        14        15     1      111.710022      296.607652
        13        14        38     1      126.932030      353.254706
        14        13        37     1      132.665771      296.979121
        14        15        16     1      105.148094      501.387338
        15        14        38     1      121.224686      373.698758
        17        18        19     1      121.743629      621.404187
        17        18        39     1      118.948502      435.469164
        17        25        24     1      118.076782      746.816931
        17        25        44     1      120.440140      415.080687
        18        17        25     1      119.855911      547.769272
        18        19        20     1      119.263504      708.362258
        18        19        40     1      120.292931      440.748737
        19        18        39     1      119.593201      425.355223
        19        20        21     1      134.668427      468.029074
        19        20        24     1      118.481834      695.555333
        20        19        40     1      120.533104      442.323866
        20        21        22     1      107.067444      435.562661
        20        21        41     1      127.193604      394.798955
        20        24        23     1      107.172226      167.360000
        20        24        25     1      122.528908      644.296992
        21        20        24     1      106.870499      340.877061
        21        22        23     1      109.431717      207.444483
        21        22        42     1      130.154022      347.952692
        22        21        41     1      125.755615      395.590062
        22        23        24     1      109.245102      406.655451
        22        23        43     1      125.135254      407.897481
        23        22        42     1      120.499611      458.479536
        23        24        25     1      130.262115      454.006455
        24        23        43     1      125.409302      404.971981
        24        25        44     1      121.551376      433.682492
        26        27        28     1      123.114540      463.233875
        27        26        45     1      120.054489      415.811750
        27        28        29     1      117.278854      548.766496
        28        29        46     1      109.407082      448.359562
        28        29        47     1      109.407082      448.359562
        28        29        48     1      109.407082      448.359562
        30         1        31     1      109.654236      343.283135
        30         1        32     1      109.654236      343.283135
        31         1        32     1      109.654236      343.283135
        46        29        47     1      109.654236      343.283167
        46        29        48     1      109.654236      343.283167
        47        29        48     1      109.654236      343.283167

[ dihedrals ] ; propers for gromacs 4.5 or higher, use funct 9
;       ai        aj        ak        al funct           phase               k        pn
         1         2         3         4     9        0.000000       -0.020471         1
         1         2         3         4     9      180.000000        4.264586         2
         1         2         3         4     9        0.000000       -0.661221         3
         1         2         3         4     9      180.000000        0.423658         4
         1         2         3        27     9        0.000000        0.687110         1
         1         2         3        27     9      180.000000        3.031873         2
         1         2         3        27     9        0.000000        1.138396         3
         1         2         3        27     9      180.000000        0.057396         4
         2         3         4         5     9        0.000000        0.412383         1
         2         3         4         5     9      180.000000       18.405153         2
         2         3         4         5     9        0.000000        0.286762         3
         2         3         4         5     9      180.000000       -0.248269         4
         2         3         4        33     9        0.000000        0.002515         1
         2         3         4        33     9      180.000000       13.550908         2
         2         3         4        33     9        0.000000       -0.035816         3
         2         3         4        33     9      180.000000        0.307724         4
         2         3        27        26     9        0.000000        0.190228         1
         2         3        27        26     9      180.000000       12.913656         2
         2         3        27        26     9        0.000000       -0.036672         3
         2         3        27        26     9      180.000000        0.087435         4
         2         3        27        28     9        0.000000       -0.231151         1
         2         3        27        28     9      180.000000       16.200532         2
         2         3        27        28     9        0.000000       -0.225092         3
         2         3        27        28     9      180.000000       -0.129585         4
         3         2         1        30     9        0.000000       -0.002785         1
         3         2         1        30     9      180.000000       -0.013204         2
         3         2         1        30     9        0.000000        0.475747         3
         3         2         1        30     9      180.000000       -0.002909         4
         3         2         1        31     9        0.000000       -0.002785         1
         3         2         1        31     9      180.000000       -0.013204         2
         3         2         1        31     9        0.000000        0.475747         3
         3         2         1        31     9      180.000000       -0.002909         4
         3         2         1        32     9        0.000000       -0.002785         1
         3         2         1        32     9      180.000000       -0.013204         2
         3         2         1        32     9        0.000000        0.475747         3
         3         2         1        32     9      180.000000       -0.002909         4
         3         4         5         6     9        0.000000       -0.173495         1
         3         4         5         6     9      180.000000       17.663552         2
         3         4         5         6     9        0.000000       -1.660356         3
         3         4         5         6     9      180.000000       -0.412935         4
         3         4         5        34     9        0.000000        0.149237         1
         3         4         5        34     9      180.000000       14.141559         2
         3         4         5        34     9        0.000000       -0.494779         3
         3         4         5        34     9      180.000000        0.094379         4
         3        27        26         6     9        0.000000       -0.132619         1
         3        27        26         6     9      180.000000       16.584041         2
         3        27        26         6     9        0.000000       -1.316973         3
         3        27        26         6     9      180.000000       -0.328534         4
         3        27        26        45     9        0.000000        0.166400         1
         3        27        26        45     9      180.000000       12.784533         2
         3        27        26        45     9        0.000000       -0.336161         3
         3        27        26        45     9      180.000000        0.291888         4
         3        27        28        29     9        0.000000        0.802291         1
         3        27        28        29     9      180.000000        3.527079         2
         3        27        28        29     9        0.000000        1.195050         3
         3        27        28        29     9      180.000000        0.043134         4
         4         3        27        26     9        0.000000        0.246300         1
         4         3        27        26     9      180.000000       12.038167         2
         4         3        27        26     9        0.000000       -0.447743         3
         4         3        27        26     9      180.000000       -0.093295         4
         4         3        27        28     9        0.000000        0.312921         1
         4         3        27        28     9      180.000000       12.963699         2
         4         3        27        28     9        0.000000       -0.020336         3
         4         3        27        28     9      180.000000        0.087697         4
         4         5         6         7     9        0.000000        0.132129         1
         4         5         6         7     9      180.000000       17.832522         2
         4         5         6         7     9        0.000000        0.097463         3
         4         5         6         7     9      180.000000       -0.336845         4
         4         5         6        26     9        0.000000       -0.023969         1
         4         5         6        26     9      180.000000       17.298060         2
         4         5         6        26     9        0.000000       -1.297561         3
         4         5         6        26     9      180.000000       -0.244555         4
         5         4         3        27     9        0.000000        0.101367         1
         5         4         3        27     9      180.000000       16.812105         2
         5         4         3        27     9        0.000000       -1.160185         3
         5         4         3        27     9      180.000000       -0.311315         4
         5         6         7         8     9        0.000000        0.443064         1
         5         6         7         8     9      180.000000        3.120267         2
         5         6         7         8     9        0.000000       -0.198859         3
         5         6         7         8     9      180.000000        0.465134         4
         5         6         7        35     9        0.000000       -0.086586         1
         5         6         7        35     9      180.000000        3.309236         2
         5         6         7        35     9        0.000000        0.058468         3
         5         6         7        35     9      180.000000        0.892657         4
         5         6        26        27     9        0.000000        0.041058         1
         5         6        26        27     9      180.000000       15.861907         2
         5         6        26        27     9        0.000000       -1.469751         3
         5         6        26        27     9      180.000000       -0.131811         4
         5         6        26        45     9        0.000000        0.034995         1
         5         6        26        45     9      180.000000       12.257033         2
         5         6        26        45     9        0.000000       -0.533827         3
         5         6        26        45     9      180.000000        0.241321         4
         6         5         4        33     9        0.000000        0.111932         1
         6         5         4        33     9      180.000000       13.581334         2
         6         5         4        33     9        0.000000       -0.541303         3
         6         5         4        33     9      180.000000        0.103444         4
         6         7         8         9     9        0.000000       -0.174988         1
         6         7         8         9     9      180.000000        7.082817         2
         6         7         8         9     9        0.000000        0.006154         3
         6         7         8         9     9      180.000000       -0.539313         4
         6         7         8        16     9        0.000000        2.326493         1
         6         7         8        16     9      180.000000        5.951173         2
         6         7         8        16     9        0.000000        0.374079         3
         6         7         8        16     9      180.000000       -0.366443         4
         6        26        27        28     9        0.000000        0.361152         1
         6        26        27        28     9      180.000000       18.377753         2
         6        26        27        28     9        0.000000        0.246867         3
         6        26        27        28     9      180.000000       -0.381467         4
         7         6         5        34     9        0.000000       -0.024104         1
         7         6         5        34     9      180.000000       14.277814         2
         7         6         5        34     9        0.000000       -0.040262         3
         7         6         5        34     9      180.000000        0.129898         4
         7         6        26        27     9        0.000000       -0.012406         1
         7         6        26        27     9      180.000000       16.138685         2
         7         6        26        27     9        0.000000       -0.036311         3
         7         6        26        27     9      180.000000       -0.361374         4
         7         6        26        45     9        0.000000       -0.145209         1
         7         6        26        45     9      180.000000       13.428408         2
         7         6        26        45     9        0.000000       -0.139710         3
         7         6        26        45     9      180.000000        0.230595         4
         7         8         9        10     9        0.000000        1.977216         1
         7         8         9        10     9      180.000000       24.436280         2
         7         8         9        10     9        0.000000        0.709093         3
         7         8         9        10     9      180.000000       -0.989167         4
         7         8        16        12     9        0.000000        0.532707         1
         7         8        16        12     9      180.000000       12.023478         2
         7         8        16        12     9        0.000000        0.177021         3
         7         8        16        12     9      180.000000       -0.593144         4
         7         8        16        15     9        0.000000       -0.356301         1
         7         8        16        15     9      180.000000       10.853867         2
         7         8        16        15     9        0.000000       -0.107328         3
         7         8        16        15     9      180.000000       -0.464327         4
         8         7         6        26     9        0.000000       -0.444928         1
         8         7         6        26     9      180.000000        3.391439         2
         8         7         6        26     9        0.000000       -0.254058         3
         8         7         6        26     9      180.000000        0.430933         4
         8         9        10        11     9        0.000000        1.012028         1
         8         9        10        11     9      180.000000       13.620728         2
         8         9        10        11     9        0.000000       -0.226826         3
         8         9        10        11     9      180.000000       -0.061795         4
         8         9        10        17     9        0.000000        1.459514         1
         8         9        10        17     9      180.000000       18.295962         2
         8         9        10        17     9        0.000000        0.585606         3
         8         9        10        17     9      180.000000       -1.051377         4
         8        16        12        11     9        0.000000        0.337947         1
         8        16        12        11     9      180.000000        5.781634         2
         8        16        12        11     9        0.000000       -0.134535         3
         8        16        12        11     9      180.000000        0.122361         4
         8        16        12        13     9        0.000000       -0.529939         1
         8        16        12        13     9      180.000000        7.254573         2
         8        16        12        13     9        0.000000       -2.285934         3
         8        16        12        13     9      180.000000        0.374903         4
         8        16        15        14     9        0.000000        1.546001         1
         8        16        15        14     9      180.000000       16.470755         2
         8        16        15        14     9        0.000000       -0.373495         3
         8        16        15        14     9      180.000000        0.010417         4
         9         8         7        35     9        0.000000       11.460094         1
         9         8         7        35     9      180.000000        6.771968         2
         9         8         7        35     9        0.000000       -0.389214         3
         9         8         7        35     9      180.000000        0.126291         4
         9         8        16        12     9        0.000000       -0.070283         1
         9         8        16        12     9      180.000000        9.274434         2
         9         8        16        12     9        0.000000       -0.539211         3
         9         8        16        12     9      180.000000       -0.339003         4
         9         8        16        15     9        0.000000       -1.871942         1
         9         8        16        15     9      180.000000        6.551413         2
         9         8        16        15     9        0.000000       -0.111201         3
         9         8        16        15     9      180.000000       -0.440309         4
         9        10        11        12     9        0.000000       -0.615167         1
         9        10        11        12     9      180.000000       29.692546         2
         9        10        11        12     9        0.000000       -1.048838         3
         9        10        11        12     9      180.000000       -1.730461         4
         9        10        11        36     9        0.000000        0.287258         1
         9        10        11        36     9      180.000000       17.653568         2
         9        10        11        36     9        0.000000        0.213045         3
         9        10        11        36     9      180.000000       -0.531464         4
         9        10        17        18     9        0.000000       -0.376440         1
         9        10        17        18     9      180.000000        4.245893         2
         9        10        17        18     9        0.000000        0.144609         3
         9        10        17        18     9      180.000000        0.030764         4
         9        10        17        25     9        0.000000       -0.560132         1
         9        10        17        25     9      180.000000        4.159635         2
         9        10        17        25     9        0.000000       -0.012804         3
         9        10        17        25     9      180.000000        0.033512         4
        10         9         8        16     9        0.000000        0.893690         1
        10         9         8        16     9      180.000000       22.117335         2
        10         9         8        16     9        0.000000        0.584990         3
        10         9         8        16     9      180.000000       -0.568744         4
        10        11        12        13     9        0.000000        0.496724         1
        10        11        12        13     9      180.000000        4.951623         2
        10        11        12        13     9        0.000000        0.249348         3
        10        11        12        13     9      180.000000        0.108870         4
        10        11        12        16     9        0.000000       -0.634424         1
        10        11        12        16     9      180.000000        9.291540         2
        10        11        12        16     9        0.000000       -1.054575         3
        10        11        12        16     9      180.000000       -0.058807         4
        10        17        18        19     9        0.000000        0.227300         1
        10        17        18        19     9      180.000000       14.587330         2
        10        17        18        19     9        0.000000       -0.174888         3
        10        17        18        19     9      180.000000       -0.196651         4
        10        17        18        39     9        0.000000       -0.090167         1
        10        17        18        39     9      180.000000       12.041878         2
        10        17        18        39     9        0.000000       -0.187593         3
        10        17        18        39     9      180.000000        0.149173         4
        10        17        25        24     9        0.000000        0.145872         1
        10        17        25        24     9      180.000000       18.159911         2
        10        17        25        24     9        0.000000       -0.242801         3
        10        17        25        24     9      180.000000       -0.646979         4
        10        17        25        44     9        0.000000       -0.031362         1
        10        17        25        44     9      180.000000       12.543868         2
        10        17        25        44     9        0.000000       -0.137250         3
        10        17        25        44     9      180.000000        0.160077         4
        11        10        17        18     9        0.000000       -0.384900         1
        11        10        17        18     9      180.000000        3.568871         2
        11        10        17        18     9        0.000000       -0.006537         3
        11        10        17        18     9      180.000000       -0.111423         4
        11        10        17        25     9        0.000000       -0.254129         1
        11        10        17        25     9      180.000000        3.578673         2
        11        10        17        25     9        0.000000        0.258208         3
        11        10        17        25     9      180.000000       -0.233598         4
        11        12        13        14     9        0.000000        0.967452         1
        11        12        13        14     9      180.000000        5.219958         2
        11        12        13        14     9        0.000000        0.738494         3
        11        12        13        14     9      180.000000       -0.038282         4
        11        12        13        37     9        0.000000        0.151014         1
        11        12        13        37     9      180.000000        3.680096         2
        11        12        13        37     9        0.000000        0.373012         3
        11        12        13        37     9      180.000000        0.067587         4
        11        12        16        15     9        0.000000        0.545807         1
        11        12        16        15     9      180.000000        7.748301         2
        11        12        16        15     9        0.000000       -0.729831         3
        11        12        16        15     9      180.000000        0.136710         4
        12        11        10        17     9        0.000000        0.112972         1
        12        11        10        17     9      180.000000       26.582299         2
        12        11        10        17     9        0.000000        0.370277         3
        12        11        10        17     9      180.000000       -1.866078         4
        12        13        14        15     9        0.000000       -0.258793         1
        12        13        14        15     9      180.000000       36.323027         2
        12        13        14        15     9        0.000000       -7.442937         3
        12        13        14        15     9      180.000000       -0.839992         4
        12        13        14        38     9        0.000000        0.279818         1
        12        13        14        38     9      180.000000       18.770131         2
        12        13        14        38     9        0.000000       -0.507968         3
        12        13        14        38     9      180.000000       -0.564047         4
        12        16        15        14     9        0.000000       -0.172777         1
        12        16        15        14     9      180.000000       37.627789         2
        12        16        15        14     9        0.000000       -7.120096         3
        12        16        15        14     9      180.000000        0.116816         4
        13        12        11        36     9        0.000000       -0.200404         1
        13        12        11        36     9      180.000000        3.566462         2
        13        12        11        36     9        0.000000        0.306552         3
        13        12        11        36     9      180.000000        0.065875         4
        13        12        16        15     9        0.000000        0.131710         1
        13        12        16        15     9      180.000000       15.566772         2
        13        12        16        15     9        0.000000       -7.866552         3
        13        12        16        15     9      180.000000        0.257373         4
        13        14        15        16     9        0.000000       -0.255849         1
        13        14        15        16     9      180.000000       31.025341         2
        13        14        15        16     9        0.000000       -4.653101         3
        13        14        15        16     9      180.000000        0.341646         4
        14        13        12        16     9        0.000000        0.086044         1
        14        13        12        16     9      180.000000       25.283693         2
        14        13        12        16     9        0.000000       -9.272059         3
        14        13        12        16     9      180.000000        0.296509         4
        15        14        13        37     9        0.000000        0.292780         1
        15        14        13        37     9      180.000000       15.681650         2
        15        14        13        37     9        0.000000       -0.422047         3
        15        14        13        37     9      180.000000       -0.479005         4
        16         8         7        35     9        0.000000        3.047131         1
        16         8         7        35     9      180.000000        7.216451         2
        16         8         7        35     9        0.000000       -0.156869         3
        16         8         7        35     9      180.000000        0.486791         4
        16        12        11        36     9        0.000000        0.590661         1
        16        12        11        36     9      180.000000        4.595214         2
        16        12        11        36     9        0.000000        0.398248         3
        16        12        11        36     9      180.000000        0.099104         4
        16        12        13        37     9        0.000000        1.026521         1
        16        12        13        37     9      180.000000        6.099844         2
        16        12        13        37     9        0.000000        0.349087         3
        16        12        13        37     9      180.000000        0.232410         4
        16        15        14        38     9        0.000000        2.009586         1
        16        15        14        38     9      180.000000       22.682232         2
        16        15        14        38     9        0.000000        0.566971         3
        16        15        14        38     9      180.000000       -0.265561         4
        17        10        11        36     9        0.000000       -0.085013         1
        17        10        11        36     9      180.000000       14.902845         2
        17        10        11        36     9        0.000000        0.277842         3
        17        10        11        36     9      180.000000       -0.023216         4
        17        18        19        20     9        0.000000       -0.167350         1
        17        18        19        20     9      180.000000       21.244537         2
        17        18        19        20     9        0.000000       -1.588309         3
        17        18        19        20     9      180.000000       -0.465417         4
        17        18        19        40     9        0.000000       -0.031439         1
        17        18        19        40     9      180.000000       15.463639         2
        17        18        19        40     9        0.000000       -0.466544         3
        17        18        19        40     9      180.000000        0.078870         4
        17        25        24        20     9        0.000000       -0.103113         1
        17        25        24        20     9      180.000000       17.837665         2
        17        25        24        20     9        0.000000       -1.603853         3
        17        25        24        20     9      180.000000       -0.442732         4
        17        25        24        23     9        0.000000        0.252251         1
        17        25        24        23     9      180.000000       16.621054         2
        17        25        24        23     9        0.000000       -0.227544         3
        17        25        24        23     9      180.000000       -0.418259         4
        18        17        25        24     9        0.000000       -0.211161         1
        18        17        25        24     9      180.000000       20.229056         2
        18        17        25        24     9        0.000000       -1.773260         3
        18        17        25        24     9      180.000000       -0.463915         4
        18        17        25        44     9        0.000000        0.027572         1
        18        17        25        44     9      180.000000       13.793814         2
        18        17        25        44     9        0.000000       -0.549278         3
        18        17        25        44     9      180.000000        0.090441         4
        18        19        20        21     9        0.000000        0.162590         1
        18        19        20        21     9      180.000000       13.332766         2
        18        19        20        21     9        0.000000       -0.420038         3
        18        19        20        21     9      180.000000       -0.152455         4
        18        19        20        24     9        0.000000        0.049578         1
        18        19        20        24     9      180.000000       19.553294         2
        18        19        20        24     9        0.000000       -1.930204         3
        18        19        20        24     9      180.000000       -0.457364         4
        19        18        17        25     9        0.000000       -0.115583         1
        19        18        17        25     9      180.000000       16.927002         2
        19        18        17        25     9        0.000000       -1.489419         3
        19        18        17        25     9      180.000000       -0.234437         4
        19        20        21        22     9        0.000000        0.248427         1
        19        20        21        22     9      180.000000        4.302680         2
        19        20        21        22     9        0.000000       -0.440930         3
        19        20        21        22     9      180.000000        0.006949         4
        19        20        21        41     9        0.000000       -0.678195         1
        19        20        21        41     9      180.000000        4.467748         2
        19        20        21        41     9        0.000000       -0.139614         3
        19        20        21        41     9      180.000000        0.151416         4
        19        20        24        23     9        0.000000        0.503893         1
        19        20        24        23     9      180.000000       10.940326         2
        19        20        24        23     9        0.000000       -1.557612         3
        19        20        24        23     9      180.000000       -0.060555         4
        19        20        24        25     9        0.000000       -0.077646         1
        19        20        24        25     9      180.000000       10.221921         2
        19        20        24        25     9        0.000000       -1.343260         3
        19        20        24        25     9      180.000000       -0.013179         4
        20        19        18        39     9        0.000000        0.080938         1
        20        19        18        39     9      180.000000       16.402017         2
        20        19        18        39     9        0.000000       -0.471726         3
        20        19        18        39     9      180.000000       -0.018342         4
        20        21        22        23     9        0.000000       -0.207788         1
        20        21        22        23     9      180.000000       31.714652         2
        20        21        22        23     9        0.000000       -5.965251         3
        20        21        22        23     9      180.000000       -0.795315         4
        20        21        22        42     9        0.000000        0.118950         1
        20        21        22        42     9      180.000000       16.940303         2
        20        21        22        42     9        0.000000       -0.295443         3
        20        21        22        42     9      180.000000       -0.389553         4
        20        24        23        22     9        0.000000        0.000512         1
        20        24        23        22     9      180.000000       19.157918         2
        20        24        23        22     9        0.000000       -4.777254         3
        20        24        23        22     9      180.000000       -0.474138         4
        20        24        23        43     9        0.000000       -0.065486         1
        20        24        23        43     9      180.000000        1.334938         2
        20        24        23        43     9        0.000000        0.220875         3
        20        24        23        43     9      180.000000        0.066901         4
        20        24        25        44     9        0.000000        0.210295         1
        20        24        25        44     9      180.000000       12.285279         2
        20        24        25        44     9        0.000000       -0.131911         3
        20        24        25        44     9      180.000000        0.026034         4
        21        20        19        40     9        0.000000       -0.047020         1
        21        20        19        40     9      180.000000       10.678563         2
        21        20        19        40     9        0.000000       -0.001040         3
        21        20        19        40     9      180.000000        0.076869         4
        21        20        24        23     9        0.000000        0.619092         1
        21        20        24        23     9      180.000000       16.956497         2
        21        20        24        23     9        0.000000       -4.722557         3
        21        20        24        23     9      180.000000       -0.287895         4
        21        20        24        25     9        0.000000        0.296694         1
        21        20        24        25     9      180.000000        9.433630         2
        21        20        24        25     9        0.000000       -1.433262         3
        21        20        24        25     9      180.000000        0.076674         4
        21        22        23        24     9        0.000000        0.205781         1
        21        22        23        24     9      180.000000       22.071474         2
        21        22        23        24     9        0.000000       -5.703119         3
        21        22        23        24     9      180.000000       -0.773941         4
        21        22        23        43     9        0.000000        0.148108         1
        21        22        23        43     9      180.000000        2.830208         2
        21        22        23        43     9        0.000000        0.645602         3
        21        22        23        43     9      180.000000        0.078162         4
        22        21        20        24     9        0.000000       -0.169392         1
        22        21        20        24     9      180.000000       27.015113         2
        22        21        20        24     9        0.000000       -8.759549         3
        22        21        20        24     9      180.000000       -0.180049         4
        22        23        24        25     9        0.000000        0.556547         1
        22        23        24        25     9      180.000000        3.500228         2
        22        23        24        25     9        0.000000        0.371780         3
        22        23        24        25     9      180.000000        0.121512         4
        23        22        21        41     9        0.000000        0.116714         1
        23        22        21        41     9      180.000000       16.050367         2
        23        22        21        41     9        0.000000       -0.042903         3
        23        22        21        41     9      180.000000       -0.299743         4
        23        24        25        44     9        0.000000        0.012912         1
        23        24        25        44     9      180.000000       11.736211         2
        23        24        25        44     9        0.000000       -0.072069         3
        23        24        25        44     9      180.000000        0.099592         4
        24        20        19        40     9        0.000000        0.225358         1
        24        20        19        40     9      180.000000       13.787196         2
        24        20        19        40     9        0.000000       -0.365822         3
        24        20        19        40     9      180.000000       -0.115657         4
        24        20        21        41     9        0.000000        0.612718         1
        24        20        21        41     9      180.000000       10.429972         2
        24        20        21        41     9        0.000000        0.214754         3
        24        20        21        41     9      180.000000       -0.228308         4
        24        23        22        42     9        0.000000        1.223010         1
        24        23        22        42     9      180.000000        8.973255         2
        24        23        22        42     9        0.000000        0.309785         3
        24        23        22        42     9      180.000000       -0.103824         4
        25        17        18        39     9        0.000000       -0.051505         1
        25        17        18        39     9      180.000000       12.998937         2
        25        17        18        39     9        0.000000       -0.734947         3
        25        17        18        39     9      180.000000        0.084582         4
        25        24        23        43     9        0.000000       -0.763133         1
        25        24        23        43     9      180.000000        1.080247         2
        25        24        23        43     9        0.000000       -0.011087         3
        25        24        23        43     9      180.000000       -0.015184         4
        26         6         5        34     9        0.000000        0.074273         1
        26         6         5        34     9      180.000000       12.990241         2
        26         6         5        34     9        0.000000       -0.520768         3
        26         6         5        34     9      180.000000        0.132469         4
        26         6         7        35     9        0.000000        1.575093         1
        26         6         7        35     9      180.000000        3.198189         2
        26         6         7        35     9        0.000000        0.467524         3
        26         6         7        35     9      180.000000        0.863764         4
        26        27        28        29     9        0.000000        0.123069         1
        26        27        28        29     9      180.000000        4.737590         2
        26        27        28        29     9        0.000000       -0.815850         3
        26        27        28        29     9      180.000000        0.427563         4
        27         3         4        33     9        0.000000        0.222424         1
        27         3         4        33     9      180.000000       12.890975         2
        27         3         4        33     9        0.000000       -0.414499         3
        27         3         4        33     9      180.000000        0.189834         4
        27        28        29        46     9        0.000000       -0.006341         1
        27        28        29        46     9      180.000000       -0.005041         2
        27        28        29        46     9        0.000000        0.433370         3
        27        28        29        46     9      180.000000       -0.009039         4
        27        28        29        47     9        0.000000       -0.006341         1
        27        28        29        47     9      180.000000       -0.005041         2
        27        28        29        47     9        0.000000        0.433370         3
        27        28        29        47     9      180.000000       -0.009039         4
        27        28        29        48     9        0.000000       -0.006341         1
        27        28        29        48     9      180.000000       -0.005041         2
        27        28        29        48     9        0.000000        0.433370         3
        27        28        29        48     9      180.000000       -0.009039         4
        28        27        26        45     9        0.000000        0.102563         1
        28        27        26        45     9      180.000000       13.836839         2
        28        27        26        45     9        0.000000       -0.050823         3
        28        27        26        45     9      180.000000        0.307531         4
        33         4         5        34     9        0.000000       -0.192420         1
        33         4         5        34     9      180.000000       11.734676         2
        33         4         5        34     9        0.000000       -0.700233         3
        33         4         5        34     9      180.000000        0.222006         4
        37        13        14        38     9        0.000000       -0.357707         1
        37        13        14        38     9      180.000000        9.061504         2
        37        13        14        38     9        0.000000       -0.277917         3
        37        13        14        38     9      180.000000        0.193706         4
        39        18        19        40     9        0.000000       -0.086095         1
        39        18        19        40     9      180.000000       12.521457         2
        39        18        19        40     9        0.000000       -0.682132         3
        39        18        19        40     9      180.000000        0.324210         4
        41        21        22        42     9        0.000000        0.025476         1
        41        21        22        42     9      180.000000       11.547045         2
        41        21        22        42     9        0.000000       -0.429473         3
        41        21        22        42     9      180.000000        0.108665         4
        42        22        23        43     9        0.000000       -1.619434         1
        42        22        23        43     9      180.000000        0.364876         2
        42        22        23        43     9        0.000000        0.068078         3
        42        22        23        43     9      180.000000       -0.106573         4

[ pairs ]
;       ai        aj funct
         1         4     1
         1        27     1
         2         5     1
         2        26     1
         2        28     1
         2        33     1
         3         6     1
         3        29     1
         3        30     1
         3        31     1
         3        32     1
         3        34     1
         3        45     1
         4         7     1
         4        26     1
         4        28     1
         5         8     1
         5        27     1
         5        35     1
         5        45     1
         6         9     1
         6        16     1
         6        28     1
         6        33     1
         7        10     1
         7        12     1
         7        15     1
         7        27     1
         7        34     1
         7        45     1
         8        11     1
         8        13     1
         8        14     1
         8        17     1
         8        26     1
         9        12     1
         9        15     1
         9        18     1
         9        25     1
         9        35     1
         9        36     1
        10        13     1
        10        16     1
        10        19     1
        10        24     1
        10        39     1
        10        44     1
        11        14     1
        11        15     1
        11        18     1
        11        25     1
        11        37     1
        12        17     1
        12        38     1
        13        36     1
        15        37     1
        16        35     1
        16        36     1
        16        37     1
        16        38     1
        17        20     1
        17        23     1
        17        36     1
        17        40     1
        18        21     1
        18        24     1
        18        44     1
        19        22     1
        19        23     1
        19        25     1
        19        41     1
        20        39     1
        20        42     1
        20        43     1
        20        44     1
        21        25     1
        21        40     1
        21        43     1
        22        25     1
        23        41     1
        23        44     1
        24        40     1
        24        41     1
        24        42     1
        25        39     1
        25        43     1
        26        29     1
        26        34     1
        26        35     1
        27        33     1
        27        46     1
        27        47     1
        27        48     1
        28        45     1
        33        34     1
        37        38     1
        39        40     1
        41        42     1
        42        43     1
