; ITP file created by ByteFF-ML, 2026-02-21 07:48:31.440816

[ atomtypes ]
;name           bonded.type        at.num        mass        charge   ptype           sigma         epsilon
 c0bf                                   6      0.0000       0.00000       A     3.39799e-01     4.50095e-01
 o1bf                                   8      0.0000       0.00000       A     3.15802e-01     3.03422e-01
 c2bf                                   6      0.0000       0.00000       A     3.31494e-01     4.13273e-01
 c3bf                                   6      0.0000       0.00000       A     3.31460e-01     4.13344e-01
 c4bf                                   6      0.0000       0.00000       A     3.31371e-01     4.12570e-01
 c5bf                                   6      0.0000       0.00000       A     3.31310e-01     4.12073e-01
 n6bf                                   7      0.0000       0.00000       A     3.27838e-01     6.48901e-01
 c7bf                                   6      0.0000       0.00000       A     3.31293e-01     4.14462e-01
 n8bf                                   7      0.0000       0.00000       A     3.38671e-01     3.94073e-01
 c9bf                                   6      0.0000       0.00000       A     3.31512e-01     4.11272e-01
 c10bf                                  6      0.0000       0.00000       A     3.31499e-01     4.12954e-01
 n11bf                                  7      0.0000       0.00000       A     3.20544e-01     8.50304e-01
 c12bf                                  6      0.0000       0.00000       A     3.31513e-01     4.11963e-01
 c13bf                                  6      0.0000       0.00000       A     3.31488e-01     4.12482e-01
 n14bf                                  7      0.0000       0.00000       A     3.38571e-01     3.94678e-01
 c15bf                                  6      0.0000       0.00000       A     3.31524e-01     4.13157e-01
 c16bf                                  6      0.0000       0.00000       A     3.31412e-01     4.13032e-01
 c17bf                                  6      0.0000       0.00000       A     3.31436e-01     4.12949e-01
 c18bf                                  6      0.0000       0.00000       A     3.31453e-01     4.13313e-01
 c19bf                                  6      0.0000       0.00000       A     3.31621e-01     4.13203e-01
 n20bf                                  7      0.0000       0.00000       A     3.20487e-01     8.54512e-01
 c21bf                                  6      0.0000       0.00000       A     3.31491e-01     4.12716e-01
 c22bf                                  6      0.0000       0.00000       A     3.31404e-01     4.12753e-01
 c23bf                                  6      0.0000       0.00000       A     3.31469e-01     4.13709e-01
 c24bf                                  6      0.0000       0.00000       A     3.31396e-01     4.13112e-01
 c25bf                                  6      0.0000       0.00000       A     3.31426e-01     4.12512e-01
 c26bf                                  6      0.0000       0.00000       A     3.31334e-01     4.12096e-01
 o27bf                                  8      0.0000       0.00000       A     3.15839e-01     3.04251e-01
 c28bf                                  6      0.0000       0.00000       A     3.39799e-01     4.50095e-01
 h29bf                                  1      0.0000       0.00000       A     2.42080e-01     8.75859e-02
 h30bf                                  1      0.0000       0.00000       A     2.42080e-01     8.75859e-02
 h31bf                                  1      0.0000       0.00000       A     2.42080e-01     8.75859e-02
 h32bf                                  1      0.0000       0.00000       A     2.62545e-01     6.69663e-02
 h33bf                                  1      0.0000       0.00000       A     2.62478e-01     6.76031e-02
 h34bf                                  1      0.0000       0.00000       A     1.10437e-01     4.36637e-02
 h35bf                                  1      0.0000       0.00000       A     2.53936e-01     6.71690e-02
 h36bf                                  1      0.0000       0.00000       A     2.54157e-01     6.73717e-02
 h37bf                                  1      0.0000       0.00000       A     2.53844e-01     6.71387e-02
 h38bf                                  1      0.0000       0.00000       A     2.62533e-01     6.76079e-02
 h39bf                                  1      0.0000       0.00000       A     2.62476e-01     6.70732e-02
 h40bf                                  1      0.0000       0.00000       A     1.10761e-01     4.16494e-02
 h41bf                                  1      0.0000       0.00000       A     2.53920e-01     6.76318e-02
 h42bf                                  1      0.0000       0.00000       A     2.62699e-01     6.73988e-02
 h43bf                                  1      0.0000       0.00000       A     2.62335e-01     6.73541e-02
 h44bf                                  1      0.0000       0.00000       A     2.62385e-01     6.71291e-02
 h45bf                                  1      0.0000       0.00000       A     2.42080e-01     8.75859e-02
 h46bf                                  1      0.0000       0.00000       A     2.42080e-01     8.75859e-02
 h47bf                                  1      0.0000       0.00000       A     2.42080e-01     8.75859e-02

[ moleculetype ]
;name             nrexcl
 CHEMBL3265020         3

[ atoms ]
;       nr            type      resi   res      atom      cgnr      charge          mass ; qtot
         1            c0bf         1   UNL        c0         1     0.14145       12.0110 ; qtot    0.141
         2            o1bf         1   UNL        o1         2    -0.33647       15.9990 ; qtot   -0.195
         3            c2bf         1   UNL        c2         3     0.08002       12.0110 ; qtot   -0.115
         4            c3bf         1   UNL        c3         4    -0.13937       12.0110 ; qtot   -0.254
         5            c4bf         1   UNL        c4         5    -0.13475       12.0110 ; qtot   -0.389
         6            c5bf         1   UNL        c5         6     0.30239       12.0110 ; qtot   -0.087
         7            n6bf         1   UNL        n6         7    -0.91203       14.0070 ; qtot   -0.999
         8            c7bf         1   UNL        c7         8     0.67837       12.0110 ; qtot   -0.320
         9            n8bf         1   UNL        n8         9    -0.75870       14.0070 ; qtot   -1.079
        10            c9bf         1   UNL        c9        10     0.39682       12.0110 ; qtot   -0.682
        11           c10bf         1   UNL       c10        11    -0.18419       12.0110 ; qtot   -0.866
        12           n11bf         1   UNL       n11        12     0.16185       14.0070 ; qtot   -0.705
        13           c12bf         1   UNL       c12        13    -0.26112       12.0110 ; qtot   -0.966
        14           c13bf         1   UNL       c13        14    -0.04248       12.0110 ; qtot   -1.008
        15           n14bf         1   UNL       n14        15    -0.27126       14.0070 ; qtot   -1.279
        16           c15bf         1   UNL       c15        16    -0.16948       12.0110 ; qtot   -1.449
        17           c16bf         1   UNL       c16        17    -0.16292       12.0110 ; qtot   -1.612
        18           c17bf         1   UNL       c17        18    -0.06291       12.0110 ; qtot   -1.675
        19           c18bf         1   UNL       c18        19    -0.13667       12.0110 ; qtot   -1.811
        20           c19bf         1   UNL       c19        20    -0.03525       12.0110 ; qtot   -1.847
        21           n20bf         1   UNL       n20        21    -0.24192       14.0070 ; qtot   -2.089
        22           c21bf         1   UNL       c21        22    -0.15553       12.0110 ; qtot   -2.244
        23           c22bf         1   UNL       c22        23    -0.23492       12.0110 ; qtot   -2.479
        24           c23bf         1   UNL       c23        24    -0.11017       12.0110 ; qtot   -2.589
        25           c24bf         1   UNL       c24        25    -0.02688       12.0110 ; qtot   -2.616
        26           c25bf         1   UNL       c25        26    -0.18949       12.0110 ; qtot   -2.806
        27           c26bf         1   UNL       c26        27     0.11411       12.0110 ; qtot   -2.692
        28           o27bf         1   UNL       o27        28    -0.33842       15.9990 ; qtot   -3.030
        29           c28bf         1   UNL       c28        29     0.14175       12.0110 ; qtot   -2.888
        30           h29bf         1   UNL       h29        30     0.04404        1.0080 ; qtot   -2.844
        31           h30bf         1   UNL       h30        31     0.04404        1.0080 ; qtot   -2.800
        32           h31bf         1   UNL       h31        32     0.04404        1.0080 ; qtot   -2.756
        33           h32bf         1   UNL       h32        33     0.12393        1.0080 ; qtot   -2.632
        34           h33bf         1   UNL       h33        34     0.13132        1.0080 ; qtot   -2.501
        35           h34bf         1   UNL       h34        35     0.50588        1.0080 ; qtot   -1.995
        36           h35bf         1   UNL       h35        36     0.15334        1.0080 ; qtot   -1.842
        37           h36bf         1   UNL       h36        37     0.22767        1.0080 ; qtot   -1.614
        38           h37bf         1   UNL       h37        38     0.22246        1.0080 ; qtot   -1.391
        39           h38bf         1   UNL       h38        39     0.12169        1.0080 ; qtot   -1.270
        40           h39bf         1   UNL       h39        40     0.11817        1.0080 ; qtot   -1.152
        41           h40bf         1   UNL       h40        41     0.34854        1.0080 ; qtot   -0.803
        42           h41bf         1   UNL       h41        42     0.21038        1.0080 ; qtot   -0.593
        43           h42bf         1   UNL       h42        43     0.20403        1.0080 ; qtot   -0.389
        44           h43bf         1   UNL       h43        44     0.12442        1.0080 ; qtot   -0.264
        45           h44bf         1   UNL       h44        45     0.13212        1.0080 ; qtot   -0.132
        46           h45bf         1   UNL       h45        46     0.04404        1.0080 ; qtot   -0.088
        47           h46bf         1   UNL       h46        47     0.04404        1.0080 ; qtot   -0.044
        48           h47bf         1   UNL       h47        48     0.04402        1.0080 ; qtot   -0.000

[ bonds ]
;       ai        aj funct               r               k
         1         2     1        0.142750   205228.507056
         1        30     1        0.109386   299034.366748
         1        31     1        0.109386   299034.366748
         1        32     1        0.109386   299034.366748
         2         3     1        0.137015   270782.100830
         3         4     1        0.139488   304008.331689
         3        27     1        0.141529   250914.434033
         4         5     1        0.140005   315466.551758
         4        33     1        0.108446   322299.133057
         5         6     1        0.140061   293503.054395
         5        34     1        0.108414   324178.051416
         6         7     1        0.141092   252182.734570
         6        26     1        0.140674   282765.542627
         7         8     1        0.136729   311607.817920
         7        35     1        0.101302   413497.768799
         8         9     1        0.132061   353646.930762
         8        16     1        0.143870   235848.075781
         9        10     1        0.137728   242909.341895
        10        11     1        0.137604   344548.237451
        10        17     1        0.148234   208712.419971
        11        12     1        0.137846   276179.598730
        11        36     1        0.108178   332012.657812
        12        13     1        0.137750   263209.071045
        12        16     1        0.138998   204565.857373
        13        14     1        0.138746   337814.101709
        13        37     1        0.107915   345078.311230
        14        15     1        0.136744   275913.425439
        14        38     1        0.108260   332273.212939
        15        16     1        0.133378   321390.292871
        17        18     1        0.141826   265628.788770
        17        25     1        0.139899   296502.873096
        18        19     1        0.138966   338769.010840
        18        39     1        0.108482   321064.056299
        19        20     1        0.140090   307609.753613
        19        40     1        0.108637   317739.916309
        20        21     1        0.138180   275990.343213
        20        24     1        0.142551   242484.046875
        21        22     1        0.138633   284692.700586
        21        41     1        0.100900   432898.080957
        22        23     1        0.137589   380525.862012
        22        42     1        0.108144   336386.807129
        23        24     1        0.144055   245353.294336
        23        43     1        0.108168   334773.679004
        24        25     1        0.140344   305481.082324
        25        44     1        0.108567   319245.941797
        26        27     1        0.139409   309212.462598
        26        45     1        0.108244   326136.952002
        27        28     1        0.136800   272579.862256
        28        29     1        0.142754   205101.357788
        29        46     1        0.109386   299034.341211
        29        47     1        0.109386   299034.341211
        29        48     1        0.109386   299034.341211

[ angles ]
;       ai        aj        ak funct           theta             cth
         1         2         3     1      117.082443      547.136590
         2         1        30     1      109.406631      448.806110
         2         1        31     1      109.406631      448.806110
         2         1        32     1      109.406631      448.806110
         2         3         4     1      124.061974      526.185244
         2         3        27     1      116.730186      403.093057
         3         4         5     1      121.105545      730.301061
         3         4        33     1      119.820435      430.270000
         3        27        26     1      119.959702      641.355245
         3        27        28     1      116.770729      382.344602
         4         3        27     1      118.961632      615.309053
         4         5         6     1      119.989258      692.295585
         4         5        34     1      119.981018      402.478985
         5         4        33     1      119.168861      430.731806
         5         6         7     1      121.161964      571.797075
         5         6        26     1      119.274185      562.540766
         6         5        34     1      119.993568      438.163871
         6         7         8     1      130.908600      390.906748
         6         7        35     1      115.466995      445.927919
         6        26        27     1      120.440468      771.725955
         6        26        45     1      119.557449      428.763885
         7         6        26     1      119.328491      531.273672
         7         8         9     1      121.347000      603.746488
         7         8        16     1      116.105576      347.689596
         8         7        35     1      112.198647      485.186500
         8         9        10     1      119.805153      661.757097
         8        16        12     1      117.476013      691.884693
         8        16        15     1      131.168365      328.267219
         9         8        16     1      121.163086      641.590825
         9        10        11     1      121.924477      392.157013
         9        10        17     1      116.426125      507.937894
        10        11        12     1      118.196617      872.300859
        10        11        36     1      124.885536      345.298492
        10        17        18     1      120.200172      591.783183
        10        17        25     1      120.433182      479.620527
        11        10        17     1      121.547195      449.693270
        11        12        13     1      132.324738      451.412524
        11        12        16     1      121.398743      769.110508
        12        11        36     1      117.429405      489.573775
        12        13        14     1      105.222717      375.667031
        12        13        37     1      122.391075      461.871917
        12        16        15     1      111.412987      167.360000
        13        12        16     1      106.439148      167.360000
        13        14        15     1      111.710022      296.607652
        13        14        38     1      126.932030      353.254706
        14        13        37     1      132.665771      296.979121
        14        15        16     1      105.148094      501.387338
        15        14        38     1      121.224686      373.698758
        17        18        19     1      121.885208      612.552386
        17        18        39     1      119.011009      432.565786
        17        25        24     1      119.641090      696.133238
        17        25        44     1      120.040115      417.308384
        18        17        25     1      119.778221      558.630460
        18        19        20     1      117.655746      775.595338
        18        19        40     1      120.743484      442.617862
        19        18        39     1      119.285278      417.452509
        19        20        21     1      130.871338      487.864193
        19        20        24     1      121.834251      586.717514
        20        19        40     1      121.659973      445.755096
        20        21        22     1      109.272095      422.963003
        20        21        41     1      125.458496      405.766856
        20        24        23     1      106.926620      280.644086
        20        24        25     1      119.042587      749.297861
        21        20        24     1      107.276672      212.502251
        21        22        23     1      109.403160      199.231350
        21        22        42     1      120.508484      461.481710
        22        21        41     1      125.172874      408.592569
        22        23        24     1      107.094620      410.464279
        22        23        43     1      125.773071      394.842847
        23        22        42     1      130.131927      347.413061
        23        24        25     1      134.135696      433.561637
        24        23        43     1      127.217613      396.573975
        24        25        44     1      120.501930      433.186306
        26        27        28     1      123.114540      463.233875
        27        26        45     1      120.054489      415.811750
        27        28        29     1      117.278854      548.766496
        28        29        46     1      109.407082      448.359562
        28        29        47     1      109.407082      448.359562
        28        29        48     1      109.407082      448.359562
        30         1        31     1      109.654236      343.283135
        30         1        32     1      109.654236      343.283135
        31         1        32     1      109.654236      343.283135
        46        29        47     1      109.654236      343.283167
        46        29        48     1      109.654236      343.283167
        47        29        48     1      109.654236      343.283167

[ dihedrals ] ; propers for gromacs 4.5 or higher, use funct 9
;       ai        aj        ak        al funct           phase               k        pn
         1         2         3         4     9        0.000000       -0.020471         1
         1         2         3         4     9      180.000000        4.264586         2
         1         2         3         4     9        0.000000       -0.661221         3
         1         2         3         4     9      180.000000        0.423658         4
         1         2         3        27     9        0.000000        0.687110         1
         1         2         3        27     9      180.000000        3.031873         2
         1         2         3        27     9        0.000000        1.138396         3
         1         2         3        27     9      180.000000        0.057396         4
         2         3         4         5     9        0.000000        0.412383         1
         2         3         4         5     9      180.000000       18.405153         2
         2         3         4         5     9        0.000000        0.286762         3
         2         3         4         5     9      180.000000       -0.248269         4
         2         3         4        33     9        0.000000        0.002515         1
         2         3         4        33     9      180.000000       13.550908         2
         2         3         4        33     9        0.000000       -0.035816         3
         2         3         4        33     9      180.000000        0.307724         4
         2         3        27        26     9        0.000000        0.190228         1
         2         3        27        26     9      180.000000       12.913656         2
         2         3        27        26     9        0.000000       -0.036672         3
         2         3        27        26     9      180.000000        0.087435         4
         2         3        27        28     9        0.000000       -0.231151         1
         2         3        27        28     9      180.000000       16.200532         2
         2         3        27        28     9        0.000000       -0.225092         3
         2         3        27        28     9      180.000000       -0.129585         4
         3         2         1        30     9        0.000000       -0.002785         1
         3         2         1        30     9      180.000000       -0.013204         2
         3         2         1        30     9        0.000000        0.475747         3
         3         2         1        30     9      180.000000       -0.002909         4
         3         2         1        31     9        0.000000       -0.002785         1
         3         2         1        31     9      180.000000       -0.013204         2
         3         2         1        31     9        0.000000        0.475747         3
         3         2         1        31     9      180.000000       -0.002909         4
         3         2         1        32     9        0.000000       -0.002785         1
         3         2         1        32     9      180.000000       -0.013204         2
         3         2         1        32     9        0.000000        0.475747         3
         3         2         1        32     9      180.000000       -0.002909         4
         3         4         5         6     9        0.000000       -0.173495         1
         3         4         5         6     9      180.000000       17.663552         2
         3         4         5         6     9        0.000000       -1.660356         3
         3         4         5         6     9      180.000000       -0.412935         4
         3         4         5        34     9        0.000000        0.149237         1
         3         4         5        34     9      180.000000       14.141559         2
         3         4         5        34     9        0.000000       -0.494779         3
         3         4         5        34     9      180.000000        0.094379         4
         3        27        26         6     9        0.000000       -0.132619         1
         3        27        26         6     9      180.000000       16.584041         2
         3        27        26         6     9        0.000000       -1.316973         3
         3        27        26         6     9      180.000000       -0.328534         4
         3        27        26        45     9        0.000000        0.166400         1
         3        27        26        45     9      180.000000       12.784533         2
         3        27        26        45     9        0.000000       -0.336161         3
         3        27        26        45     9      180.000000        0.291888         4
         3        27        28        29     9        0.000000        0.802291         1
         3        27        28        29     9      180.000000        3.527079         2
         3        27        28        29     9        0.000000        1.195050         3
         3        27        28        29     9      180.000000        0.043134         4
         4         3        27        26     9        0.000000        0.246300         1
         4         3        27        26     9      180.000000       12.038167         2
         4         3        27        26     9        0.000000       -0.447743         3
         4         3        27        26     9      180.000000       -0.093295         4
         4         3        27        28     9        0.000000        0.312921         1
         4         3        27        28     9      180.000000       12.963699         2
         4         3        27        28     9        0.000000       -0.020336         3
         4         3        27        28     9      180.000000        0.087697         4
         4         5         6         7     9        0.000000        0.132129         1
         4         5         6         7     9      180.000000       17.832522         2
         4         5         6         7     9        0.000000        0.097463         3
         4         5         6         7     9      180.000000       -0.336845         4
         4         5         6        26     9        0.000000       -0.023969         1
         4         5         6        26     9      180.000000       17.298060         2
         4         5         6        26     9        0.000000       -1.297561         3
         4         5         6        26     9      180.000000       -0.244555         4
         5         4         3        27     9        0.000000        0.101367         1
         5         4         3        27     9      180.000000       16.812105         2
         5         4         3        27     9        0.000000       -1.160185         3
         5         4         3        27     9      180.000000       -0.311315         4
         5         6         7         8     9        0.000000        0.443064         1
         5         6         7         8     9      180.000000        3.120267         2
         5         6         7         8     9        0.000000       -0.198859         3
         5         6         7         8     9      180.000000        0.465134         4
         5         6         7        35     9        0.000000       -0.086586         1
         5         6         7        35     9      180.000000        3.309236         2
         5         6         7        35     9        0.000000        0.058468         3
         5         6         7        35     9      180.000000        0.892657         4
         5         6        26        27     9        0.000000        0.041058         1
         5         6        26        27     9      180.000000       15.861907         2
         5         6        26        27     9        0.000000       -1.469751         3
         5         6        26        27     9      180.000000       -0.131811         4
         5         6        26        45     9        0.000000        0.034995         1
         5         6        26        45     9      180.000000       12.257033         2
         5         6        26        45     9        0.000000       -0.533827         3
         5         6        26        45     9      180.000000        0.241321         4
         6         5         4        33     9        0.000000        0.111932         1
         6         5         4        33     9      180.000000       13.581334         2
         6         5         4        33     9        0.000000       -0.541303         3
         6         5         4        33     9      180.000000        0.103444         4
         6         7         8         9     9        0.000000       -0.174988         1
         6         7         8         9     9      180.000000        7.082817         2
         6         7         8         9     9        0.000000        0.006154         3
         6         7         8         9     9      180.000000       -0.539313         4
         6         7         8        16     9        0.000000        2.326493         1
         6         7         8        16     9      180.000000        5.951173         2
         6         7         8        16     9        0.000000        0.374079         3
         6         7         8        16     9      180.000000       -0.366443         4
         6        26        27        28     9        0.000000        0.361152         1
         6        26        27        28     9      180.000000       18.377753         2
         6        26        27        28     9        0.000000        0.246867         3
         6        26        27        28     9      180.000000       -0.381467         4
         7         6         5        34     9        0.000000       -0.024104         1
         7         6         5        34     9      180.000000       14.277814         2
         7         6         5        34     9        0.000000       -0.040262         3
         7         6         5        34     9      180.000000        0.129898         4
         7         6        26        27     9        0.000000       -0.012406         1
         7         6        26        27     9      180.000000       16.138685         2
         7         6        26        27     9        0.000000       -0.036311         3
         7         6        26        27     9      180.000000       -0.361374         4
         7         6        26        45     9        0.000000       -0.145209         1
         7         6        26        45     9      180.000000       13.428408         2
         7         6        26        45     9        0.000000       -0.139710         3
         7         6        26        45     9      180.000000        0.230595         4
         7         8         9        10     9        0.000000        1.956787         1
         7         8         9        10     9      180.000000       24.452800         2
         7         8         9        10     9        0.000000        0.672699         3
         7         8         9        10     9      180.000000       -0.997835         4
         7         8        16        12     9        0.000000        0.532707         1
         7         8        16        12     9      180.000000       12.023478         2
         7         8        16        12     9        0.000000        0.177021         3
         7         8        16        12     9      180.000000       -0.593144         4
         7         8        16        15     9        0.000000       -0.356301         1
         7         8        16        15     9      180.000000       10.853867         2
         7         8        16        15     9        0.000000       -0.107328         3
         7         8        16        15     9      180.000000       -0.464327         4
         8         7         6        26     9        0.000000       -0.444928         1
         8         7         6        26     9      180.000000        3.391439         2
         8         7         6        26     9        0.000000       -0.254058         3
         8         7         6        26     9      180.000000        0.430933         4
         8         9        10        11     9        0.000000        0.993460         1
         8         9        10        11     9      180.000000       13.511696         2
         8         9        10        11     9        0.000000       -0.223654         3
         8         9        10        11     9      180.000000       -0.053907         4
         8         9        10        17     9        0.000000        1.457443         1
         8         9        10        17     9      180.000000       18.337189         2
         8         9        10        17     9        0.000000        0.576482         3
         8         9        10        17     9      180.000000       -1.043194         4
         8        16        12        11     9        0.000000        0.337947         1
         8        16        12        11     9      180.000000        5.781634         2
         8        16        12        11     9        0.000000       -0.134535         3
         8        16        12        11     9      180.000000        0.122361         4
         8        16        12        13     9        0.000000       -0.529939         1
         8        16        12        13     9      180.000000        7.254573         2
         8        16        12        13     9        0.000000       -2.285934         3
         8        16        12        13     9      180.000000        0.374903         4
         8        16        15        14     9        0.000000        1.546001         1
         8        16        15        14     9      180.000000       16.470755         2
         8        16        15        14     9        0.000000       -0.373495         3
         8        16        15        14     9      180.000000        0.010417         4
         9         8         7        35     9        0.000000       11.460094         1
         9         8         7        35     9      180.000000        6.771968         2
         9         8         7        35     9        0.000000       -0.389214         3
         9         8         7        35     9      180.000000        0.126291         4
         9         8        16        12     9        0.000000       -0.070283         1
         9         8        16        12     9      180.000000        9.274434         2
         9         8        16        12     9        0.000000       -0.539211         3
         9         8        16        12     9      180.000000       -0.339003         4
         9         8        16        15     9        0.000000       -1.871942         1
         9         8        16        15     9      180.000000        6.551413         2
         9         8        16        15     9        0.000000       -0.111201         3
         9         8        16        15     9      180.000000       -0.440309         4
         9        10        11        12     9        0.000000       -0.612634         1
         9        10        11        12     9      180.000000       29.654565         2
         9        10        11        12     9        0.000000       -1.033565         3
         9        10        11        12     9      180.000000       -1.732734         4
         9        10        11        36     9        0.000000        0.279697         1
         9        10        11        36     9      180.000000       17.645061         2
         9        10        11        36     9        0.000000        0.218784         3
         9        10        11        36     9      180.000000       -0.534016         4
         9        10        17        18     9        0.000000       -0.370998         1
         9        10        17        18     9      180.000000        4.211438         2
         9        10        17        18     9        0.000000        0.109607         3
         9        10        17        18     9      180.000000        0.021257         4
         9        10        17        25     9        0.000000       -0.454175         1
         9        10        17        25     9      180.000000        4.038081         2
         9        10        17        25     9        0.000000        0.029288         3
         9        10        17        25     9      180.000000        0.007671         4
        10         9         8        16     9        0.000000        0.851968         1
        10         9         8        16     9      180.000000       22.135475         2
        10         9         8        16     9        0.000000        0.538498         3
        10         9         8        16     9      180.000000       -0.571366         4
        10        11        12        13     9        0.000000        0.453913         1
        10        11        12        13     9      180.000000        4.925924         2
        10        11        12        13     9        0.000000        0.248408         3
        10        11        12        13     9      180.000000        0.108047         4
        10        11        12        16     9        0.000000       -0.681543         1
        10        11        12        16     9      180.000000        9.270096         2
        10        11        12        16     9        0.000000       -1.041684         3
        10        11        12        16     9      180.000000       -0.058728         4
        10        17        18        19     9        0.000000        0.211294         1
        10        17        18        19     9      180.000000       14.869580         2
        10        17        18        19     9        0.000000       -0.167238         3
        10        17        18        19     9      180.000000       -0.217696         4
        10        17        18        39     9        0.000000       -0.082043         1
        10        17        18        39     9      180.000000       12.111986         2
        10        17        18        39     9        0.000000       -0.145074         3
        10        17        18        39     9      180.000000        0.164212         4
        10        17        25        24     9        0.000000        0.239004         1
        10        17        25        24     9      180.000000       17.927899         2
        10        17        25        24     9        0.000000       -0.094143         3
        10        17        25        24     9      180.000000       -0.612844         4
        10        17        25        44     9        0.000000       -0.039878         1
        10        17        25        44     9      180.000000       12.666277         2
        10        17        25        44     9        0.000000       -0.156761         3
        10        17        25        44     9      180.000000        0.161194         4
        11        10        17        18     9        0.000000       -0.325114         1
        11        10        17        18     9      180.000000        3.616121         2
        11        10        17        18     9        0.000000        0.064821         3
        11        10        17        18     9      180.000000       -0.158609         4
        11        10        17        25     9        0.000000       -0.267045         1
        11        10        17        25     9      180.000000        3.472446         2
        11        10        17        25     9        0.000000        0.237195         3
        11        10        17        25     9      180.000000       -0.235961         4
        11        12        13        14     9        0.000000        0.967452         1
        11        12        13        14     9      180.000000        5.219958         2
        11        12        13        14     9        0.000000        0.738494         3
        11        12        13        14     9      180.000000       -0.038282         4
        11        12        13        37     9        0.000000        0.151014         1
        11        12        13        37     9      180.000000        3.680096         2
        11        12        13        37     9        0.000000        0.373012         3
        11        12        13        37     9      180.000000        0.067587         4
        11        12        16        15     9        0.000000        0.545807         1
        11        12        16        15     9      180.000000        7.748301         2
        11        12        16        15     9        0.000000       -0.729831         3
        11        12        16        15     9      180.000000        0.136710         4
        12        11        10        17     9        0.000000        0.150390         1
        12        11        10        17     9      180.000000       26.649749         2
        12        11        10        17     9        0.000000        0.348346         3
        12        11        10        17     9      180.000000       -1.877965         4
        12        13        14        15     9        0.000000       -0.258793         1
        12        13        14        15     9      180.000000       36.323027         2
        12        13        14        15     9        0.000000       -7.442937         3
        12        13        14        15     9      180.000000       -0.839992         4
        12        13        14        38     9        0.000000        0.279818         1
        12        13        14        38     9      180.000000       18.770131         2
        12        13        14        38     9        0.000000       -0.507968         3
        12        13        14        38     9      180.000000       -0.564047         4
        12        16        15        14     9        0.000000       -0.172777         1
        12        16        15        14     9      180.000000       37.627789         2
        12        16        15        14     9        0.000000       -7.120096         3
        12        16        15        14     9      180.000000        0.116816         4
        13        12        11        36     9        0.000000       -0.200404         1
        13        12        11        36     9      180.000000        3.566462         2
        13        12        11        36     9        0.000000        0.306552         3
        13        12        11        36     9      180.000000        0.065875         4
        13        12        16        15     9        0.000000        0.131710         1
        13        12        16        15     9      180.000000       15.566772         2
        13        12        16        15     9        0.000000       -7.866552         3
        13        12        16        15     9      180.000000        0.257373         4
        13        14        15        16     9        0.000000       -0.255849         1
        13        14        15        16     9      180.000000       31.025341         2
        13        14        15        16     9        0.000000       -4.653101         3
        13        14        15        16     9      180.000000        0.341646         4
        14        13        12        16     9        0.000000        0.086044         1
        14        13        12        16     9      180.000000       25.283693         2
        14        13        12        16     9        0.000000       -9.272059         3
        14        13        12        16     9      180.000000        0.296509         4
        15        14        13        37     9        0.000000        0.292780         1
        15        14        13        37     9      180.000000       15.681650         2
        15        14        13        37     9        0.000000       -0.422047         3
        15        14        13        37     9      180.000000       -0.479005         4
        16         8         7        35     9        0.000000        3.047131         1
        16         8         7        35     9      180.000000        7.216451         2
        16         8         7        35     9        0.000000       -0.156869         3
        16         8         7        35     9      180.000000        0.486791         4
        16        12        11        36     9        0.000000        0.590661         1
        16        12        11        36     9      180.000000        4.595214         2
        16        12        11        36     9        0.000000        0.398248         3
        16        12        11        36     9      180.000000        0.099104         4
        16        12        13        37     9        0.000000        1.026521         1
        16        12        13        37     9      180.000000        6.099844         2
        16        12        13        37     9        0.000000        0.349087         3
        16        12        13        37     9      180.000000        0.232410         4
        16        15        14        38     9        0.000000        2.009586         1
        16        15        14        38     9      180.000000       22.682232         2
        16        15        14        38     9        0.000000        0.566971         3
        16        15        14        38     9      180.000000       -0.265561         4
        17        10        11        36     9        0.000000       -0.086359         1
        17        10        11        36     9      180.000000       14.937291         2
        17        10        11        36     9        0.000000        0.231631         3
        17        10        11        36     9      180.000000       -0.034307         4
        17        18        19        20     9        0.000000       -0.143754         1
        17        18        19        20     9      180.000000       22.003595         2
        17        18        19        20     9        0.000000       -1.689390         3
        17        18        19        20     9      180.000000       -0.609775         4
        17        18        19        40     9        0.000000        0.017985         1
        17        18        19        40     9      180.000000       14.895559         2
        17        18        19        40     9        0.000000       -0.448919         3
        17        18        19        40     9      180.000000        0.107204         4
        17        25        24        20     9        0.000000       -0.030179         1
        17        25        24        20     9      180.000000       19.627387         2
        17        25        24        20     9        0.000000       -1.845806         3
        17        25        24        20     9      180.000000       -0.513562         4
        17        25        24        23     9        0.000000        0.072522         1
        17        25        24        23     9      180.000000       13.961717         2
        17        25        24        23     9        0.000000       -0.560508         3
        17        25        24        23     9      180.000000       -0.268507         4
        18        17        25        24     9        0.000000       -0.190244         1
        18        17        25        24     9      180.000000       20.192603         2
        18        17        25        24     9        0.000000       -1.624761         3
        18        17        25        24     9      180.000000       -0.455434         4
        18        17        25        44     9        0.000000       -0.018903         1
        18        17        25        44     9      180.000000       13.914564         2
        18        17        25        44     9        0.000000       -0.606554         3
        18        17        25        44     9      180.000000        0.076658         4
        18        19        20        21     9        0.000000        0.296508         1
        18        19        20        21     9      180.000000       14.655701         2
        18        19        20        21     9        0.000000        0.028752         3
        18        19        20        21     9      180.000000       -0.175631         4
        18        19        20        24     9        0.000000       -0.069259         1
        18        19        20        24     9      180.000000       17.404769         2
        18        19        20        24     9        0.000000       -1.706169         3
        18        19        20        24     9      180.000000       -0.334330         4
        19        18        17        25     9        0.000000       -0.056353         1
        19        18        17        25     9      180.000000       17.056036         2
        19        18        17        25     9        0.000000       -1.437406         3
        19        18        17        25     9      180.000000       -0.270604         4
        19        20        21        22     9        0.000000        0.488404         1
        19        20        21        22     9      180.000000        3.093697         2
        19        20        21        22     9        0.000000        0.406916         3
        19        20        21        22     9      180.000000        0.156235         4
        19        20        21        41     9        0.000000       -0.642209         1
        19        20        21        41     9      180.000000        1.121814         2
        19        20        21        41     9        0.000000        0.145066         3
        19        20        21        41     9      180.000000       -0.034366         4
        19        20        24        23     9        0.000000        0.094055         1
        19        20        24        23     9      180.000000       10.110988         2
        19        20        24        23     9        0.000000       -1.598532         3
        19        20        24        23     9      180.000000        0.045349         4
        19        20        24        25     9        0.000000       -0.080528         1
        19        20        24        25     9      180.000000       10.369257         2
        19        20        24        25     9        0.000000       -1.229661         3
        19        20        24        25     9      180.000000       -0.001061         4
        20        19        18        39     9        0.000000        0.100814         1
        20        19        18        39     9      180.000000       16.896553         2
        20        19        18        39     9        0.000000       -0.606614         3
        20        19        18        39     9      180.000000       -0.053204         4
        20        21        22        23     9        0.000000        0.292970         1
        20        21        22        23     9      180.000000       21.682295         2
        20        21        22        23     9        0.000000       -5.664359         3
        20        21        22        23     9      180.000000       -0.853751         4
        20        21        22        42     9        0.000000        1.583778         1
        20        21        22        42     9      180.000000        8.643988         2
        20        21        22        42     9        0.000000        0.321424         3
        20        21        22        42     9      180.000000       -0.119638         4
        20        24        23        22     9        0.000000       -0.212797         1
        20        24        23        22     9      180.000000       26.431419         2
        20        24        23        22     9        0.000000       -8.746857         3
        20        24        23        22     9      180.000000       -0.163441         4
        20        24        23        43     9        0.000000        0.744105         1
        20        24        23        43     9      180.000000       10.323570         2
        20        24        23        43     9        0.000000        0.164359         3
        20        24        23        43     9      180.000000       -0.256067         4
        20        24        25        44     9        0.000000        0.332261         1
        20        24        25        44     9      180.000000       13.822373         2
        20        24        25        44     9        0.000000       -0.300832         3
        20        24        25        44     9      180.000000       -0.077661         4
        21        20        19        40     9        0.000000       -0.098389         1
        21        20        19        40     9      180.000000       11.239650         2
        21        20        19        40     9        0.000000       -0.030131         3
        21        20        19        40     9      180.000000        0.078951         4
        21        20        24        23     9        0.000000        0.444071         1
        21        20        24        23     9      180.000000       17.154984         2
        21        20        24        23     9        0.000000       -4.723176         3
        21        20        24        23     9      180.000000       -0.314132         4
        21        20        24        25     9        0.000000        0.488245         1
        21        20        24        25     9      180.000000       10.453585         2
        21        20        24        25     9        0.000000       -1.432381         3
        21        20        24        25     9      180.000000       -0.067389         4
        21        22        23        24     9        0.000000       -0.323690         1
        21        22        23        24     9      180.000000       31.953314         2
        21        22        23        24     9        0.000000       -6.023180         3
        21        22        23        24     9      180.000000       -0.771222         4
        21        22        23        43     9        0.000000        0.115802         1
        21        22        23        43     9      180.000000       16.062063         2
        21        22        23        43     9        0.000000        0.011679         3
        21        22        23        43     9      180.000000       -0.305582         4
        22        21        20        24     9        0.000000       -0.019370         1
        22        21        20        24     9      180.000000       19.592433         2
        22        21        20        24     9        0.000000       -4.857191         3
        22        21        20        24     9      180.000000       -0.484510         4
        22        23        24        25     9        0.000000        0.006553         1
        22        23        24        25     9      180.000000        3.982996         2
        22        23        24        25     9        0.000000       -0.461598         3
        22        23        24        25     9      180.000000        0.041162         4
        23        22        21        41     9        0.000000        0.097808         1
        23        22        21        41     9      180.000000        2.765482         2
        23        22        21        41     9        0.000000        0.646091         3
        23        22        21        41     9      180.000000        0.065417         4
        23        24        25        44     9        0.000000       -0.074794         1
        23        24        25        44     9      180.000000       10.774078         2
        23        24        25        44     9        0.000000       -0.088001         3
        23        24        25        44     9      180.000000        0.145795         4
        24        20        19        40     9        0.000000        0.251754         1
        24        20        19        40     9      180.000000       12.033139         2
        24        20        19        40     9        0.000000       -0.170112         3
        24        20        19        40     9      180.000000       -0.033206         4
        24        20        21        41     9        0.000000       -0.047405         1
        24        20        21        41     9      180.000000        1.408565         2
        24        20        21        41     9        0.000000        0.250639         3
        24        20        21        41     9      180.000000        0.084766         4
        24        23        22        42     9        0.000000        0.225627         1
        24        23        22        42     9      180.000000       17.262571         2
        24        23        22        42     9        0.000000       -0.375847         3
        24        23        22        42     9      180.000000       -0.466055         4
        25        17        18        39     9        0.000000       -0.094709         1
        25        17        18        39     9      180.000000       13.028356         2
        25        17        18        39     9        0.000000       -0.759351         3
        25        17        18        39     9      180.000000        0.106336         4
        25        24        23        43     9        0.000000       -0.685033         1
        25        24        23        43     9      180.000000        4.223967         2
        25        24        23        43     9        0.000000       -0.264086         3
        25        24        23        43     9      180.000000        0.120268         4
        26         6         5        34     9        0.000000        0.074273         1
        26         6         5        34     9      180.000000       12.990241         2
        26         6         5        34     9        0.000000       -0.520768         3
        26         6         5        34     9      180.000000        0.132469         4
        26         6         7        35     9        0.000000        1.575093         1
        26         6         7        35     9      180.000000        3.198189         2
        26         6         7        35     9        0.000000        0.467524         3
        26         6         7        35     9      180.000000        0.863764         4
        26        27        28        29     9        0.000000        0.123069         1
        26        27        28        29     9      180.000000        4.737590         2
        26        27        28        29     9        0.000000       -0.815850         3
        26        27        28        29     9      180.000000        0.427563         4
        27         3         4        33     9        0.000000        0.222424         1
        27         3         4        33     9      180.000000       12.890975         2
        27         3         4        33     9        0.000000       -0.414499         3
        27         3         4        33     9      180.000000        0.189834         4
        27        28        29        46     9        0.000000       -0.006341         1
        27        28        29        46     9      180.000000       -0.005041         2
        27        28        29        46     9        0.000000        0.433370         3
        27        28        29        46     9      180.000000       -0.009039         4
        27        28        29        47     9        0.000000       -0.006341         1
        27        28        29        47     9      180.000000       -0.005041         2
        27        28        29        47     9        0.000000        0.433370         3
        27        28        29        47     9      180.000000       -0.009039         4
        27        28        29        48     9        0.000000       -0.006341         1
        27        28        29        48     9      180.000000       -0.005041         2
        27        28        29        48     9        0.000000        0.433370         3
        27        28        29        48     9      180.000000       -0.009039         4
        28        27        26        45     9        0.000000        0.102563         1
        28        27        26        45     9      180.000000       13.836839         2
        28        27        26        45     9        0.000000       -0.050823         3
        28        27        26        45     9      180.000000        0.307531         4
        33         4         5        34     9        0.000000       -0.192420         1
        33         4         5        34     9      180.000000       11.734676         2
        33         4         5        34     9        0.000000       -0.700233         3
        33         4         5        34     9      180.000000        0.222006         4
        37        13        14        38     9        0.000000       -0.357707         1
        37        13        14        38     9      180.000000        9.061504         2
        37        13        14        38     9        0.000000       -0.277917         3
        37        13        14        38     9      180.000000        0.193706         4
        39        18        19        40     9        0.000000       -0.099406         1
        39        18        19        40     9      180.000000       12.462220         2
        39        18        19        40     9        0.000000       -0.671614         3
        39        18        19        40     9      180.000000        0.330985         4
        41        21        22        42     9        0.000000       -1.647567         1
        41        21        22        42     9      180.000000        0.335908         2
        41        21        22        42     9        0.000000        0.069073         3
        41        21        22        42     9      180.000000       -0.107836         4
        42        22        23        43     9        0.000000        0.010439         1
        42        22        23        43     9      180.000000       11.427535         2
        42        22        23        43     9        0.000000       -0.439847         3
        42        22        23        43     9      180.000000        0.094427         4

[ pairs ]
;       ai        aj funct
         1         4     1
         1        27     1
         2         5     1
         2        26     1
         2        28     1
         2        33     1
         3         6     1
         3        29     1
         3        30     1
         3        31     1
         3        32     1
         3        34     1
         3        45     1
         4         7     1
         4        26     1
         4        28     1
         5         8     1
         5        27     1
         5        35     1
         5        45     1
         6         9     1
         6        16     1
         6        28     1
         6        33     1
         7        10     1
         7        12     1
         7        15     1
         7        27     1
         7        34     1
         7        45     1
         8        11     1
         8        13     1
         8        14     1
         8        17     1
         8        26     1
         9        12     1
         9        15     1
         9        18     1
         9        25     1
         9        35     1
         9        36     1
        10        13     1
        10        16     1
        10        19     1
        10        24     1
        10        39     1
        10        44     1
        11        14     1
        11        15     1
        11        18     1
        11        25     1
        11        37     1
        12        17     1
        12        38     1
        13        36     1
        15        37     1
        16        35     1
        16        36     1
        16        37     1
        16        38     1
        17        20     1
        17        23     1
        17        36     1
        17        40     1
        18        21     1
        18        24     1
        18        44     1
        19        22     1
        19        23     1
        19        25     1
        19        41     1
        20        39     1
        20        42     1
        20        43     1
        20        44     1
        21        25     1
        21        40     1
        21        43     1
        22        25     1
        23        41     1
        23        44     1
        24        40     1
        24        41     1
        24        42     1
        25        39     1
        25        43     1
        26        29     1
        26        34     1
        26        35     1
        27        33     1
        27        46     1
        27        47     1
        27        48     1
        28        45     1
        33        34     1
        37        38     1
        39        40     1
        41        42     1
        42        43     1
