; ITP file created by ByteFF-ML, 2026-02-21 07:49:11.951097

[ atomtypes ]
;name           bonded.type        at.num        mass        charge   ptype           sigma         epsilon
 c0bf                                   6      0.0000       0.00000       A     3.39799e-01     4.50095e-01
 o1bf                                   8      0.0000       0.00000       A     3.15802e-01     3.03422e-01
 c2bf                                   6      0.0000       0.00000       A     3.31494e-01     4.13273e-01
 c3bf                                   6      0.0000       0.00000       A     3.31460e-01     4.13344e-01
 c4bf                                   6      0.0000       0.00000       A     3.31371e-01     4.12570e-01
 c5bf                                   6      0.0000       0.00000       A     3.31310e-01     4.12073e-01
 n6bf                                   7      0.0000       0.00000       A     3.27838e-01     6.48901e-01
 c7bf                                   6      0.0000       0.00000       A     3.31293e-01     4.14462e-01
 n8bf                                   7      0.0000       0.00000       A     3.38684e-01     3.94200e-01
 c9bf                                   6      0.0000       0.00000       A     3.31476e-01     4.10910e-01
 c10bf                                  6      0.0000       0.00000       A     3.31501e-01     4.13060e-01
 n11bf                                  7      0.0000       0.00000       A     3.20544e-01     8.50304e-01
 c12bf                                  6      0.0000       0.00000       A     3.31513e-01     4.11963e-01
 c13bf                                  6      0.0000       0.00000       A     3.31488e-01     4.12482e-01
 n14bf                                  7      0.0000       0.00000       A     3.38571e-01     3.94678e-01
 c15bf                                  6      0.0000       0.00000       A     3.31524e-01     4.13157e-01
 c16bf                                  6      0.0000       0.00000       A     3.31356e-01     4.11968e-01
 c17bf                                  6      0.0000       0.00000       A     3.31468e-01     4.12479e-01
 c18bf                                  6      0.0000       0.00000       A     3.31470e-01     4.12172e-01
 c19bf                                  6      0.0000       0.00000       A     3.31393e-01     4.13190e-01
 o20bf                                  8      0.0000       0.00000       A     3.15549e-01     3.03416e-01
 c21bf                                  6      0.0000       0.00000       A     3.39719e-01     4.51562e-01
 c22bf                                  6      0.0000       0.00000       A     3.40018e-01     4.52281e-01
 n23bf                                  7      0.0000       0.00000       A     3.27914e-01     6.48504e-01
 c24bf                                  6      0.0000       0.00000       A     3.31412e-01     4.10175e-01
 c25bf                                  6      0.0000       0.00000       A     3.31377e-01     4.11808e-01
 c26bf                                  6      0.0000       0.00000       A     3.31426e-01     4.12512e-01
 c27bf                                  6      0.0000       0.00000       A     3.31334e-01     4.12096e-01
 o28bf                                  8      0.0000       0.00000       A     3.15839e-01     3.04251e-01
 c29bf                                  6      0.0000       0.00000       A     3.39799e-01     4.50095e-01
 h30bf                                  1      0.0000       0.00000       A     2.42080e-01     8.75859e-02
 h31bf                                  1      0.0000       0.00000       A     2.42080e-01     8.75859e-02
 h32bf                                  1      0.0000       0.00000       A     2.42080e-01     8.75859e-02
 h33bf                                  1      0.0000       0.00000       A     2.62545e-01     6.69663e-02
 h34bf                                  1      0.0000       0.00000       A     2.62478e-01     6.76031e-02
 h35bf                                  1      0.0000       0.00000       A     1.10437e-01     4.36637e-02
 h36bf                                  1      0.0000       0.00000       A     2.53936e-01     6.71690e-02
 h37bf                                  1      0.0000       0.00000       A     2.54157e-01     6.73717e-02
 h38bf                                  1      0.0000       0.00000       A     2.53844e-01     6.71387e-02
 h39bf                                  1      0.0000       0.00000       A     2.62490e-01     6.75441e-02
 h40bf                                  1      0.0000       0.00000       A     2.62497e-01     6.66902e-02
 h41bf                                  1      0.0000       0.00000       A     2.42144e-01     8.64990e-02
 h42bf                                  1      0.0000       0.00000       A     2.42144e-01     8.64990e-02
 h43bf                                  1      0.0000       0.00000       A     2.42113e-01     8.67687e-02
 h44bf                                  1      0.0000       0.00000       A     2.42113e-01     8.67687e-02
 h45bf                                  1      0.0000       0.00000       A     1.10709e-01     4.10525e-02
 h46bf                                  1      0.0000       0.00000       A     2.62462e-01     6.71482e-02
 h47bf                                  1      0.0000       0.00000       A     2.62385e-01     6.71291e-02
 h48bf                                  1      0.0000       0.00000       A     2.42080e-01     8.75859e-02
 h49bf                                  1      0.0000       0.00000       A     2.42080e-01     8.75859e-02
 h50bf                                  1      0.0000       0.00000       A     2.42080e-01     8.75859e-02

[ moleculetype ]
;name             nrexcl
 CHEMBL3265026         3

[ atoms ]
;       nr            type      resi   res      atom      cgnr      charge          mass ; qtot
         1            c0bf         1   UNL        c0         1     0.14145       12.0110 ; qtot    0.141
         2            o1bf         1   UNL        o1         2    -0.33647       15.9990 ; qtot   -0.195
         3            c2bf         1   UNL        c2         3     0.08002       12.0110 ; qtot   -0.115
         4            c3bf         1   UNL        c3         4    -0.13937       12.0110 ; qtot   -0.254
         5            c4bf         1   UNL        c4         5    -0.13475       12.0110 ; qtot   -0.389
         6            c5bf         1   UNL        c5         6     0.30239       12.0110 ; qtot   -0.087
         7            n6bf         1   UNL        n6         7    -0.91203       14.0070 ; qtot   -0.999
         8            c7bf         1   UNL        c7         8     0.67901       12.0110 ; qtot   -0.320
         9            n8bf         1   UNL        n8         9    -0.75911       14.0070 ; qtot   -1.079
        10            c9bf         1   UNL        c9        10     0.39369       12.0110 ; qtot   -0.685
        11           c10bf         1   UNL       c10        11    -0.18274       12.0110 ; qtot   -0.868
        12           n11bf         1   UNL       n11        12     0.16137       14.0070 ; qtot   -0.707
        13           c12bf         1   UNL       c12        13    -0.26112       12.0110 ; qtot   -0.968
        14           c13bf         1   UNL       c13        14    -0.04248       12.0110 ; qtot   -1.010
        15           n14bf         1   UNL       n14        15    -0.27126       14.0070 ; qtot   -1.281
        16           c15bf         1   UNL       c15        16    -0.16948       12.0110 ; qtot   -1.451
        17           c16bf         1   UNL       c16        17    -0.12166       12.0110 ; qtot   -1.573
        18           c17bf         1   UNL       c17        18    -0.07986       12.0110 ; qtot   -1.652
        19           c18bf         1   UNL       c18        19    -0.11341       12.0110 ; qtot   -1.766
        20           c19bf         1   UNL       c19        20     0.08482       12.0110 ; qtot   -1.681
        21           o20bf         1   UNL       o20        21    -0.34579       15.9990 ; qtot   -2.027
        22           c21bf         1   UNL       c21        22     0.14377       12.0110 ; qtot   -1.883
        23           c22bf         1   UNL       c22        23     0.14763       12.0110 ; qtot   -1.735
        24           n23bf         1   UNL       n23        24    -0.91010       14.0070 ; qtot   -2.645
        25           c24bf         1   UNL       c24        25     0.19370       12.0110 ; qtot   -2.452
        26           c25bf         1   UNL       c25        26    -0.10582       12.0110 ; qtot   -2.558
        27           c26bf         1   UNL       c26        27    -0.18949       12.0110 ; qtot   -2.747
        28           c27bf         1   UNL       c27        28     0.11411       12.0110 ; qtot   -2.633
        29           o28bf         1   UNL       o28        29    -0.33842       15.9990 ; qtot   -2.971
        30           c29bf         1   UNL       c29        30     0.14175       12.0110 ; qtot   -2.830
        31           h30bf         1   UNL       h30        31     0.04404        1.0080 ; qtot   -2.786
        32           h31bf         1   UNL       h31        32     0.04404        1.0080 ; qtot   -2.742
        33           h32bf         1   UNL       h32        33     0.04404        1.0080 ; qtot   -2.698
        34           h33bf         1   UNL       h33        34     0.12393        1.0080 ; qtot   -2.574
        35           h34bf         1   UNL       h34        35     0.13132        1.0080 ; qtot   -2.442
        36           h35bf         1   UNL       h35        36     0.50588        1.0080 ; qtot   -1.936
        37           h36bf         1   UNL       h36        37     0.15416        1.0080 ; qtot   -1.782
        38           h37bf         1   UNL       h37        38     0.22767        1.0080 ; qtot   -1.555
        39           h38bf         1   UNL       h38        39     0.22246        1.0080 ; qtot   -1.332
        40           h39bf         1   UNL       h39        40     0.12714        1.0080 ; qtot   -1.205
        41           h40bf         1   UNL       h40        41     0.13081        1.0080 ; qtot   -1.074
        42           h41bf         1   UNL       h41        42     0.06513        1.0080 ; qtot   -1.009
        43           h42bf         1   UNL       h42        43     0.06513        1.0080 ; qtot   -0.944
        44           h43bf         1   UNL       h43        44     0.05348        1.0080 ; qtot   -0.890
        45           h44bf         1   UNL       h44        45     0.05348        1.0080 ; qtot   -0.837
        46           h45bf         1   UNL       h45        46     0.45063        1.0080 ; qtot   -0.386
        47           h46bf         1   UNL       h46        47     0.12211        1.0080 ; qtot   -0.264
        48           h47bf         1   UNL       h47        48     0.13212        1.0080 ; qtot   -0.132
        49           h48bf         1   UNL       h48        49     0.04404        1.0080 ; qtot   -0.088
        50           h49bf         1   UNL       h49        50     0.04404        1.0080 ; qtot   -0.044
        51           h50bf         1   UNL       h50        51     0.04400        1.0080 ; qtot   -0.000

[ bonds ]
;       ai        aj funct               r               k
         1         2     1        0.142750   205228.507056
         1        31     1        0.109386   299034.366748
         1        32     1        0.109386   299034.366748
         1        33     1        0.109386   299034.366748
         2         3     1        0.137015   270782.100830
         3         4     1        0.139488   304008.331689
         3        28     1        0.141529   250914.434033
         4         5     1        0.140005   315466.551758
         4        34     1        0.108446   322299.133057
         5         6     1        0.140061   293503.054395
         5        35     1        0.108414   324178.051416
         6         7     1        0.141092   252182.734570
         6        27     1        0.140674   282765.542627
         7         8     1        0.136729   311607.817920
         7        36     1        0.101302   413497.768799
         8         9     1        0.132073   353453.691455
         8        16     1        0.143870   235848.075781
         9        10     1        0.137735   242762.018311
        10        11     1        0.137570   345554.808154
        10        17     1        0.148212   209677.978076
        11        12     1        0.137840   276180.390381
        11        37     1        0.108179   332059.518408
        12        13     1        0.137750   263209.071045
        12        16     1        0.138998   204565.857373
        13        14     1        0.138746   337814.101709
        13        38     1        0.107915   345078.311230
        14        15     1        0.136744   275913.399902
        14        39     1        0.108260   332273.212939
        15        16     1        0.133378   321390.292871
        17        18     1        0.140487   289380.956348
        17        26     1        0.140547   284360.820312
        18        19     1        0.139423   325033.646729
        18        40     1        0.108481   321865.206494
        19        20     1        0.139591   300085.193262
        19        41     1        0.108567   320444.245117
        20        21     1        0.137524   260490.850049
        20        25     1        0.141275   259664.724561
        21        22     1        0.143286   189335.435962
        22        23     1        0.152252   189138.481006
        22        42     1        0.109442   298269.070654
        22        43     1        0.109442   298269.070654
        23        24     1        0.145975   211389.066553
        23        44     1        0.109668   290442.355225
        23        45     1        0.109668   290442.355225
        24        25     1        0.140760   262372.935010
        24        46     1        0.101285   413178.529395
        25        26     1        0.139885   297680.772266
        26        47     1        0.108571   317254.660156
        27        28     1        0.139409   309212.462598
        27        48     1        0.108244   326136.952002
        28        29     1        0.136800   272579.862256
        29        30     1        0.142754   205101.357788
        30        49     1        0.109386   299034.341211
        30        50     1        0.109386   299034.341211
        30        51     1        0.109386   299034.341211

[ angles ]
;       ai        aj        ak funct           theta             cth
         1         2         3     1      117.082443      547.136590
         2         1        31     1      109.406631      448.806110
         2         1        32     1      109.406631      448.806110
         2         1        33     1      109.406631      448.806110
         2         3         4     1      124.061974      526.185244
         2         3        28     1      116.730186      403.093057
         3         4         5     1      121.105545      730.301061
         3         4        34     1      119.820435      430.270000
         3        28        27     1      119.959702      641.355245
         3        28        29     1      116.770729      382.344602
         4         3        28     1      118.961632      615.309053
         4         5         6     1      119.989258      692.295585
         4         5        35     1      119.981018      402.478985
         5         4        34     1      119.168861      430.731806
         5         6         7     1      121.161964      571.797075
         5         6        27     1      119.274185      562.540766
         6         5        35     1      119.993568      438.163871
         6         7         8     1      130.908600      390.906748
         6         7        36     1      115.466995      445.927919
         6        27        28     1      120.440468      771.725955
         6        27        48     1      119.557449      428.763885
         7         6        27     1      119.328491      531.273672
         7         8         9     1      121.353256      603.929270
         7         8        16     1      116.105576      347.689596
         8         7        36     1      112.198647      485.186500
         8         9        10     1      119.755661      660.007996
         8        16        12     1      117.476013      691.884693
         8        16        15     1      131.168365      328.267219
         9         8        16     1      121.158058      641.620831
         9        10        11     1      122.011513      385.906486
         9        10        17     1      116.427872      504.553716
        10        11        12     1      118.154198      871.375012
        10        11        37     1      124.884789      345.829856
        10        17        18     1      120.984848      584.324687
        10        17        26     1      120.400345      457.442250
        11        10        17     1      121.468407      450.899802
        11        12        13     1      132.328613      451.140936
        11        12        16     1      121.400978      769.088354
        12        11        37     1      117.430222      489.875624
        12        13        14     1      105.222733      375.666967
        12        13        38     1      122.391075      461.871917
        12        16        15     1      111.412987      167.360000
        13        12        16     1      106.439148      167.360000
        13        14        15     1      111.710022      296.607652
        13        14        39     1      126.932030      353.254674
        14        13        38     1      132.665771      296.979153
        14        15        16     1      105.148094      501.387338
        15        14        39     1      121.224686      373.698758
        17        18        19     1      120.454369      649.058705
        17        18        40     1      119.857468      429.447098
        17        26        25     1      121.595993      735.980578
        17        26        47     1      119.514244      419.340883
        18        17        26     1      118.817162      535.915457
        18        19        20     1      120.465469      739.889607
        18        19        41     1      121.130714      434.848005
        19        18        40     1      119.631851      421.377467
        19        20        21     1      117.877319      552.376422
        19        20        25     1      120.154175      669.097803
        20        19        41     1      118.169998      442.087520
        20        21        22     1      114.821815      525.638239
        20        25        24     1      119.636917      459.459011
        20        25        26     1      118.474022      712.474115
        21        20        25     1      122.015358      404.625379
        21        22        23     1      110.815292      612.964491
        21        22        42     1      107.620483      479.069724
        21        22        43     1      107.620483      479.069724
        22        23        24     1      107.862411      672.359211
        22        23        44     1      109.513718      482.346614
        22        23        45     1      109.513718      482.346614
        23        22        42     1      110.754395      482.946129
        23        22        43     1      110.754395      482.946129
        23        24        25     1      115.112572      555.303230
        23        24        46     1      114.128418      490.274099
        24        23        44     1      110.817139      461.049175
        24        23        45     1      110.817139      461.049175
        24        25        26     1      121.703903      493.696327
        25        24        46     1      113.166016      493.362844
        25        26        47     1      119.112770      430.922281
        27        28        29     1      123.114540      463.233875
        28        27        48     1      120.054489      415.811750
        28        29        30     1      117.278854      548.766496
        29        30        49     1      109.407082      448.359562
        29        30        50     1      109.407082      448.359562
        29        30        51     1      109.407082      448.359562
        31         1        32     1      109.654236      343.283135
        31         1        33     1      109.654236      343.283135
        32         1        33     1      109.654236      343.283135
        42        22        43     1      109.236526      337.637040
        44        23        45     1      108.329269      342.392848
        49        30        50     1      109.654236      343.283167
        49        30        51     1      109.654236      343.283167
        50        30        51     1      109.654221      343.283167

[ dihedrals ] ; propers for gromacs 4.5 or higher, use funct 9
;       ai        aj        ak        al funct           phase               k        pn
         1         2         3         4     9        0.000000       -0.020471         1
         1         2         3         4     9      180.000000        4.264586         2
         1         2         3         4     9        0.000000       -0.661221         3
         1         2         3         4     9      180.000000        0.423658         4
         1         2         3        28     9        0.000000        0.687110         1
         1         2         3        28     9      180.000000        3.031873         2
         1         2         3        28     9        0.000000        1.138396         3
         1         2         3        28     9      180.000000        0.057396         4
         2         3         4         5     9        0.000000        0.412383         1
         2         3         4         5     9      180.000000       18.405153         2
         2         3         4         5     9        0.000000        0.286762         3
         2         3         4         5     9      180.000000       -0.248269         4
         2         3         4        34     9        0.000000        0.002515         1
         2         3         4        34     9      180.000000       13.550908         2
         2         3         4        34     9        0.000000       -0.035816         3
         2         3         4        34     9      180.000000        0.307724         4
         2         3        28        27     9        0.000000        0.190228         1
         2         3        28        27     9      180.000000       12.913656         2
         2         3        28        27     9        0.000000       -0.036672         3
         2         3        28        27     9      180.000000        0.087435         4
         2         3        28        29     9        0.000000       -0.231151         1
         2         3        28        29     9      180.000000       16.200532         2
         2         3        28        29     9        0.000000       -0.225092         3
         2         3        28        29     9      180.000000       -0.129585         4
         3         2         1        31     9        0.000000       -0.002785         1
         3         2         1        31     9      180.000000       -0.013204         2
         3         2         1        31     9        0.000000        0.475747         3
         3         2         1        31     9      180.000000       -0.002909         4
         3         2         1        32     9        0.000000       -0.002785         1
         3         2         1        32     9      180.000000       -0.013204         2
         3         2         1        32     9        0.000000        0.475747         3
         3         2         1        32     9      180.000000       -0.002909         4
         3         2         1        33     9        0.000000       -0.002785         1
         3         2         1        33     9      180.000000       -0.013204         2
         3         2         1        33     9        0.000000        0.475747         3
         3         2         1        33     9      180.000000       -0.002909         4
         3         4         5         6     9        0.000000       -0.173495         1
         3         4         5         6     9      180.000000       17.663552         2
         3         4         5         6     9        0.000000       -1.660356         3
         3         4         5         6     9      180.000000       -0.412935         4
         3         4         5        35     9        0.000000        0.149237         1
         3         4         5        35     9      180.000000       14.141559         2
         3         4         5        35     9        0.000000       -0.494779         3
         3         4         5        35     9      180.000000        0.094379         4
         3        28        27         6     9        0.000000       -0.132619         1
         3        28        27         6     9      180.000000       16.584041         2
         3        28        27         6     9        0.000000       -1.316973         3
         3        28        27         6     9      180.000000       -0.328534         4
         3        28        27        48     9        0.000000        0.166400         1
         3        28        27        48     9      180.000000       12.784533         2
         3        28        27        48     9        0.000000       -0.336161         3
         3        28        27        48     9      180.000000        0.291888         4
         3        28        29        30     9        0.000000        0.802291         1
         3        28        29        30     9      180.000000        3.527079         2
         3        28        29        30     9        0.000000        1.195050         3
         3        28        29        30     9      180.000000        0.043134         4
         4         3        28        27     9        0.000000        0.246300         1
         4         3        28        27     9      180.000000       12.038167         2
         4         3        28        27     9        0.000000       -0.447743         3
         4         3        28        27     9      180.000000       -0.093295         4
         4         3        28        29     9        0.000000        0.312921         1
         4         3        28        29     9      180.000000       12.963699         2
         4         3        28        29     9        0.000000       -0.020336         3
         4         3        28        29     9      180.000000        0.087697         4
         4         5         6         7     9        0.000000        0.132129         1
         4         5         6         7     9      180.000000       17.832522         2
         4         5         6         7     9        0.000000        0.097463         3
         4         5         6         7     9      180.000000       -0.336845         4
         4         5         6        27     9        0.000000       -0.023969         1
         4         5         6        27     9      180.000000       17.298060         2
         4         5         6        27     9        0.000000       -1.297561         3
         4         5         6        27     9      180.000000       -0.244555         4
         5         4         3        28     9        0.000000        0.101367         1
         5         4         3        28     9      180.000000       16.812105         2
         5         4         3        28     9        0.000000       -1.160185         3
         5         4         3        28     9      180.000000       -0.311315         4
         5         6         7         8     9        0.000000        0.443064         1
         5         6         7         8     9      180.000000        3.120267         2
         5         6         7         8     9        0.000000       -0.198859         3
         5         6         7         8     9      180.000000        0.465134         4
         5         6         7        36     9        0.000000       -0.086586         1
         5         6         7        36     9      180.000000        3.309236         2
         5         6         7        36     9        0.000000        0.058468         3
         5         6         7        36     9      180.000000        0.892657         4
         5         6        27        28     9        0.000000        0.041058         1
         5         6        27        28     9      180.000000       15.861907         2
         5         6        27        28     9        0.000000       -1.469751         3
         5         6        27        28     9      180.000000       -0.131811         4
         5         6        27        48     9        0.000000        0.034995         1
         5         6        27        48     9      180.000000       12.257033         2
         5         6        27        48     9        0.000000       -0.533827         3
         5         6        27        48     9      180.000000        0.241321         4
         6         5         4        34     9        0.000000        0.111932         1
         6         5         4        34     9      180.000000       13.581334         2
         6         5         4        34     9        0.000000       -0.541303         3
         6         5         4        34     9      180.000000        0.103444         4
         6         7         8         9     9        0.000000       -0.158388         1
         6         7         8         9     9      180.000000        7.089414         2
         6         7         8         9     9        0.000000        0.006704         3
         6         7         8         9     9      180.000000       -0.539901         4
         6         7         8        16     9        0.000000        2.326493         1
         6         7         8        16     9      180.000000        5.951173         2
         6         7         8        16     9        0.000000        0.374079         3
         6         7         8        16     9      180.000000       -0.366443         4
         6        27        28        29     9        0.000000        0.361152         1
         6        27        28        29     9      180.000000       18.377753         2
         6        27        28        29     9        0.000000        0.246867         3
         6        27        28        29     9      180.000000       -0.381467         4
         7         6         5        35     9        0.000000       -0.024104         1
         7         6         5        35     9      180.000000       14.277814         2
         7         6         5        35     9        0.000000       -0.040262         3
         7         6         5        35     9      180.000000        0.129898         4
         7         6        27        28     9        0.000000       -0.012406         1
         7         6        27        28     9      180.000000       16.138685         2
         7         6        27        28     9        0.000000       -0.036311         3
         7         6        27        28     9      180.000000       -0.361374         4
         7         6        27        48     9        0.000000       -0.145209         1
         7         6        27        48     9      180.000000       13.428408         2
         7         6        27        48     9        0.000000       -0.139710         3
         7         6        27        48     9      180.000000        0.230595         4
         7         8         9        10     9        0.000000        1.920551         1
         7         8         9        10     9      180.000000       24.498110         2
         7         8         9        10     9        0.000000        0.715198         3
         7         8         9        10     9      180.000000       -0.985714         4
         7         8        16        12     9        0.000000        0.532707         1
         7         8        16        12     9      180.000000       12.023478         2
         7         8        16        12     9        0.000000        0.177021         3
         7         8        16        12     9      180.000000       -0.593144         4
         7         8        16        15     9        0.000000       -0.356301         1
         7         8        16        15     9      180.000000       10.853867         2
         7         8        16        15     9        0.000000       -0.107328         3
         7         8        16        15     9      180.000000       -0.464327         4
         8         7         6        27     9        0.000000       -0.444928         1
         8         7         6        27     9      180.000000        3.391439         2
         8         7         6        27     9        0.000000       -0.254058         3
         8         7         6        27     9      180.000000        0.430933         4
         8         9        10        11     9        0.000000        1.006419         1
         8         9        10        11     9      180.000000       13.612463         2
         8         9        10        11     9        0.000000       -0.238609         3
         8         9        10        11     9      180.000000       -0.043902         4
         8         9        10        17     9        0.000000        1.424393         1
         8         9        10        17     9      180.000000       18.167946         2
         8         9        10        17     9        0.000000        0.587370         3
         8         9        10        17     9      180.000000       -1.033440         4
         8        16        12        11     9        0.000000        0.338869         1
         8        16        12        11     9      180.000000        5.776551         2
         8        16        12        11     9        0.000000       -0.141905         3
         8        16        12        11     9      180.000000        0.123607         4
         8        16        12        13     9        0.000000       -0.529939         1
         8        16        12        13     9      180.000000        7.254573         2
         8        16        12        13     9        0.000000       -2.285934         3
         8        16        12        13     9      180.000000        0.374903         4
         8        16        15        14     9        0.000000        1.546001         1
         8        16        15        14     9      180.000000       16.470755         2
         8        16        15        14     9        0.000000       -0.373495         3
         8        16        15        14     9      180.000000        0.010417         4
         9         8         7        36     9        0.000000       11.456410         1
         9         8         7        36     9      180.000000        6.773832         2
         9         8         7        36     9        0.000000       -0.385094         3
         9         8         7        36     9      180.000000        0.126343         4
         9         8        16        12     9        0.000000       -0.074489         1
         9         8        16        12     9      180.000000        9.291469         2
         9         8        16        12     9        0.000000       -0.538965         3
         9         8        16        12     9      180.000000       -0.340710         4
         9         8        16        15     9        0.000000       -1.873183         1
         9         8        16        15     9      180.000000        6.566008         2
         9         8        16        15     9        0.000000       -0.112806         3
         9         8        16        15     9      180.000000       -0.443058         4
         9        10        11        12     9        0.000000       -0.628976         1
         9        10        11        12     9      180.000000       29.879721         2
         9        10        11        12     9        0.000000       -1.077807         3
         9        10        11        12     9      180.000000       -1.727423         4
         9        10        11        37     9        0.000000        0.307295         1
         9        10        11        37     9      180.000000       17.765026         2
         9        10        11        37     9        0.000000        0.215471         3
         9        10        11        37     9      180.000000       -0.542519         4
         9        10        17        18     9        0.000000        0.025302         1
         9        10        17        18     9      180.000000        4.158186         2
         9        10        17        18     9        0.000000        0.037331         3
         9        10        17        18     9      180.000000        0.049960         4
         9        10        17        26     9        0.000000       -1.233326         1
         9        10        17        26     9      180.000000        4.258108         2
         9        10        17        26     9        0.000000        0.046413         3
         9        10        17        26     9      180.000000        0.023916         4
        10         9         8        16     9        0.000000        0.866689         1
        10         9         8        16     9      180.000000       22.195523         2
        10         9         8        16     9        0.000000        0.597835         3
        10         9         8        16     9      180.000000       -0.568054         4
        10        11        12        13     9        0.000000        0.495784         1
        10        11        12        13     9      180.000000        4.954086         2
        10        11        12        13     9        0.000000        0.239795         3
        10        11        12        13     9      180.000000        0.110805         4
        10        11        12        16     9        0.000000       -0.618754         1
        10        11        12        16     9      180.000000        9.316709         2
        10        11        12        16     9        0.000000       -1.051990         3
        10        11        12        16     9      180.000000       -0.059093         4
        10        17        18        19     9        0.000000        0.202535         1
        10        17        18        19     9      180.000000       15.812061         2
        10        17        18        19     9        0.000000       -0.239395         3
        10        17        18        19     9      180.000000       -0.284548         4
        10        17        18        40     9        0.000000       -0.087357         1
        10        17        18        40     9      180.000000       12.182106         2
        10        17        18        40     9        0.000000       -0.150380         3
        10        17        18        40     9      180.000000        0.152876         4
        10        17        26        25     9        0.000000        0.175751         1
        10        17        26        25     9      180.000000       15.438469         2
        10        17        26        25     9        0.000000       -0.233718         3
        10        17        26        25     9      180.000000       -0.481535         4
        10        17        26        47     9        0.000000       -0.030600         1
        10        17        26        47     9      180.000000       12.339656         2
        10        17        26        47     9        0.000000       -0.207838         3
        10        17        26        47     9      180.000000        0.180742         4
        11        10        17        18     9        0.000000       -0.459363         1
        11        10        17        18     9      180.000000        3.513802         2
        11        10        17        18     9        0.000000        0.217329         3
        11        10        17        18     9      180.000000       -0.191117         4
        11        10        17        26     9        0.000000        0.103702         1
        11        10        17        26     9      180.000000        3.649059         2
        11        10        17        26     9        0.000000        0.144053         3
        11        10        17        26     9      180.000000       -0.153898         4
        11        12        13        14     9        0.000000        0.963691         1
        11        12        13        14     9      180.000000        5.203521         2
        11        12        13        14     9        0.000000        0.740717         3
        11        12        13        14     9      180.000000       -0.038082         4
        11        12        13        38     9        0.000000        0.155879         1
        11        12        13        38     9      180.000000        3.680092         2
        11        12        13        38     9        0.000000        0.374487         3
        11        12        13        38     9      180.000000        0.064779         4
        11        12        16        15     9        0.000000        0.551695         1
        11        12        16        15     9      180.000000        7.740461         2
        11        12        16        15     9        0.000000       -0.728151         3
        11        12        16        15     9      180.000000        0.134899         4
        12        11        10        17     9        0.000000        0.076665         1
        12        11        10        17     9      180.000000       26.628136         2
        12        11        10        17     9        0.000000        0.339078         3
        12        11        10        17     9      180.000000       -1.841236         4
        12        13        14        15     9        0.000000       -0.258793         1
        12        13        14        15     9      180.000000       36.323027         2
        12        13        14        15     9        0.000000       -7.442937         3
        12        13        14        15     9      180.000000       -0.839992         4
        12        13        14        39     9        0.000000        0.279819         1
        12        13        14        39     9      180.000000       18.770133         2
        12        13        14        39     9        0.000000       -0.507968         3
        12        13        14        39     9      180.000000       -0.564047         4
        12        16        15        14     9        0.000000       -0.172777         1
        12        16        15        14     9      180.000000       37.627789         2
        12        16        15        14     9        0.000000       -7.120096         3
        12        16        15        14     9      180.000000        0.116816         4
        13        12        11        37     9        0.000000       -0.209377         1
        13        12        11        37     9      180.000000        3.568095         2
        13        12        11        37     9        0.000000        0.304226         3
        13        12        11        37     9      180.000000        0.067271         4
        13        12        16        15     9        0.000000        0.131710         1
        13        12        16        15     9      180.000000       15.566772         2
        13        12        16        15     9        0.000000       -7.866552         3
        13        12        16        15     9      180.000000        0.257373         4
        13        14        15        16     9        0.000000       -0.255849         1
        13        14        15        16     9      180.000000       31.025341         2
        13        14        15        16     9        0.000000       -4.653101         3
        13        14        15        16     9      180.000000        0.341646         4
        14        13        12        16     9        0.000000        0.086044         1
        14        13        12        16     9      180.000000       25.283693         2
        14        13        12        16     9        0.000000       -9.272059         3
        14        13        12        16     9      180.000000        0.296509         4
        15        14        13        38     9        0.000000        0.292780         1
        15        14        13        38     9      180.000000       15.681647         2
        15        14        13        38     9        0.000000       -0.422048         3
        15        14        13        38     9      180.000000       -0.479005         4
        16         8         7        36     9        0.000000        3.047131         1
        16         8         7        36     9      180.000000        7.216451         2
        16         8         7        36     9        0.000000       -0.156869         3
        16         8         7        36     9      180.000000        0.486791         4
        16        12        11        37     9        0.000000        0.578758         1
        16        12        11        37     9      180.000000        4.589046         2
        16        12        11        37     9        0.000000        0.396183         3
        16        12        11        37     9      180.000000        0.100511         4
        16        12        13        38     9        0.000000        1.026521         1
        16        12        13        38     9      180.000000        6.099846         2
        16        12        13        38     9        0.000000        0.349087         3
        16        12        13        38     9      180.000000        0.232409         4
        16        15        14        39     9        0.000000        2.009587         1
        16        15        14        39     9      180.000000       22.682230         2
        16        15        14        39     9        0.000000        0.566970         3
        16        15        14        39     9      180.000000       -0.265560         4
        17        10        11        37     9        0.000000       -0.066076         1
        17        10        11        37     9      180.000000       14.973974         2
        17        10        11        37     9        0.000000        0.231409         3
        17        10        11        37     9      180.000000       -0.019900         4
        17        18        19        20     9        0.000000        0.014383         1
        17        18        19        20     9      180.000000       18.826963         2
        17        18        19        20     9        0.000000       -1.597370         3
        17        18        19        20     9      180.000000       -0.478406         4
        17        18        19        41     9        0.000000        0.016087         1
        17        18        19        41     9      180.000000       14.470777         2
        17        18        19        41     9        0.000000       -0.497290         3
        17        18        19        41     9      180.000000        0.093029         4
        17        26        25        20     9        0.000000        0.215004         1
        17        26        25        20     9      180.000000       17.163703         2
        17        26        25        20     9        0.000000       -0.981828         3
        17        26        25        20     9      180.000000       -0.452430         4
        17        26        25        24     9        0.000000        0.307545         1
        17        26        25        24     9      180.000000       19.683525         2
        17        26        25        24     9        0.000000        0.230772         3
        17        26        25        24     9      180.000000       -0.563925         4
        18        17        26        25     9        0.000000       -0.149962         1
        18        17        26        25     9      180.000000       17.382751         2
        18        17        26        25     9        0.000000       -1.806612         3
        18        17        26        25     9      180.000000       -0.243113         4
        18        17        26        47     9        0.000000       -0.064337         1
        18        17        26        47     9      180.000000       13.476170         2
        18        17        26        47     9        0.000000       -0.734817         3
        18        17        26        47     9      180.000000        0.199833         4
        18        19        20        21     9        0.000000        0.482883         1
        18        19        20        21     9      180.000000       20.028210         2
        18        19        20        21     9        0.000000        0.784890         3
        18        19        20        21     9      180.000000       -0.463680         4
        18        19        20        25     9        0.000000        0.130724         1
        18        19        20        25     9      180.000000       17.403823         2
        18        19        20        25     9        0.000000       -1.025091         3
        18        19        20        25     9      180.000000       -0.367484         4
        19        18        17        26     9        0.000000       -0.020818         1
        19        18        17        26     9      180.000000       18.014841         2
        19        18        17        26     9        0.000000       -1.677627         3
        19        18        17        26     9      180.000000       -0.300134         4
        19        20        21        22     9        0.000000       -0.721682         1
        19        20        21        22     9      180.000000        2.767428         2
        19        20        21        22     9        0.000000       -0.361934         3
        19        20        21        22     9      180.000000        0.173267         4
        19        20        25        24     9        0.000000        0.099076         1
        19        20        25        24     9      180.000000       15.282074         2
        19        20        25        24     9        0.000000        0.103558         3
        19        20        25        24     9      180.000000       -0.178817         4
        19        20        25        26     9        0.000000        0.146327         1
        19        20        25        26     9      180.000000       12.868982         2
        19        20        25        26     9        0.000000       -0.378324         3
        19        20        25        26     9      180.000000       -0.161589         4
        20        19        18        40     9        0.000000        0.166718         1
        20        19        18        40     9      180.000000       14.361935         2
        20        19        18        40     9        0.000000       -0.469023         3
        20        19        18        40     9      180.000000        0.106072         4
        20        21        22        23     9        0.000000        4.311982         1
        20        21        22        23     9      180.000000       -3.713964         2
        20        21        22        23     9        0.000000       -0.027054         3
        20        21        22        23     9      180.000000        0.608513         4
        20        21        22        42     9        0.000000       -0.123269         1
        20        21        22        42     9      180.000000        0.042414         2
        20        21        22        42     9        0.000000        0.341578         3
        20        21        22        42     9      180.000000       -0.004327         4
        20        21        22        43     9        0.000000       -0.123269         1
        20        21        22        43     9      180.000000        0.042414         2
        20        21        22        43     9        0.000000        0.341578         3
        20        21        22        43     9      180.000000       -0.004327         4
        20        25        24        23     9        0.000000        3.989343         1
        20        25        24        23     9      180.000000       -0.744429         2
        20        25        24        23     9        0.000000        0.282884         3
        20        25        24        23     9      180.000000        0.730782         4
        20        25        24        46     9        0.000000        7.632083         1
        20        25        24        46     9      180.000000        3.002818         2
        20        25        24        46     9        0.000000       -0.065369         3
        20        25        24        46     9      180.000000        0.439376         4
        20        25        26        47     9        0.000000        0.224593         1
        20        25        26        47     9      180.000000       12.381407         2
        20        25        26        47     9        0.000000       -0.260128         3
        20        25        26        47     9      180.000000        0.120406         4
        21        20        19        41     9        0.000000       -0.008575         1
        21        20        19        41     9      180.000000       15.040100         2
        21        20        19        41     9        0.000000        0.135675         3
        21        20        19        41     9      180.000000        0.211840         4
        21        20        25        24     9        0.000000        0.186870         1
        21        20        25        24     9      180.000000       19.464325         2
        21        20        25        24     9        0.000000        0.859775         3
        21        20        25        24     9      180.000000       -0.891678         4
        21        20        25        26     9        0.000000        0.084147         1
        21        20        25        26     9      180.000000       15.513765         2
        21        20        25        26     9        0.000000        0.628095         3
        21        20        25        26     9      180.000000       -0.246432         4
        21        22        23        24     9        0.000000       -0.535502         1
        21        22        23        24     9      180.000000       -1.372105         2
        21        22        23        24     9        0.000000       -0.019252         3
        21        22        23        24     9      180.000000        0.090002         4
        21        22        23        44     9        0.000000       -0.031753         1
        21        22        23        44     9      180.000000        0.088821         2
        21        22        23        44     9        0.000000        0.144851         3
        21        22        23        44     9      180.000000        0.078602         4
        21        22        23        45     9        0.000000       -0.031753         1
        21        22        23        45     9      180.000000        0.088821         2
        21        22        23        45     9        0.000000        0.144851         3
        21        22        23        45     9      180.000000        0.078602         4
        22        21        20        25     9        0.000000        2.075725         1
        22        21        20        25     9      180.000000        0.650472         2
        22        21        20        25     9        0.000000       -0.250052         3
        22        21        20        25     9      180.000000        0.532035         4
        22        23        24        25     9        0.000000        2.147783         1
        22        23        24        25     9      180.000000       -1.938683         2
        22        23        24        25     9        0.000000       -0.101356         3
        22        23        24        25     9      180.000000        0.607015         4
        22        23        24        46     9        0.000000       -0.324569         1
        22        23        24        46     9      180.000000       -2.507806         2
        22        23        24        46     9        0.000000       -0.029645         3
        22        23        24        46     9      180.000000        0.215746         4
        23        24        25        26     9        0.000000       -1.278393         1
        23        24        25        26     9      180.000000        2.348293         2
        23        24        25        26     9        0.000000       -0.607608         3
        23        24        25        26     9      180.000000        0.327628         4
        24        23        22        42     9        0.000000       -0.080778         1
        24        23        22        42     9      180.000000        0.032765         2
        24        23        22        42     9        0.000000        0.230258         3
        24        23        22        42     9      180.000000        0.017453         4
        24        23        22        43     9        0.000000       -0.080778         1
        24        23        22        43     9      180.000000        0.032765         2
        24        23        22        43     9        0.000000        0.230258         3
        24        23        22        43     9      180.000000        0.017453         4
        24        25        26        47     9        0.000000       -0.130538         1
        24        25        26        47     9      180.000000       15.086414         2
        24        25        26        47     9        0.000000       -0.120025         3
        24        25        26        47     9      180.000000        0.251967         4
        25        20        19        41     9        0.000000        0.107586         1
        25        20        19        41     9      180.000000       12.615386         2
        25        20        19        41     9        0.000000       -0.308106         3
        25        20        19        41     9      180.000000        0.047058         4
        25        24        23        44     9        0.000000       -0.099672         1
        25        24        23        44     9      180.000000       -0.021855         2
        25        24        23        44     9        0.000000        0.337942         3
        25        24        23        44     9      180.000000       -0.038027         4
        25        24        23        45     9        0.000000       -0.099672         1
        25        24        23        45     9      180.000000       -0.021855         2
        25        24        23        45     9        0.000000        0.337942         3
        25        24        23        45     9      180.000000       -0.038027         4
        26        17        18        40     9        0.000000       -0.129940         1
        26        17        18        40     9      180.000000       13.410794         2
        26        17        18        40     9        0.000000       -0.676188         3
        26        17        18        40     9      180.000000        0.094438         4
        26        25        24        46     9        0.000000       -0.441395         1
        26        25        24        46     9      180.000000        3.596747         2
        26        25        24        46     9        0.000000       -0.348287         3
        26        25        24        46     9      180.000000        0.272226         4
        27         6         5        35     9        0.000000        0.074273         1
        27         6         5        35     9      180.000000       12.990241         2
        27         6         5        35     9        0.000000       -0.520768         3
        27         6         5        35     9      180.000000        0.132469         4
        27         6         7        36     9        0.000000        1.575093         1
        27         6         7        36     9      180.000000        3.198189         2
        27         6         7        36     9        0.000000        0.467524         3
        27         6         7        36     9      180.000000        0.863764         4
        27        28        29        30     9        0.000000        0.123069         1
        27        28        29        30     9      180.000000        4.737590         2
        27        28        29        30     9        0.000000       -0.815850         3
        27        28        29        30     9      180.000000        0.427563         4
        28         3         4        34     9        0.000000        0.222424         1
        28         3         4        34     9      180.000000       12.890975         2
        28         3         4        34     9        0.000000       -0.414499         3
        28         3         4        34     9      180.000000        0.189834         4
        28        29        30        49     9        0.000000       -0.006341         1
        28        29        30        49     9      180.000000       -0.005041         2
        28        29        30        49     9        0.000000        0.433370         3
        28        29        30        49     9      180.000000       -0.009039         4
        28        29        30        50     9        0.000000       -0.006341         1
        28        29        30        50     9      180.000000       -0.005041         2
        28        29        30        50     9        0.000000        0.433370         3
        28        29        30        50     9      180.000000       -0.009039         4
        28        29        30        51     9        0.000000       -0.006341         1
        28        29        30        51     9      180.000000       -0.005041         2
        28        29        30        51     9        0.000000        0.433370         3
        28        29        30        51     9      180.000000       -0.009039         4
        29        28        27        48     9        0.000000        0.102563         1
        29        28        27        48     9      180.000000       13.836841         2
        29        28        27        48     9        0.000000       -0.050823         3
        29        28        27        48     9      180.000000        0.307531         4
        34         4         5        35     9        0.000000       -0.192420         1
        34         4         5        35     9      180.000000       11.734676         2
        34         4         5        35     9        0.000000       -0.700233         3
        34         4         5        35     9      180.000000        0.222006         4
        38        13        14        39     9        0.000000       -0.357707         1
        38        13        14        39     9      180.000000        9.061502         2
        38        13        14        39     9        0.000000       -0.277918         3
        38        13        14        39     9      180.000000        0.193706         4
        40        18        19        41     9        0.000000       -0.179236         1
        40        18        19        41     9      180.000000       11.965096         2
        40        18        19        41     9        0.000000       -0.806281         3
        40        18        19        41     9      180.000000        0.365591         4
        42        22        23        44     9        0.000000       -0.010272         1
        42        22        23        44     9      180.000000       -0.016218         2
        42        22        23        44     9        0.000000        0.250036         3
        42        22        23        44     9      180.000000       -0.001839         4
        42        22        23        45     9        0.000000       -0.010272         1
        42        22        23        45     9      180.000000       -0.016218         2
        42        22        23        45     9        0.000000        0.250036         3
        42        22        23        45     9      180.000000       -0.001839         4
        43        22        23        44     9        0.000000       -0.010272         1
        43        22        23        44     9      180.000000       -0.016218         2
        43        22        23        44     9        0.000000        0.250036         3
        43        22        23        44     9      180.000000       -0.001839         4
        43        22        23        45     9        0.000000       -0.010272         1
        43        22        23        45     9      180.000000       -0.016218         2
        43        22        23        45     9        0.000000        0.250036         3
        43        22        23        45     9      180.000000       -0.001839         4
        44        23        24        46     9        0.000000       -0.115861         1
        44        23        24        46     9      180.000000        0.311548         2
        44        23        24        46     9        0.000000        0.318866         3
        44        23        24        46     9      180.000000       -0.019991         4
        45        23        24        46     9        0.000000       -0.115861         1
        45        23        24        46     9      180.000000        0.311548         2
        45        23        24        46     9        0.000000        0.318866         3
        45        23        24        46     9      180.000000       -0.019991         4

[ pairs ]
;       ai        aj funct
         1         4     1
         1        28     1
         2         5     1
         2        27     1
         2        29     1
         2        34     1
         3         6     1
         3        30     1
         3        31     1
         3        32     1
         3        33     1
         3        35     1
         3        48     1
         4         7     1
         4        27     1
         4        29     1
         5         8     1
         5        28     1
         5        36     1
         5        48     1
         6         9     1
         6        16     1
         6        29     1
         6        34     1
         7        10     1
         7        12     1
         7        15     1
         7        28     1
         7        35     1
         7        48     1
         8        11     1
         8        13     1
         8        14     1
         8        17     1
         8        27     1
         9        12     1
         9        15     1
         9        18     1
         9        26     1
         9        36     1
         9        37     1
        10        13     1
        10        16     1
        10        19     1
        10        25     1
        10        40     1
        10        47     1
        11        14     1
        11        15     1
        11        18     1
        11        26     1
        11        38     1
        12        17     1
        12        39     1
        13        37     1
        15        38     1
        16        36     1
        16        37     1
        16        38     1
        16        39     1
        17        20     1
        17        24     1
        17        37     1
        17        41     1
        18        21     1
        18        25     1
        18        47     1
        19        22     1
        19        24     1
        19        26     1
        20        23     1
        20        40     1
        20        42     1
        20        43     1
        20        46     1
        20        47     1
        21        24     1
        21        26     1
        21        41     1
        21        44     1
        21        45     1
        22        25     1
        22        46     1
        23        26     1
        24        42     1
        24        43     1
        24        47     1
        25        41     1
        25        44     1
        25        45     1
        26        40     1
        26        46     1
        27        30     1
        27        35     1
        27        36     1
        28        34     1
        28        49     1
        28        50     1
        28        51     1
        29        48     1
        34        35     1
        38        39     1
        40        41     1
        42        44     1
        42        45     1
        43        44     1
        43        45     1
        44        46     1
        45        46     1
