; ITP file created by ByteFF-ML, 2026-02-21 07:50:09.043448

[ atomtypes ]
;name           bonded.type        at.num        mass        charge   ptype           sigma         epsilon
 c0bf                                   6      0.0000       0.00000       A     3.39799e-01     4.50095e-01
 o1bf                                   8      0.0000       0.00000       A     3.15802e-01     3.03422e-01
 c2bf                                   6      0.0000       0.00000       A     3.31494e-01     4.13273e-01
 c3bf                                   6      0.0000       0.00000       A     3.31460e-01     4.13344e-01
 c4bf                                   6      0.0000       0.00000       A     3.31371e-01     4.12570e-01
 c5bf                                   6      0.0000       0.00000       A     3.31310e-01     4.12073e-01
 n6bf                                   7      0.0000       0.00000       A     3.27838e-01     6.48901e-01
 c7bf                                   6      0.0000       0.00000       A     3.31293e-01     4.14462e-01
 n8bf                                   7      0.0000       0.00000       A     3.38681e-01     3.94196e-01
 c9bf                                   6      0.0000       0.00000       A     3.31490e-01     4.10602e-01
 c10bf                                  6      0.0000       0.00000       A     3.31502e-01     4.12996e-01
 n11bf                                  7      0.0000       0.00000       A     3.20544e-01     8.50304e-01
 c12bf                                  6      0.0000       0.00000       A     3.31513e-01     4.11963e-01
 c13bf                                  6      0.0000       0.00000       A     3.31488e-01     4.12482e-01
 n14bf                                  7      0.0000       0.00000       A     3.38571e-01     3.94678e-01
 c15bf                                  6      0.0000       0.00000       A     3.31524e-01     4.13157e-01
 c16bf                                  6      0.0000       0.00000       A     3.31321e-01     4.13074e-01
 c17bf                                  6      0.0000       0.00000       A     3.31483e-01     4.13111e-01
 c18bf                                  6      0.0000       0.00000       A     3.31435e-01     4.13372e-01
 c19bf                                  6      0.0000       0.00000       A     3.31383e-01     4.13663e-01
 c20bf                                  6      0.0000       0.00000       A     3.31515e-01     4.11146e-01
 o21bf                                  8      0.0000       0.00000       A     3.04803e-01     6.10117e-01
 n22bf                                  7      0.0000       0.00000       A     3.35886e-01     3.54024e-01
 c23bf                                  6      0.0000       0.00000       A     3.31553e-01     4.12368e-01
 c24bf                                  6      0.0000       0.00000       A     3.39805e-01     4.51097e-01
 c25bf                                  6      0.0000       0.00000       A     3.31374e-01     4.13460e-01
 c26bf                                  6      0.0000       0.00000       A     3.31426e-01     4.12512e-01
 c27bf                                  6      0.0000       0.00000       A     3.31334e-01     4.12096e-01
 o28bf                                  8      0.0000       0.00000       A     3.15839e-01     3.04251e-01
 c29bf                                  6      0.0000       0.00000       A     3.39799e-01     4.50095e-01
 h30bf                                  1      0.0000       0.00000       A     2.42080e-01     8.75859e-02
 h31bf                                  1      0.0000       0.00000       A     2.42080e-01     8.75859e-02
 h32bf                                  1      0.0000       0.00000       A     2.42080e-01     8.75859e-02
 h33bf                                  1      0.0000       0.00000       A     2.62545e-01     6.69663e-02
 h34bf                                  1      0.0000       0.00000       A     2.62478e-01     6.76031e-02
 h35bf                                  1      0.0000       0.00000       A     1.10437e-01     4.36637e-02
 h36bf                                  1      0.0000       0.00000       A     2.53936e-01     6.71690e-02
 h37bf                                  1      0.0000       0.00000       A     2.54157e-01     6.73717e-02
 h38bf                                  1      0.0000       0.00000       A     2.53844e-01     6.71387e-02
 h39bf                                  1      0.0000       0.00000       A     2.62541e-01     6.75089e-02
 h40bf                                  1      0.0000       0.00000       A     2.62500e-01     6.72153e-02
 h41bf                                  1      0.0000       0.00000       A     1.10424e-01     4.11499e-02
 h42bf                                  1      0.0000       0.00000       A     1.10424e-01     4.11499e-02
 h43bf                                  1      0.0000       0.00000       A     2.60031e-01     8.73273e-02
 h44bf                                  1      0.0000       0.00000       A     2.60031e-01     8.73273e-02
 h45bf                                  1      0.0000       0.00000       A     2.60031e-01     8.73273e-02
 h46bf                                  1      0.0000       0.00000       A     2.62577e-01     6.72807e-02
 h47bf                                  1      0.0000       0.00000       A     2.62385e-01     6.71291e-02
 h48bf                                  1      0.0000       0.00000       A     2.42080e-01     8.75859e-02
 h49bf                                  1      0.0000       0.00000       A     2.42080e-01     8.75859e-02
 h50bf                                  1      0.0000       0.00000       A     2.42080e-01     8.75859e-02

[ moleculetype ]
;name             nrexcl
 CHEMBL3265013_flip       3

[ atoms ]
;       nr            type      resi   res      atom      cgnr      charge          mass ; qtot
         1            c0bf         1   UNL        c0         1     0.14145       12.0110 ; qtot    0.141
         2            o1bf         1   UNL        o1         2    -0.33647       15.9990 ; qtot   -0.195
         3            c2bf         1   UNL        c2         3     0.08002       12.0110 ; qtot   -0.115
         4            c3bf         1   UNL        c3         4    -0.13937       12.0110 ; qtot   -0.254
         5            c4bf         1   UNL        c4         5    -0.13475       12.0110 ; qtot   -0.389
         6            c5bf         1   UNL        c5         6     0.30239       12.0110 ; qtot   -0.087
         7            n6bf         1   UNL        n6         7    -0.91203       14.0070 ; qtot   -0.999
         8            c7bf         1   UNL        c7         8     0.67905       12.0110 ; qtot   -0.320
         9            n8bf         1   UNL        n8         9    -0.75814       14.0070 ; qtot   -1.078
        10            c9bf         1   UNL        c9        10     0.38627       12.0110 ; qtot   -0.692
        11           c10bf         1   UNL       c10        11    -0.18257       12.0110 ; qtot   -0.874
        12           n11bf         1   UNL       n11        12     0.16114       14.0070 ; qtot   -0.713
        13           c12bf         1   UNL       c12        13    -0.26112       12.0110 ; qtot   -0.974
        14           c13bf         1   UNL       c13        14    -0.04248       12.0110 ; qtot   -1.017
        15           n14bf         1   UNL       n14        15    -0.27126       14.0070 ; qtot   -1.288
        16           c15bf         1   UNL       c15        16    -0.16948       12.0110 ; qtot   -1.457
        17           c16bf         1   UNL       c16        17    -0.10077       12.0110 ; qtot   -1.558
        18           c17bf         1   UNL       c17        18    -0.09483       12.0110 ; qtot   -1.653
        19           c18bf         1   UNL       c18        19    -0.07922       12.0110 ; qtot   -1.732
        20           c19bf         1   UNL       c19        20    -0.14723       12.0110 ; qtot   -1.879
        21           c20bf         1   UNL       c20        21     0.60283       12.0110 ; qtot   -1.277
        22           o21bf         1   UNL       o21        22    -0.59345       15.9990 ; qtot   -1.870
        23           n22bf         1   UNL       n22        23    -0.59458       14.0070 ; qtot   -2.465
        24           c23bf         1   UNL       c23        24    -0.03136       12.0110 ; qtot   -2.496
        25           c24bf         1   UNL       c24        25    -0.05437       12.0110 ; qtot   -2.550
        26           c25bf         1   UNL       c25        26    -0.09800       12.0110 ; qtot   -2.648
        27           c26bf         1   UNL       c26        27    -0.18949       12.0110 ; qtot   -2.838
        28           c27bf         1   UNL       c27        28     0.11411       12.0110 ; qtot   -2.724
        29           o28bf         1   UNL       o28        29    -0.33842       15.9990 ; qtot   -3.062
        30           c29bf         1   UNL       c29        30     0.14175       12.0110 ; qtot   -2.920
        31           h30bf         1   UNL       h30        31     0.04404        1.0080 ; qtot   -2.876
        32           h31bf         1   UNL       h31        32     0.04404        1.0080 ; qtot   -2.832
        33           h32bf         1   UNL       h32        33     0.04404        1.0080 ; qtot   -2.788
        34           h33bf         1   UNL       h33        34     0.12393        1.0080 ; qtot   -2.664
        35           h34bf         1   UNL       h34        35     0.13132        1.0080 ; qtot   -2.533
        36           h35bf         1   UNL       h35        36     0.50588        1.0080 ; qtot   -2.027
        37           h36bf         1   UNL       h36        37     0.15431        1.0080 ; qtot   -1.873
        38           h37bf         1   UNL       h37        38     0.22767        1.0080 ; qtot   -1.645
        39           h38bf         1   UNL       h38        39     0.22246        1.0080 ; qtot   -1.423
        40           h39bf         1   UNL       h39        40     0.12969        1.0080 ; qtot   -1.293
        41           h40bf         1   UNL       h40        41     0.12766        1.0080 ; qtot   -1.165
        42           h41bf         1   UNL       h41        42     0.30935        1.0080 ; qtot   -0.856
        43           h42bf         1   UNL       h42        43     0.30935        1.0080 ; qtot   -0.547
        44           h43bf         1   UNL       h43        44     0.05173        1.0080 ; qtot   -0.495
        45           h44bf         1   UNL       h44        45     0.05173        1.0080 ; qtot   -0.443
        46           h45bf         1   UNL       h45        46     0.05173        1.0080 ; qtot   -0.391
        47           h46bf         1   UNL       h46        47     0.12725        1.0080 ; qtot   -0.264
        48           h47bf         1   UNL       h47        48     0.13212        1.0080 ; qtot   -0.132
        49           h48bf         1   UNL       h48        49     0.04404        1.0080 ; qtot   -0.088
        50           h49bf         1   UNL       h49        50     0.04404        1.0080 ; qtot   -0.044
        51           h50bf         1   UNL       h50        51     0.04400        1.0080 ; qtot   -0.000

[ bonds ]
;       ai        aj funct               r               k
         1         2     1        0.142750   205228.507056
         1        31     1        0.109386   299034.366748
         1        32     1        0.109386   299034.366748
         1        33     1        0.109386   299034.366748
         2         3     1        0.137015   270782.100830
         3         4     1        0.139488   304008.331689
         3        28     1        0.141529   250914.434033
         4         5     1        0.140005   315466.551758
         4        34     1        0.108446   322299.133057
         5         6     1        0.140061   293503.054395
         5        35     1        0.108414   324178.051416
         6         7     1        0.141092   252182.734570
         6        27     1        0.140674   282765.542627
         7         8     1        0.136729   311607.817920
         7        36     1        0.101302   413497.768799
         8         9     1        0.132079   353344.852295
         8        16     1        0.143870   235848.075781
         9        10     1        0.137730   242835.284277
        10        11     1        0.137560   345802.007373
        10        17     1        0.148266   209247.677783
        11        12     1        0.137841   276178.679395
        11        37     1        0.108180   332005.354199
        12        13     1        0.137750   263209.071045
        12        16     1        0.138998   204565.857373
        13        14     1        0.138746   337814.101709
        13        38     1        0.107915   345078.311230
        14        15     1        0.136744   275913.399902
        14        39     1        0.108260   332273.212939
        15        16     1        0.133378   321390.292871
        17        18     1        0.140384   289658.289355
        17        26     1        0.140341   288430.975879
        18        19     1        0.139212   327798.396338
        18        40     1        0.108487   322284.908887
        19        20     1        0.140427   289321.480420
        19        41     1        0.108544   320506.836572
        20        21     1        0.150372   175518.314795
        20        24     1        0.141276   262701.495459
        21        22     1        0.123090   606751.401758
        21        23     1        0.138028   288258.115186
        23        42     1        0.101229   424544.075293
        23        43     1        0.101229   424544.075293
        24        25     1        0.151217   200507.985156
        24        26     1        0.139915   304254.994629
        25        44     1        0.109328   302486.626416
        25        45     1        0.109328   302486.626416
        25        46     1        0.109328   302486.626416
        26        47     1        0.108541   319092.080713
        27        28     1        0.139409   309212.462598
        27        48     1        0.108244   326136.952002
        28        29     1        0.136800   272579.862256
        29        30     1        0.142754   205101.357788
        30        49     1        0.109386   299034.341211
        30        50     1        0.109386   299034.341211
        30        51     1        0.109386   299034.341211

[ angles ]
;       ai        aj        ak funct           theta             cth
         1         2         3     1      117.082443      547.136590
         2         1        31     1      109.406631      448.806110
         2         1        32     1      109.406631      448.806110
         2         1        33     1      109.406631      448.806110
         2         3         4     1      124.061974      526.185244
         2         3        28     1      116.730186      403.093057
         3         4         5     1      121.105545      730.301061
         3         4        34     1      119.820435      430.270000
         3        28        27     1      119.959702      641.355245
         3        28        29     1      116.770729      382.344602
         4         3        28     1      118.961632      615.309053
         4         5         6     1      119.989258      692.295585
         4         5        35     1      119.981018      402.478985
         5         4        34     1      119.168861      430.731806
         5         6         7     1      121.161964      571.797075
         5         6        27     1      119.274185      562.540766
         6         5        35     1      119.993568      438.163871
         6         7         8     1      130.908600      390.906748
         6         7        36     1      115.466995      445.927919
         6        27        28     1      120.440468      771.725955
         6        27        48     1      119.557449      428.763885
         7         6        27     1      119.328491      531.273672
         7         8         9     1      121.356186      603.895561
         7         8        16     1      116.105576      347.689596
         8         7        36     1      112.198647      485.186500
         8         9        10     1      119.762589      662.306592
         8        16        12     1      117.476013      691.884693
         8        16        15     1      131.168365      328.267219
         9         8        16     1      121.162231      641.675161
         9        10        11     1      122.011795      387.435521
         9        10        17     1      116.287743      496.259933
        10        11        12     1      118.169640      873.066143
        10        11        37     1      124.890701      345.147472
        10        17        18     1      121.002319      547.692023
        10        17        26     1      120.845718      500.368918
        11        10        17     1      121.382324      453.293491
        11        12        13     1      132.322876      451.336998
        11        12        16     1      121.408890      768.949816
        12        11        37     1      117.425148      489.799204
        12        13        14     1      105.222717      375.667031
        12        13        38     1      122.391075      461.871917
        12        16        15     1      111.412987      167.360000
        13        12        16     1      106.439148      167.360000
        13        14        15     1      111.710022      296.607652
        13        14        39     1      126.932030      353.254674
        14        13        38     1      132.665771      296.979153
        14        15        16     1      105.148094      501.387338
        15        14        39     1      121.224686      373.698758
        17        18        19     1      120.112473      704.590490
        17        18        40     1      119.848717      427.912892
        17        26        24     1      122.542320      680.517104
        17        26        47     1      118.803452      426.596135
        18        17        26     1      118.486206      595.000731
        18        19        20     1      121.262741      673.225110
        18        19        41     1      119.559486      424.738630
        19        18        40     1      119.984924      424.971113
        19        20        21     1      118.209373      591.760646
        19        20        24     1      119.665237      626.064262
        20        19        41     1      119.139748      407.658517
        20        21        22     1      122.852005      579.463890
        20        21        23     1      115.473923      529.815918
        20        24        25     1      123.129066      441.495059
        20        24        26     1      118.003296      708.047002
        21        20        24     1      121.975708      591.991757
        21        23        42     1      117.641434      445.303249
        21        23        43     1      117.641434      445.303249
        22        21        23     1      121.147537      690.682725
        24        25        44     1      111.174583      483.339752
        24        25        45     1      111.174583      483.339752
        24        25        46     1      111.174583      483.339752
        24        26        47     1      118.612160      400.278101
        25        24        26     1      118.987549      486.745796
        27        28        29     1      123.114540      463.233875
        28        27        48     1      120.054489      415.811750
        28        29        30     1      117.278854      548.766496
        29        30        49     1      109.407082      448.359562
        29        30        50     1      109.407082      448.359562
        29        30        51     1      109.407082      448.359562
        31         1        32     1      109.654236      343.283135
        31         1        33     1      109.654236      343.283135
        32         1        33     1      109.654236      343.283135
        42        23        43     1      117.222290      318.388412
        44        25        45     1      107.771034      357.562242
        44        25        46     1      107.771034      357.562242
        45        25        46     1      107.771034      357.562242
        49        30        50     1      109.654236      343.283167
        49        30        51     1      109.654236      343.283167
        50        30        51     1      109.654236      343.283167

[ dihedrals ] ; propers for gromacs 4.5 or higher, use funct 9
;       ai        aj        ak        al funct           phase               k        pn
         1         2         3         4     9        0.000000       -0.020471         1
         1         2         3         4     9      180.000000        4.264586         2
         1         2         3         4     9        0.000000       -0.661221         3
         1         2         3         4     9      180.000000        0.423658         4
         1         2         3        28     9        0.000000        0.687110         1
         1         2         3        28     9      180.000000        3.031873         2
         1         2         3        28     9        0.000000        1.138396         3
         1         2         3        28     9      180.000000        0.057396         4
         2         3         4         5     9        0.000000        0.412383         1
         2         3         4         5     9      180.000000       18.405153         2
         2         3         4         5     9        0.000000        0.286762         3
         2         3         4         5     9      180.000000       -0.248269         4
         2         3         4        34     9        0.000000        0.002515         1
         2         3         4        34     9      180.000000       13.550908         2
         2         3         4        34     9        0.000000       -0.035816         3
         2         3         4        34     9      180.000000        0.307724         4
         2         3        28        27     9        0.000000        0.190228         1
         2         3        28        27     9      180.000000       12.913656         2
         2         3        28        27     9        0.000000       -0.036672         3
         2         3        28        27     9      180.000000        0.087435         4
         2         3        28        29     9        0.000000       -0.231151         1
         2         3        28        29     9      180.000000       16.200532         2
         2         3        28        29     9        0.000000       -0.225092         3
         2         3        28        29     9      180.000000       -0.129585         4
         3         2         1        31     9        0.000000       -0.002785         1
         3         2         1        31     9      180.000000       -0.013204         2
         3         2         1        31     9        0.000000        0.475747         3
         3         2         1        31     9      180.000000       -0.002909         4
         3         2         1        32     9        0.000000       -0.002785         1
         3         2         1        32     9      180.000000       -0.013204         2
         3         2         1        32     9        0.000000        0.475747         3
         3         2         1        32     9      180.000000       -0.002909         4
         3         2         1        33     9        0.000000       -0.002785         1
         3         2         1        33     9      180.000000       -0.013204         2
         3         2         1        33     9        0.000000        0.475747         3
         3         2         1        33     9      180.000000       -0.002909         4
         3         4         5         6     9        0.000000       -0.173495         1
         3         4         5         6     9      180.000000       17.663552         2
         3         4         5         6     9        0.000000       -1.660356         3
         3         4         5         6     9      180.000000       -0.412935         4
         3         4         5        35     9        0.000000        0.149237         1
         3         4         5        35     9      180.000000       14.141559         2
         3         4         5        35     9        0.000000       -0.494779         3
         3         4         5        35     9      180.000000        0.094379         4
         3        28        27         6     9        0.000000       -0.132619         1
         3        28        27         6     9      180.000000       16.584041         2
         3        28        27         6     9        0.000000       -1.316973         3
         3        28        27         6     9      180.000000       -0.328534         4
         3        28        27        48     9        0.000000        0.166400         1
         3        28        27        48     9      180.000000       12.784533         2
         3        28        27        48     9        0.000000       -0.336161         3
         3        28        27        48     9      180.000000        0.291888         4
         3        28        29        30     9        0.000000        0.802291         1
         3        28        29        30     9      180.000000        3.527079         2
         3        28        29        30     9        0.000000        1.195050         3
         3        28        29        30     9      180.000000        0.043134         4
         4         3        28        27     9        0.000000        0.246300         1
         4         3        28        27     9      180.000000       12.038167         2
         4         3        28        27     9        0.000000       -0.447743         3
         4         3        28        27     9      180.000000       -0.093295         4
         4         3        28        29     9        0.000000        0.312921         1
         4         3        28        29     9      180.000000       12.963699         2
         4         3        28        29     9        0.000000       -0.020336         3
         4         3        28        29     9      180.000000        0.087697         4
         4         5         6         7     9        0.000000        0.132129         1
         4         5         6         7     9      180.000000       17.832522         2
         4         5         6         7     9        0.000000        0.097463         3
         4         5         6         7     9      180.000000       -0.336845         4
         4         5         6        27     9        0.000000       -0.023969         1
         4         5         6        27     9      180.000000       17.298060         2
         4         5         6        27     9        0.000000       -1.297561         3
         4         5         6        27     9      180.000000       -0.244555         4
         5         4         3        28     9        0.000000        0.101367         1
         5         4         3        28     9      180.000000       16.812105         2
         5         4         3        28     9        0.000000       -1.160185         3
         5         4         3        28     9      180.000000       -0.311315         4
         5         6         7         8     9        0.000000        0.443064         1
         5         6         7         8     9      180.000000        3.120267         2
         5         6         7         8     9        0.000000       -0.198859         3
         5         6         7         8     9      180.000000        0.465134         4
         5         6         7        36     9        0.000000       -0.086586         1
         5         6         7        36     9      180.000000        3.309236         2
         5         6         7        36     9        0.000000        0.058468         3
         5         6         7        36     9      180.000000        0.892657         4
         5         6        27        28     9        0.000000        0.041058         1
         5         6        27        28     9      180.000000       15.861907         2
         5         6        27        28     9        0.000000       -1.469751         3
         5         6        27        28     9      180.000000       -0.131811         4
         5         6        27        48     9        0.000000        0.034995         1
         5         6        27        48     9      180.000000       12.257033         2
         5         6        27        48     9        0.000000       -0.533827         3
         5         6        27        48     9      180.000000        0.241321         4
         6         5         4        34     9        0.000000        0.111932         1
         6         5         4        34     9      180.000000       13.581334         2
         6         5         4        34     9        0.000000       -0.541303         3
         6         5         4        34     9      180.000000        0.103444         4
         6         7         8         9     9        0.000000       -0.142316         1
         6         7         8         9     9      180.000000        7.089439         2
         6         7         8         9     9        0.000000        0.006697         3
         6         7         8         9     9      180.000000       -0.538883         4
         6         7         8        16     9        0.000000        2.326493         1
         6         7         8        16     9      180.000000        5.951173         2
         6         7         8        16     9        0.000000        0.374079         3
         6         7         8        16     9      180.000000       -0.366443         4
         6        27        28        29     9        0.000000        0.361152         1
         6        27        28        29     9      180.000000       18.377753         2
         6        27        28        29     9        0.000000        0.246867         3
         6        27        28        29     9      180.000000       -0.381467         4
         7         6         5        35     9        0.000000       -0.024104         1
         7         6         5        35     9      180.000000       14.277814         2
         7         6         5        35     9        0.000000       -0.040262         3
         7         6         5        35     9      180.000000        0.129898         4
         7         6        27        28     9        0.000000       -0.012406         1
         7         6        27        28     9      180.000000       16.138685         2
         7         6        27        28     9        0.000000       -0.036311         3
         7         6        27        28     9      180.000000       -0.361374         4
         7         6        27        48     9        0.000000       -0.145209         1
         7         6        27        48     9      180.000000       13.428408         2
         7         6        27        48     9        0.000000       -0.139710         3
         7         6        27        48     9      180.000000        0.230595         4
         7         8         9        10     9        0.000000        1.937644         1
         7         8         9        10     9      180.000000       24.386208         2
         7         8         9        10     9        0.000000        0.724154         3
         7         8         9        10     9      180.000000       -0.984910         4
         7         8        16        12     9        0.000000        0.532707         1
         7         8        16        12     9      180.000000       12.023478         2
         7         8        16        12     9        0.000000        0.177021         3
         7         8        16        12     9      180.000000       -0.593144         4
         7         8        16        15     9        0.000000       -0.356301         1
         7         8        16        15     9      180.000000       10.853867         2
         7         8        16        15     9        0.000000       -0.107328         3
         7         8        16        15     9      180.000000       -0.464327         4
         8         7         6        27     9        0.000000       -0.444928         1
         8         7         6        27     9      180.000000        3.391439         2
         8         7         6        27     9        0.000000       -0.254058         3
         8         7         6        27     9      180.000000        0.430933         4
         8         9        10        11     9        0.000000        0.962535         1
         8         9        10        11     9      180.000000       13.651558         2
         8         9        10        11     9        0.000000       -0.254994         3
         8         9        10        11     9      180.000000       -0.035486         4
         8         9        10        17     9        0.000000        1.501356         1
         8         9        10        17     9      180.000000       18.020766         2
         8         9        10        17     9        0.000000        0.688714         3
         8         9        10        17     9      180.000000       -1.012314         4
         8        16        12        11     9        0.000000        0.337956         1
         8        16        12        11     9      180.000000        5.783879         2
         8        16        12        11     9        0.000000       -0.143386         3
         8        16        12        11     9      180.000000        0.124531         4
         8        16        12        13     9        0.000000       -0.529939         1
         8        16        12        13     9      180.000000        7.254573         2
         8        16        12        13     9        0.000000       -2.285934         3
         8        16        12        13     9      180.000000        0.374903         4
         8        16        15        14     9        0.000000        1.546001         1
         8        16        15        14     9      180.000000       16.470755         2
         8        16        15        14     9        0.000000       -0.373495         3
         8        16        15        14     9      180.000000        0.010417         4
         9         8         7        36     9        0.000000       11.455044         1
         9         8         7        36     9      180.000000        6.774556         2
         9         8         7        36     9        0.000000       -0.382910         3
         9         8         7        36     9      180.000000        0.129606         4
         9         8        16        12     9        0.000000       -0.061703         1
         9         8        16        12     9      180.000000        9.290064         2
         9         8        16        12     9        0.000000       -0.534588         3
         9         8        16        12     9      180.000000       -0.340850         4
         9         8        16        15     9        0.000000       -1.860286         1
         9         8        16        15     9      180.000000        6.551764         2
         9         8        16        15     9        0.000000       -0.109909         3
         9         8        16        15     9      180.000000       -0.440551         4
         9        10        11        12     9        0.000000       -0.638160         1
         9        10        11        12     9      180.000000       29.848929         2
         9        10        11        12     9        0.000000       -1.087380         3
         9        10        11        12     9      180.000000       -1.729227         4
         9        10        11        37     9        0.000000        0.291720         1
         9        10        11        37     9      180.000000       17.746775         2
         9        10        11        37     9        0.000000        0.210560         3
         9        10        11        37     9      180.000000       -0.560329         4
         9        10        17        18     9        0.000000       -0.114950         1
         9        10        17        18     9      180.000000        4.155763         2
         9        10        17        18     9        0.000000       -0.018100         3
         9        10        17        18     9      180.000000        0.035882         4
         9        10        17        26     9        0.000000       -0.378402         1
         9        10        17        26     9      180.000000        4.196039         2
         9        10        17        26     9        0.000000       -0.017644         3
         9        10        17        26     9      180.000000        0.054591         4
        10         9         8        16     9        0.000000        0.927335         1
        10         9         8        16     9      180.000000       22.097957         2
        10         9         8        16     9        0.000000        0.571867         3
        10         9         8        16     9      180.000000       -0.573459         4
        10        11        12        13     9        0.000000        0.457702         1
        10        11        12        13     9      180.000000        4.944585         2
        10        11        12        13     9        0.000000        0.250541         3
        10        11        12        13     9      180.000000        0.111196         4
        10        11        12        16     9        0.000000       -0.665143         1
        10        11        12        16     9      180.000000        9.271370         2
        10        11        12        16     9        0.000000       -1.025403         3
        10        11        12        16     9      180.000000       -0.052989         4
        10        17        18        19     9        0.000000        0.242903         1
        10        17        18        19     9      180.000000       15.297162         2
        10        17        18        19     9        0.000000       -0.187150         3
        10        17        18        19     9      180.000000       -0.245643         4
        10        17        18        40     9        0.000000       -0.095894         1
        10        17        18        40     9      180.000000       12.405293         2
        10        17        18        40     9        0.000000       -0.185041         3
        10        17        18        40     9      180.000000        0.204596         4
        10        17        26        24     9        0.000000        0.191518         1
        10        17        26        24     9      180.000000       14.861677         2
        10        17        26        24     9        0.000000       -0.148690         3
        10        17        26        24     9      180.000000       -0.276684         4
        10        17        26        47     9        0.000000       -0.129220         1
        10        17        26        47     9      180.000000       12.332040         2
        10        17        26        47     9        0.000000       -0.207815         3
        10        17        26        47     9      180.000000        0.220448         4
        11        10        17        18     9        0.000000       -0.295620         1
        11        10        17        18     9      180.000000        3.367399         2
        11        10        17        18     9        0.000000        0.185316         3
        11        10        17        18     9      180.000000       -0.187528         4
        11        10        17        26     9        0.000000       -0.176469         1
        11        10        17        26     9      180.000000        3.427357         2
        11        10        17        26     9        0.000000        0.174647         3
        11        10        17        26     9      180.000000       -0.164404         4
        11        12        13        14     9        0.000000        0.965502         1
        11        12        13        14     9      180.000000        5.223294         2
        11        12        13        14     9        0.000000        0.739375         3
        11        12        13        14     9      180.000000       -0.040295         4
        11        12        13        38     9        0.000000        0.156545         1
        11        12        13        38     9      180.000000        3.679925         2
        11        12        13        38     9        0.000000        0.374385         3
        11        12        13        38     9      180.000000        0.064056         4
        11        12        16        15     9        0.000000        0.555178         1
        11        12        16        15     9      180.000000        7.752461         2
        11        12        16        15     9        0.000000       -0.729377         3
        11        12        16        15     9      180.000000        0.134979         4
        12        11        10        17     9        0.000000        0.171541         1
        12        11        10        17     9      180.000000       26.543730         2
        12        11        10        17     9        0.000000        0.408564         3
        12        11        10        17     9      180.000000       -1.808418         4
        12        13        14        15     9        0.000000       -0.258793         1
        12        13        14        15     9      180.000000       36.323027         2
        12        13        14        15     9        0.000000       -7.442937         3
        12        13        14        15     9      180.000000       -0.839992         4
        12        13        14        39     9        0.000000        0.279819         1
        12        13        14        39     9      180.000000       18.770133         2
        12        13        14        39     9        0.000000       -0.507968         3
        12        13        14        39     9      180.000000       -0.564047         4
        12        16        15        14     9        0.000000       -0.172777         1
        12        16        15        14     9      180.000000       37.627789         2
        12        16        15        14     9        0.000000       -7.120096         3
        12        16        15        14     9      180.000000        0.116816         4
        13        12        11        37     9        0.000000       -0.211391         1
        13        12        11        37     9      180.000000        3.543757         2
        13        12        11        37     9        0.000000        0.304368         3
        13        12        11        37     9      180.000000        0.067334         4
        13        12        16        15     9        0.000000        0.131710         1
        13        12        16        15     9      180.000000       15.566772         2
        13        12        16        15     9        0.000000       -7.866552         3
        13        12        16        15     9      180.000000        0.257373         4
        13        14        15        16     9        0.000000       -0.255849         1
        13        14        15        16     9      180.000000       31.025341         2
        13        14        15        16     9        0.000000       -4.653101         3
        13        14        15        16     9      180.000000        0.341646         4
        14        13        12        16     9        0.000000        0.086044         1
        14        13        12        16     9      180.000000       25.283693         2
        14        13        12        16     9        0.000000       -9.272059         3
        14        13        12        16     9      180.000000        0.296509         4
        15        14        13        38     9        0.000000        0.292780         1
        15        14        13        38     9      180.000000       15.681647         2
        15        14        13        38     9        0.000000       -0.422048         3
        15        14        13        38     9      180.000000       -0.479005         4
        16         8         7        36     9        0.000000        3.047131         1
        16         8         7        36     9      180.000000        7.216451         2
        16         8         7        36     9        0.000000       -0.156869         3
        16         8         7        36     9      180.000000        0.486791         4
        16        12        11        37     9        0.000000        0.560809         1
        16        12        11        37     9      180.000000        4.562283         2
        16        12        11        37     9        0.000000        0.396933         3
        16        12        11        37     9      180.000000        0.102239         4
        16        12        13        38     9        0.000000        1.026521         1
        16        12        13        38     9      180.000000        6.099846         2
        16        12        13        38     9        0.000000        0.349087         3
        16        12        13        38     9      180.000000        0.232409         4
        16        15        14        39     9        0.000000        2.009587         1
        16        15        14        39     9      180.000000       22.682230         2
        16        15        14        39     9        0.000000        0.566970         3
        16        15        14        39     9      180.000000       -0.265560         4
        17        10        11        37     9        0.000000       -0.063378         1
        17        10        11        37     9      180.000000       14.963839         2
        17        10        11        37     9        0.000000        0.306970         3
        17        10        11        37     9      180.000000       -0.007484         4
        17        18        19        20     9        0.000000       -0.032002         1
        17        18        19        20     9      180.000000       19.575220         2
        17        18        19        20     9        0.000000       -1.808282         3
        17        18        19        20     9      180.000000       -0.465703         4
        17        18        19        41     9        0.000000       -0.056258         1
        17        18        19        41     9      180.000000       15.266081         2
        17        18        19        41     9        0.000000       -0.685571         3
        17        18        19        41     9      180.000000        0.080182         4
        17        26        24        20     9        0.000000        0.052348         1
        17        26        24        20     9      180.000000       19.310510         2
        17        26        24        20     9        0.000000       -1.354780         3
        17        26        24        20     9      180.000000       -0.505947         4
        17        26        24        25     9        0.000000        0.110839         1
        17        26        24        25     9      180.000000       17.341495         2
        17        26        24        25     9        0.000000       -0.100410         3
        17        26        24        25     9      180.000000       -0.319878         4
        18        17        26        24     9        0.000000       -0.119162         1
        18        17        26        24     9      180.000000       17.624167         2
        18        17        26        24     9        0.000000       -1.502914         3
        18        17        26        24     9      180.000000       -0.321311         4
        18        17        26        47     9        0.000000       -0.191618         1
        18        17        26        47     9      180.000000       13.778555         2
        18        17        26        47     9        0.000000       -0.667595         3
        18        17        26        47     9      180.000000        0.110967         4
        18        19        20        21     9        0.000000        0.124680         1
        18        19        20        21     9      180.000000       14.266322         2
        18        19        20        21     9        0.000000       -0.209275         3
        18        19        20        21     9      180.000000       -0.298449         4
        18        19        20        24     9        0.000000       -0.059601         1
        18        19        20        24     9      180.000000       18.089283         2
        18        19        20        24     9        0.000000       -1.456887         3
        18        19        20        24     9      180.000000       -0.421578         4
        19        18        17        26     9        0.000000       -0.085092         1
        19        18        17        26     9      180.000000       17.858264         2
        19        18        17        26     9        0.000000       -1.337420         3
        19        18        17        26     9      180.000000       -0.365866         4
        19        20        21        22     9        0.000000        0.967113         1
        19        20        21        22     9      180.000000        2.785237         2
        19        20        21        22     9        0.000000        0.248265         3
        19        20        21        22     9      180.000000       -0.030911         4
        19        20        21        23     9        0.000000        0.879788         1
        19        20        21        23     9      180.000000        2.343373         2
        19        20        21        23     9        0.000000        0.736065         3
        19        20        21        23     9      180.000000       -0.372748         4
        19        20        24        25     9        0.000000        0.012285         1
        19        20        24        25     9      180.000000       14.865417         2
        19        20        24        25     9        0.000000       -0.044236         3
        19        20        24        25     9      180.000000       -0.361259         4
        19        20        24        26     9        0.000000       -0.047995         1
        19        20        24        26     9      180.000000       18.108919         2
        19        20        24        26     9        0.000000       -1.012911         3
        19        20        24        26     9      180.000000       -0.532846         4
        20        19        18        40     9        0.000000       -0.092029         1
        20        19        18        40     9      180.000000       15.412876         2
        20        19        18        40     9        0.000000       -0.670385         3
        20        19        18        40     9      180.000000        0.034824         4
        20        21        23        42     9        0.000000       -0.872141         1
        20        21        23        42     9      180.000000        9.062074         2
        20        21        23        42     9        0.000000        0.727074         3
        20        21        23        42     9      180.000000       -1.362520         4
        20        21        23        43     9        0.000000       -0.872141         1
        20        21        23        43     9      180.000000        9.062074         2
        20        21        23        43     9        0.000000        0.727074         3
        20        21        23        43     9      180.000000       -1.362520         4
        20        24        25        44     9        0.000000       -0.031969         1
        20        24        25        44     9      180.000000       -0.003771         2
        20        24        25        44     9        0.000000        0.096990         3
        20        24        25        44     9      180.000000        0.018417         4
        20        24        25        45     9        0.000000       -0.031969         1
        20        24        25        45     9      180.000000       -0.003771         2
        20        24        25        45     9        0.000000        0.096990         3
        20        24        25        45     9      180.000000        0.018417         4
        20        24        25        46     9        0.000000       -0.031969         1
        20        24        25        46     9      180.000000       -0.003771         2
        20        24        25        46     9        0.000000        0.096990         3
        20        24        25        46     9      180.000000        0.018417         4
        20        24        26        47     9        0.000000       -0.035367         1
        20        24        26        47     9      180.000000       15.021569         2
        20        24        26        47     9        0.000000       -0.365980         3
        20        24        26        47     9      180.000000        0.127839         4
        21        20        19        41     9        0.000000       -0.007698         1
        21        20        19        41     9      180.000000       12.313553         2
        21        20        19        41     9        0.000000       -0.386049         3
        21        20        19        41     9      180.000000        0.160147         4
        21        20        24        25     9        0.000000       -0.042811         1
        21        20        24        25     9      180.000000       13.638542         2
        21        20        24        25     9        0.000000        0.086442         3
        21        20        24        25     9      180.000000       -0.494644         4
        21        20        24        26     9        0.000000        0.189767         1
        21        20        24        26     9      180.000000       13.774723         2
        21        20        24        26     9        0.000000       -0.069432         3
        21        20        24        26     9      180.000000       -0.358203         4
        22        21        20        24     9        0.000000       -1.961853         1
        22        21        20        24     9      180.000000        2.604937         2
        22        21        20        24     9        0.000000       -0.302870         3
        22        21        20        24     9      180.000000        0.033125         4
        22        21        23        42     9        0.000000        1.315705         1
        22        21        23        42     9      180.000000       11.185729         2
        22        21        23        42     9        0.000000       -0.065490         3
        22        21        23        42     9      180.000000       -0.825065         4
        22        21        23        43     9        0.000000        1.315705         1
        22        21        23        43     9      180.000000       11.185729         2
        22        21        23        43     9        0.000000       -0.065490         3
        22        21        23        43     9      180.000000       -0.825065         4
        23        21        20        24     9        0.000000        0.110398         1
        23        21        20        24     9      180.000000        2.046903         2
        23        21        20        24     9        0.000000       -0.366699         3
        23        21        20        24     9      180.000000       -0.114822         4
        24        20        19        41     9        0.000000        0.025700         1
        24        20        19        41     9      180.000000       14.265306         2
        24        20        19        41     9        0.000000       -0.724939         3
        24        20        19        41     9      180.000000        0.034227         4
        25        24        26        47     9        0.000000       -0.126619         1
        25        24        26        47     9      180.000000       13.606191         2
        25        24        26        47     9        0.000000       -0.383618         3
        25        24        26        47     9      180.000000        0.343606         4
        26        17        18        40     9        0.000000       -0.180531         1
        26        17        18        40     9      180.000000       13.879240         2
        26        17        18        40     9        0.000000       -0.583988         3
        26        17        18        40     9      180.000000        0.073605         4
        26        24        25        44     9        0.000000       -0.028701         1
        26        24        25        44     9      180.000000        0.035759         2
        26        24        25        44     9        0.000000       -0.025695         3
        26        24        25        44     9      180.000000        0.001882         4
        26        24        25        45     9        0.000000       -0.028701         1
        26        24        25        45     9      180.000000        0.035759         2
        26        24        25        45     9        0.000000       -0.025695         3
        26        24        25        45     9      180.000000        0.001882         4
        26        24        25        46     9        0.000000       -0.028701         1
        26        24        25        46     9      180.000000        0.035759         2
        26        24        25        46     9        0.000000       -0.025695         3
        26        24        25        46     9      180.000000        0.001882         4
        27         6         5        35     9        0.000000        0.074273         1
        27         6         5        35     9      180.000000       12.990241         2
        27         6         5        35     9        0.000000       -0.520768         3
        27         6         5        35     9      180.000000        0.132469         4
        27         6         7        36     9        0.000000        1.575093         1
        27         6         7        36     9      180.000000        3.198189         2
        27         6         7        36     9        0.000000        0.467524         3
        27         6         7        36     9      180.000000        0.863764         4
        27        28        29        30     9        0.000000        0.123069         1
        27        28        29        30     9      180.000000        4.737590         2
        27        28        29        30     9        0.000000       -0.815850         3
        27        28        29        30     9      180.000000        0.427563         4
        28         3         4        34     9        0.000000        0.222424         1
        28         3         4        34     9      180.000000       12.890975         2
        28         3         4        34     9        0.000000       -0.414499         3
        28         3         4        34     9      180.000000        0.189834         4
        28        29        30        49     9        0.000000       -0.006341         1
        28        29        30        49     9      180.000000       -0.005041         2
        28        29        30        49     9        0.000000        0.433370         3
        28        29        30        49     9      180.000000       -0.009039         4
        28        29        30        50     9        0.000000       -0.006341         1
        28        29        30        50     9      180.000000       -0.005041         2
        28        29        30        50     9        0.000000        0.433370         3
        28        29        30        50     9      180.000000       -0.009039         4
        28        29        30        51     9        0.000000       -0.006341         1
        28        29        30        51     9      180.000000       -0.005041         2
        28        29        30        51     9        0.000000        0.433370         3
        28        29        30        51     9      180.000000       -0.009039         4
        29        28        27        48     9        0.000000        0.102563         1
        29        28        27        48     9      180.000000       13.836839         2
        29        28        27        48     9        0.000000       -0.050823         3
        29        28        27        48     9      180.000000        0.307531         4
        34         4         5        35     9        0.000000       -0.192420         1
        34         4         5        35     9      180.000000       11.734676         2
        34         4         5        35     9        0.000000       -0.700233         3
        34         4         5        35     9      180.000000        0.222006         4
        38        13        14        39     9        0.000000       -0.357707         1
        38        13        14        39     9      180.000000        9.061502         2
        38        13        14        39     9        0.000000       -0.277918         3
        38        13        14        39     9      180.000000        0.193706         4
        40        18        19        41     9        0.000000       -0.239466         1
        40        18        19        41     9      180.000000       12.511974         2
        40        18        19        41     9        0.000000       -0.801976         3
        40        18        19        41     9      180.000000        0.401411         4

[ dihedrals ] ; impropers
;       ai        aj        ak        al funct           phase               k        pn
        21        20        22        23     4      180.000000       14.905614         2
        21        22        23        20     4      180.000000       14.905614         2
        21        23        20        22     4      180.000000       14.905614         2

[ pairs ]
;       ai        aj funct
         1         4     1
         1        28     1
         2         5     1
         2        27     1
         2        29     1
         2        34     1
         3         6     1
         3        30     1
         3        31     1
         3        32     1
         3        33     1
         3        35     1
         3        48     1
         4         7     1
         4        27     1
         4        29     1
         5         8     1
         5        28     1
         5        36     1
         5        48     1
         6         9     1
         6        16     1
         6        29     1
         6        34     1
         7        10     1
         7        12     1
         7        15     1
         7        28     1
         7        35     1
         7        48     1
         8        11     1
         8        13     1
         8        14     1
         8        17     1
         8        27     1
         9        12     1
         9        15     1
         9        18     1
         9        26     1
         9        36     1
         9        37     1
        10        13     1
        10        16     1
        10        19     1
        10        24     1
        10        40     1
        10        47     1
        11        14     1
        11        15     1
        11        18     1
        11        26     1
        11        38     1
        12        17     1
        12        39     1
        13        37     1
        15        38     1
        16        36     1
        16        37     1
        16        38     1
        16        39     1
        17        20     1
        17        25     1
        17        37     1
        17        41     1
        18        21     1
        18        24     1
        18        47     1
        19        22     1
        19        23     1
        19        25     1
        19        26     1
        20        40     1
        20        42     1
        20        43     1
        20        44     1
        20        45     1
        20        46     1
        20        47     1
        21        25     1
        21        26     1
        21        41     1
        22        24     1
        22        42     1
        22        43     1
        23        24     1
        24        41     1
        25        47     1
        26        40     1
        26        44     1
        26        45     1
        26        46     1
        27        30     1
        27        35     1
        27        36     1
        28        34     1
        28        49     1
        28        50     1
        28        51     1
        29        48     1
        34        35     1
        38        39     1
        40        41     1
