; ITP file created by ByteFF-ML, 2026-02-21 07:49:52.645261

[ atomtypes ]
;name           bonded.type        at.num        mass        charge   ptype           sigma         epsilon
 c0bf                                   6      0.0000       0.00000       A     3.39778e-01     4.49916e-01
 o1bf                                   8      0.0000       0.00000       A     3.15888e-01     3.04118e-01
 c2bf                                   6      0.0000       0.00000       A     3.31370e-01     4.14202e-01
 c3bf                                   6      0.0000       0.00000       A     3.31492e-01     4.12586e-01
 c4bf                                   6      0.0000       0.00000       A     3.31393e-01     4.12199e-01
 c5bf                                   6      0.0000       0.00000       A     3.31276e-01     4.11845e-01
 n6bf                                   7      0.0000       0.00000       A     3.27803e-01     6.49204e-01
 c7bf                                   6      0.0000       0.00000       A     3.31293e-01     4.14462e-01
 n8bf                                   7      0.0000       0.00000       A     3.38671e-01     3.94073e-01
 c9bf                                   6      0.0000       0.00000       A     3.31501e-01     4.11066e-01
 c10bf                                  6      0.0000       0.00000       A     3.31499e-01     4.12954e-01
 n11bf                                  7      0.0000       0.00000       A     3.20544e-01     8.50304e-01
 c12bf                                  6      0.0000       0.00000       A     3.31513e-01     4.11963e-01
 c13bf                                  6      0.0000       0.00000       A     3.31488e-01     4.12482e-01
 n14bf                                  7      0.0000       0.00000       A     3.38571e-01     3.94678e-01
 c15bf                                  6      0.0000       0.00000       A     3.31524e-01     4.13157e-01
 c16bf                                  6      0.0000       0.00000       A     3.31318e-01     4.13275e-01
 c17bf                                  6      0.0000       0.00000       A     3.31459e-01     4.13269e-01
 c18bf                                  6      0.0000       0.00000       A     3.31493e-01     4.13770e-01
 c19bf                                  6      0.0000       0.00000       A     3.31459e-01     4.13510e-01
 c20bf                                  6      0.0000       0.00000       A     3.31378e-01     4.12493e-01
 n21bf                                  7      0.0000       0.00000       A     3.38246e-01     3.92809e-01
 n22bf                                  7      0.0000       0.00000       A     3.20449e-01     8.56124e-01
 c23bf                                  6      0.0000       0.00000       A     3.31534e-01     4.12212e-01
 c24bf                                  6      0.0000       0.00000       A     3.31394e-01     4.12724e-01
 c25bf                                  6      0.0000       0.00000       A     3.31393e-01     4.12199e-01
 c26bf                                  6      0.0000       0.00000       A     3.31492e-01     4.12586e-01
 h27bf                                  1      0.0000       0.00000       A     2.42080e-01     8.75859e-02
 h28bf                                  1      0.0000       0.00000       A     2.42080e-01     8.75859e-02
 h29bf                                  1      0.0000       0.00000       A     2.42080e-01     8.75859e-02
 h30bf                                  1      0.0000       0.00000       A     2.62481e-01     6.70078e-02
 h31bf                                  1      0.0000       0.00000       A     2.62478e-01     6.76031e-02
 h32bf                                  1      0.0000       0.00000       A     1.10437e-01     4.36637e-02
 h33bf                                  1      0.0000       0.00000       A     2.53936e-01     6.71690e-02
 h34bf                                  1      0.0000       0.00000       A     2.54157e-01     6.73717e-02
 h35bf                                  1      0.0000       0.00000       A     2.53844e-01     6.71387e-02
 h36bf                                  1      0.0000       0.00000       A     2.62540e-01     6.75377e-02
 h37bf                                  1      0.0000       0.00000       A     2.62573e-01     6.68386e-02
 h38bf                                  1      0.0000       0.00000       A     2.53797e-01     6.68737e-02
 h39bf                                  1      0.0000       0.00000       A     1.10610e-01     4.13941e-02
 h40bf                                  1      0.0000       0.00000       A     2.62479e-01     6.75951e-02
 h41bf                                  1      0.0000       0.00000       A     2.62478e-01     6.76031e-02
 h42bf                                  1      0.0000       0.00000       A     2.62481e-01     6.70078e-02

[ moleculetype ]
;name             nrexcl
 CHEMBL3265029         3

[ atoms ]
;       nr            type      resi   res      atom      cgnr      charge          mass ; qtot
         1            c0bf         1   UNL        c0         1     0.14272       12.0110 ; qtot    0.143
         2            o1bf         1   UNL        o1         2    -0.34624       15.9990 ; qtot   -0.204
         3            c2bf         1   UNL        c2         3     0.11806       12.0110 ; qtot   -0.085
         4            c3bf         1   UNL        c3         4    -0.15156       12.0110 ; qtot   -0.237
         5            c4bf         1   UNL        c4         5    -0.10851       12.0110 ; qtot   -0.346
         6            c5bf         1   UNL        c5         6     0.26730       12.0110 ; qtot   -0.078
         7            n6bf         1   UNL        n6         7    -0.91149       14.0070 ; qtot   -0.990
         8            c7bf         1   UNL        c7         8     0.67832       12.0110 ; qtot   -0.311
         9            n8bf         1   UNL        n8         9    -0.75880       14.0070 ; qtot   -1.070
        10            c9bf         1   UNL        c9        10     0.39367       12.0110 ; qtot   -0.677
        11           c10bf         1   UNL       c10        11    -0.18305       12.0110 ; qtot   -0.860
        12           n11bf         1   UNL       n11        12     0.16185       14.0070 ; qtot   -0.698
        13           c12bf         1   UNL       c12        13    -0.26112       12.0110 ; qtot   -0.959
        14           c13bf         1   UNL       c13        14    -0.04248       12.0110 ; qtot   -1.001
        15           n14bf         1   UNL       n14        15    -0.27126       14.0070 ; qtot   -1.273
        16           c15bf         1   UNL       c15        16    -0.16948       12.0110 ; qtot   -1.442
        17           c16bf         1   UNL       c16        17    -0.09700       12.0110 ; qtot   -1.539
        18           c17bf         1   UNL       c17        18    -0.12311       12.0110 ; qtot   -1.662
        19           c18bf         1   UNL       c18        19    -0.03392       12.0110 ; qtot   -1.696
        20           c19bf         1   UNL       c19        20    -0.22776       12.0110 ; qtot   -1.924
        21           c20bf         1   UNL       c20        21     0.35866       12.0110 ; qtot   -1.565
        22           n21bf         1   UNL       n21        22    -0.50917       14.0070 ; qtot   -2.074
        23           n22bf         1   UNL       n22        23    -0.08410       14.0070 ; qtot   -2.158
        24           c23bf         1   UNL       c23        24    -0.02985       12.0110 ; qtot   -2.188
        25           c24bf         1   UNL       c24        25    -0.10271       12.0110 ; qtot   -2.291
        26           c25bf         1   UNL       c25        26    -0.10851       12.0110 ; qtot   -2.400
        27           c26bf         1   UNL       c26        27    -0.15156       12.0110 ; qtot   -2.551
        28           h27bf         1   UNL       h27        28     0.04277        1.0080 ; qtot   -2.508
        29           h28bf         1   UNL       h28        29     0.04277        1.0080 ; qtot   -2.466
        30           h29bf         1   UNL       h29        30     0.04277        1.0080 ; qtot   -2.423
        31           h30bf         1   UNL       h30        31     0.12377        1.0080 ; qtot   -2.299
        32           h31bf         1   UNL       h31        32     0.12789        1.0080 ; qtot   -2.171
        33           h32bf         1   UNL       h32        33     0.50487        1.0080 ; qtot   -1.666
        34           h33bf         1   UNL       h33        34     0.15334        1.0080 ; qtot   -1.513
        35           h34bf         1   UNL       h34        35     0.22767        1.0080 ; qtot   -1.285
        36           h35bf         1   UNL       h35        36     0.22246        1.0080 ; qtot   -1.063
        37           h36bf         1   UNL       h36        37     0.12542        1.0080 ; qtot   -0.937
        38           h37bf         1   UNL       h37        38     0.12504        1.0080 ; qtot   -0.812
        39           h38bf         1   UNL       h38        39     0.05082        1.0080 ; qtot   -0.762
        40           h39bf         1   UNL       h39        40     0.37661        1.0080 ; qtot   -0.385
        41           h40bf         1   UNL       h40        41     0.13324        1.0080 ; qtot   -0.252
        42           h41bf         1   UNL       h41        42     0.12789        1.0080 ; qtot   -0.124
        43           h42bf         1   UNL       h42        43     0.12377        1.0080 ; qtot   -0.000

[ bonds ]
;       ai        aj funct               r               k
         1         2     1        0.142441   208856.845093
         1        28     1        0.109438   297412.683691
         1        29     1        0.109438   297412.683691
         1        30     1        0.109438   297412.683691
         2         3     1        0.137015   267424.966895
         3         4     1        0.140243   287863.183789
         3        27     1        0.140243   287863.183789
         4         5     1        0.139618   325478.758545
         4        31     1        0.108444   322782.882520
         5         6     1        0.140372   286829.799121
         5        32     1        0.108463   322928.648340
         6         7     1        0.141180   251386.538574
         6        26     1        0.140372   286829.773584
         7         8     1        0.136705   312202.219678
         7        33     1        0.101301   413472.512598
         8         9     1        0.132061   353646.930762
         8        16     1        0.143870   235848.075781
         9        10     1        0.137731   242889.474023
        10        11     1        0.137592   344983.108887
        10        17     1        0.148350   208057.444189
        11        12     1        0.137846   276179.598730
        11        34     1        0.108178   332012.657812
        12        13     1        0.137750   263209.071045
        12        16     1        0.138998   204565.857373
        13        14     1        0.138746   337814.152783
        13        35     1        0.107915   345078.260156
        14        15     1        0.136744   275913.425439
        14        36     1        0.108260   332273.212939
        15        16     1        0.133378   321390.292871
        17        18     1        0.142433   254268.222607
        17        25     1        0.139561   307101.999268
        18        19     1        0.138513   345982.120605
        18        37     1        0.108464   321585.677295
        19        20     1        0.140977   299472.200488
        19        38     1        0.108610   319899.819482
        20        21     1        0.143230   248711.168848
        20        24     1        0.142098   249269.716504
        21        22     1        0.132469   384599.541699
        21        39     1        0.108275   331411.463184
        22        23     1        0.136225   242542.935449
        23        24     1        0.137146   283722.188281
        23        40     1        0.100944   434666.372559
        24        25     1        0.140152   304627.402295
        25        41     1        0.108507   321591.014551
        26        27     1        0.139618   325478.758545
        26        42     1        0.108463   322928.622803
        27        43     1        0.108444   322782.908057

[ angles ]
;       ai        aj        ak funct           theta             cth
         1         2         3     1      117.890480      564.265224
         2         1        28     1      109.552940      448.831711
         2         1        29     1      109.552940      448.831711
         2         1        30     1      109.552940      448.831711
         2         3         4     1      120.679688      573.431130
         2         3        27     1      120.679688      573.431130
         3         4         5     1      120.288551      736.381319
         3         4        31     1      120.186584      434.844111
         3        27        26     1      120.288551      736.381319
         3        27        43     1      120.186584      434.844111
         4         3        27     1      119.322586      535.418186
         4         5         6     1      120.673500      711.615430
         4         5        32     1      119.687576      399.877871
         5         4        31     1      119.524063      429.032535
         5         6         7     1      120.729248      558.792174
         5         6        26     1      118.668663      569.572473
         6         5        32     1      119.712425      432.810527
         6         7         8     1      130.822067      389.544247
         6         7        33     1      115.544067      444.963893
         6        26        27     1      120.673500      711.615430
         6        26        42     1      119.712425      432.810527
         7         6        26     1      120.729248      558.792174
         7         8         9     1      121.343933      603.141131
         7         8        16     1      116.160477      347.852905
         8         7        33     1      112.183823      485.604830
         8         9        10     1      119.793762      659.281466
         8        16        12     1      117.476013      691.884693
         8        16        15     1      131.168365      328.267219
         9         8        16     1      121.163086      641.590825
         9        10        11     1      121.966331      389.510187
         9        10        17     1      116.263992      505.959789
        10        11        12     1      118.184242      872.211990
        10        11        34     1      124.892982      345.345800
        10        17        18     1      119.968796      596.169245
        10        17        25     1      120.006363      462.288651
        11        10        17     1      121.468979      451.185722
        11        12        13     1      132.324738      451.412524
        11        12        16     1      121.398743      769.110508
        12        11        34     1      117.429405      489.573775
        12        13        14     1      105.222717      375.667031
        12        13        35     1      122.391075      461.871917
        12        16        15     1      111.412987      167.360000
        13        12        16     1      106.439148      167.360000
        13        14        15     1      111.710022      296.607652
        13        14        36     1      126.932030      353.254706
        14        13        35     1      132.665771      296.979121
        14        15        16     1      105.148094      501.387338
        15        14        36     1      121.224686      373.698758
        17        18        19     1      121.768967      637.524678
        17        18        37     1      118.821877      437.177245
        17        25        24     1      117.575485      752.943475
        17        25        41     1      120.740341      417.152991
        18        17        25     1      120.215416      565.096584
        18        19        20     1      118.718689      667.878789
        18        19        38     1      120.630470      435.954975
        19        18        37     1      119.666855      423.052606
        19        20        21     1      136.517990      472.986497
        19        20        24     1      119.114426      702.113072
        20        19        38     1      120.868912      437.569878
        20        21        22     1      111.479248      389.645023
        20        21        39     1      128.954620      353.879567
        20        24        23     1      105.629051      167.360000
        20        24        25     1      122.444931      646.521977
        21        20        24     1      104.386375      456.099828
        21        22        23     1      105.968910      513.160360
        22        21        39     1      119.559181      397.470551
        22        23        24     1      112.587357      425.755262
        22        23        40     1      118.749695      478.428710
        23        24        25     1      132.012634      439.872112
        24        23        40     1      128.703522      382.976294
        24        25        41     1      121.796425      432.612870
        26        27        43     1      119.524071      429.032535
        27        26        42     1      119.687576      399.877839
        28         1        29     1      109.477646      342.882171
        28         1        30     1      109.477646      342.882171
        29         1        30     1      109.477646      342.882171

[ dihedrals ] ; propers for gromacs 4.5 or higher, use funct 9
;       ai        aj        ak        al funct           phase               k        pn
         1         2         3         4     9        0.000000        0.158105         1
         1         2         3         4     9      180.000000        5.253970         2
         1         2         3         4     9        0.000000       -0.072496         3
         1         2         3         4     9      180.000000        0.691363         4
         1         2         3        27     9        0.000000        0.158106         1
         1         2         3        27     9      180.000000        5.253969         2
         1         2         3        27     9        0.000000       -0.072496         3
         1         2         3        27     9      180.000000        0.691363         4
         2         3         4         5     9        0.000000        0.503299         1
         2         3         4         5     9      180.000000       17.152456         2
         2         3         4         5     9        0.000000        0.313651         3
         2         3         4         5     9      180.000000       -0.269152         4
         2         3         4        31     9        0.000000        0.063989         1
         2         3         4        31     9      180.000000       12.849198         2
         2         3         4        31     9        0.000000       -0.115336         3
         2         3         4        31     9      180.000000        0.275976         4
         2         3        27        26     9        0.000000        0.503299         1
         2         3        27        26     9      180.000000       17.152456         2
         2         3        27        26     9        0.000000        0.313651         3
         2         3        27        26     9      180.000000       -0.269152         4
         2         3        27        43     9        0.000000        0.063989         1
         2         3        27        43     9      180.000000       12.849198         2
         2         3        27        43     9        0.000000       -0.115336         3
         2         3        27        43     9      180.000000        0.275976         4
         3         2         1        28     9        0.000000       -0.090080         1
         3         2         1        28     9      180.000000        0.026739         2
         3         2         1        28     9        0.000000        0.704412         3
         3         2         1        28     9      180.000000       -0.026119         4
         3         2         1        29     9        0.000000       -0.090080         1
         3         2         1        29     9      180.000000        0.026739         2
         3         2         1        29     9        0.000000        0.704412         3
         3         2         1        29     9      180.000000       -0.026119         4
         3         2         1        30     9        0.000000       -0.090080         1
         3         2         1        30     9      180.000000        0.026739         2
         3         2         1        30     9        0.000000        0.704412         3
         3         2         1        30     9      180.000000       -0.026119         4
         3         4         5         6     9        0.000000       -0.068082         1
         3         4         5         6     9      180.000000       18.397833         2
         3         4         5         6     9        0.000000       -1.564077         3
         3         4         5         6     9      180.000000       -0.492286         4
         3         4         5        32     9        0.000000        0.082583         1
         3         4         5        32     9      180.000000       14.661538         2
         3         4         5        32     9        0.000000       -0.424233         3
         3         4         5        32     9      180.000000        0.122885         4
         3        27        26         6     9        0.000000       -0.068081         1
         3        27        26         6     9      180.000000       18.397833         2
         3        27        26         6     9        0.000000       -1.564077         3
         3        27        26         6     9      180.000000       -0.492286         4
         3        27        26        42     9        0.000000        0.082583         1
         3        27        26        42     9      180.000000       14.661538         2
         3        27        26        42     9        0.000000       -0.424234         3
         3        27        26        42     9      180.000000        0.122886         4
         4         3        27        26     9        0.000000       -0.051274         1
         4         3        27        26     9      180.000000       15.985720         2
         4         3        27        26     9        0.000000       -1.056919         3
         4         3        27        26     9      180.000000       -0.258390         4
         4         3        27        43     9        0.000000        0.157365         1
         4         3        27        43     9      180.000000       12.560851         2
         4         3        27        43     9        0.000000       -0.501509         3
         4         3        27        43     9      180.000000        0.194383         4
         4         5         6         7     9        0.000000        0.121545         1
         4         5         6         7     9      180.000000       17.272082         2
         4         5         6         7     9        0.000000        0.091151         3
         4         5         6         7     9      180.000000       -0.272356         4
         4         5         6        26     9        0.000000        0.002440         1
         4         5         6        26     9      180.000000       16.735747         2
         4         5         6        26     9        0.000000       -1.239504         3
         4         5         6        26     9      180.000000       -0.185155         4
         5         4         3        27     9        0.000000       -0.051273         1
         5         4         3        27     9      180.000000       15.985720         2
         5         4         3        27     9        0.000000       -1.056919         3
         5         4         3        27     9      180.000000       -0.258390         4
         5         6         7         8     9        0.000000        0.276857         1
         5         6         7         8     9      180.000000        3.043530         2
         5         6         7         8     9        0.000000       -0.186444         3
         5         6         7         8     9      180.000000        0.435856         4
         5         6         7        33     9        0.000000        0.191429         1
         5         6         7        33     9      180.000000        3.081772         2
         5         6         7        33     9        0.000000        0.132957         3
         5         6         7        33     9      180.000000        0.844940         4
         5         6        26        27     9        0.000000        0.002440         1
         5         6        26        27     9      180.000000       16.735748         2
         5         6        26        27     9        0.000000       -1.239504         3
         5         6        26        27     9      180.000000       -0.185155         4
         5         6        26        42     9        0.000000        0.072969         1
         5         6        26        42     9      180.000000       12.610158         2
         5         6        26        42     9        0.000000       -0.516613         3
         5         6        26        42     9      180.000000        0.163994         4
         6         5         4        31     9        0.000000        0.097208         1
         6         5         4        31     9      180.000000       14.161838         2
         6         5         4        31     9        0.000000       -0.524188         3
         6         5         4        31     9      180.000000        0.104597         4
         6         7         8         9     9        0.000000       -0.206627         1
         6         7         8         9     9      180.000000        6.994899         2
         6         7         8         9     9        0.000000       -0.012351         3
         6         7         8         9     9      180.000000       -0.556996         4
         6         7         8        16     9        0.000000        2.455643         1
         6         7         8        16     9      180.000000        5.895073         2
         6         7         8        16     9        0.000000        0.369007         3
         6         7         8        16     9      180.000000       -0.355584         4
         6        26        27        43     9        0.000000        0.097209         1
         6        26        27        43     9      180.000000       14.161837         2
         6        26        27        43     9        0.000000       -0.524188         3
         6        26        27        43     9      180.000000        0.104598         4
         7         6         5        32     9        0.000000       -0.082967         1
         7         6         5        32     9      180.000000       14.286972         2
         7         6         5        32     9        0.000000       -0.038902         3
         7         6         5        32     9      180.000000        0.109628         4
         7         6        26        27     9        0.000000        0.121545         1
         7         6        26        27     9      180.000000       17.272078         2
         7         6        26        27     9        0.000000        0.091150         3
         7         6        26        27     9      180.000000       -0.272356         4
         7         6        26        42     9        0.000000       -0.082967         1
         7         6        26        42     9      180.000000       14.286970         2
         7         6        26        42     9        0.000000       -0.038901         3
         7         6        26        42     9      180.000000        0.109629         4
         7         8         9        10     9        0.000000        1.943371         1
         7         8         9        10     9      180.000000       24.477186         2
         7         8         9        10     9        0.000000        0.699624         3
         7         8         9        10     9      180.000000       -1.007331         4
         7         8        16        12     9        0.000000        0.517582         1
         7         8        16        12     9      180.000000       12.000454         2
         7         8        16        12     9        0.000000        0.165513         3
         7         8        16        12     9      180.000000       -0.596021         4
         7         8        16        15     9        0.000000       -0.373541         1
         7         8        16        15     9      180.000000       10.813194         2
         7         8        16        15     9        0.000000       -0.126761         3
         7         8        16        15     9      180.000000       -0.468506         4
         8         7         6        26     9        0.000000        0.276857         1
         8         7         6        26     9      180.000000        3.043530         2
         8         7         6        26     9        0.000000       -0.186444         3
         8         7         6        26     9      180.000000        0.435857         4
         8         9        10        11     9        0.000000        1.012028         1
         8         9        10        11     9      180.000000       13.620728         2
         8         9        10        11     9        0.000000       -0.226826         3
         8         9        10        11     9      180.000000       -0.061795         4
         8         9        10        17     9        0.000000        1.551272         1
         8         9        10        17     9      180.000000       18.137816         2
         8         9        10        17     9        0.000000        0.656586         3
         8         9        10        17     9      180.000000       -1.048878         4
         8        16        12        11     9        0.000000        0.337947         1
         8        16        12        11     9      180.000000        5.781634         2
         8        16        12        11     9        0.000000       -0.134535         3
         8        16        12        11     9      180.000000        0.122361         4
         8        16        12        13     9        0.000000       -0.529939         1
         8        16        12        13     9      180.000000        7.254573         2
         8        16        12        13     9        0.000000       -2.285934         3
         8        16        12        13     9      180.000000        0.374903         4
         8        16        15        14     9        0.000000        1.546001         1
         8        16        15        14     9      180.000000       16.470755         2
         8        16        15        14     9        0.000000       -0.373495         3
         8        16        15        14     9      180.000000        0.010417         4
         9         8         7        33     9        0.000000       11.436749         1
         9         8         7        33     9      180.000000        6.771777         2
         9         8         7        33     9        0.000000       -0.402793         3
         9         8         7        33     9      180.000000        0.118547         4
         9         8        16        12     9        0.000000       -0.070283         1
         9         8        16        12     9      180.000000        9.274434         2
         9         8        16        12     9        0.000000       -0.539211         3
         9         8        16        12     9      180.000000       -0.339003         4
         9         8        16        15     9        0.000000       -1.871942         1
         9         8        16        15     9      180.000000        6.551413         2
         9         8        16        15     9        0.000000       -0.111201         3
         9         8        16        15     9      180.000000       -0.440309         4
         9        10        11        12     9        0.000000       -0.615167         1
         9        10        11        12     9      180.000000       29.692546         2
         9        10        11        12     9        0.000000       -1.048838         3
         9        10        11        12     9      180.000000       -1.730461         4
         9        10        11        34     9        0.000000        0.287259         1
         9        10        11        34     9      180.000000       17.653570         2
         9        10        11        34     9        0.000000        0.213044         3
         9        10        11        34     9      180.000000       -0.531463         4
         9        10        17        18     9        0.000000       -0.478480         1
         9        10        17        18     9      180.000000        4.213459         2
         9        10        17        18     9        0.000000        0.158819         3
         9        10        17        18     9      180.000000        0.023849         4
         9        10        17        25     9        0.000000       -0.249697         1
         9        10        17        25     9      180.000000        4.070625         2
         9        10        17        25     9        0.000000       -0.122232         3
         9        10        17        25     9      180.000000        0.044803         4
        10         9         8        16     9        0.000000        0.893690         1
        10         9         8        16     9      180.000000       22.117335         2
        10         9         8        16     9        0.000000        0.584990         3
        10         9         8        16     9      180.000000       -0.568744         4
        10        11        12        13     9        0.000000        0.496724         1
        10        11        12        13     9      180.000000        4.951623         2
        10        11        12        13     9        0.000000        0.249348         3
        10        11        12        13     9      180.000000        0.108870         4
        10        11        12        16     9        0.000000       -0.634424         1
        10        11        12        16     9      180.000000        9.291540         2
        10        11        12        16     9        0.000000       -1.054575         3
        10        11        12        16     9      180.000000       -0.058807         4
        10        17        18        19     9        0.000000        0.236000         1
        10        17        18        19     9      180.000000       14.368995         2
        10        17        18        19     9        0.000000       -0.147065         3
        10        17        18        19     9      180.000000       -0.199062         4
        10        17        18        37     9        0.000000       -0.132256         1
        10        17        18        37     9      180.000000       12.075877         2
        10        17        18        37     9        0.000000       -0.206751         3
        10        17        18        37     9      180.000000        0.138572         4
        10        17        25        24     9        0.000000        0.253657         1
        10        17        25        24     9      180.000000       18.931391         2
        10        17        25        24     9        0.000000        0.007612         3
        10        17        25        24     9      180.000000       -0.761701         4
        10        17        25        41     9        0.000000       -0.016970         1
        10        17        25        41     9      180.000000       12.777234         2
        10        17        25        41     9        0.000000       -0.099454         3
        10        17        25        41     9      180.000000        0.149938         4
        11        10        17        18     9        0.000000       -0.325306         1
        11        10        17        18     9      180.000000        3.533701         2
        11        10        17        18     9        0.000000       -0.028931         3
        11        10        17        18     9      180.000000       -0.107973         4
        11        10        17        25     9        0.000000       -0.318428         1
        11        10        17        25     9      180.000000        3.394260         2
        11        10        17        25     9        0.000000        0.363761         3
        11        10        17        25     9      180.000000       -0.261941         4
        11        12        13        14     9        0.000000        0.967452         1
        11        12        13        14     9      180.000000        5.219958         2
        11        12        13        14     9        0.000000        0.738494         3
        11        12        13        14     9      180.000000       -0.038282         4
        11        12        13        35     9        0.000000        0.151014         1
        11        12        13        35     9      180.000000        3.680096         2
        11        12        13        35     9        0.000000        0.373012         3
        11        12        13        35     9      180.000000        0.067587         4
        11        12        16        15     9        0.000000        0.545807         1
        11        12        16        15     9      180.000000        7.748301         2
        11        12        16        15     9        0.000000       -0.729831         3
        11        12        16        15     9      180.000000        0.136710         4
        12        11        10        17     9        0.000000        0.167931         1
        12        11        10        17     9      180.000000       26.604066         2
        12        11        10        17     9        0.000000        0.428746         3
        12        11        10        17     9      180.000000       -1.876920         4
        12        13        14        15     9        0.000000       -0.258793         1
        12        13        14        15     9      180.000000       36.323027         2
        12        13        14        15     9        0.000000       -7.442937         3
        12        13        14        15     9      180.000000       -0.839992         4
        12        13        14        36     9        0.000000        0.279818         1
        12        13        14        36     9      180.000000       18.770131         2
        12        13        14        36     9        0.000000       -0.507968         3
        12        13        14        36     9      180.000000       -0.564047         4
        12        16        15        14     9        0.000000       -0.172777         1
        12        16        15        14     9      180.000000       37.627789         2
        12        16        15        14     9        0.000000       -7.120096         3
        12        16        15        14     9      180.000000        0.116816         4
        13        12        11        34     9        0.000000       -0.200405         1
        13        12        11        34     9      180.000000        3.566462         2
        13        12        11        34     9        0.000000        0.306552         3
        13        12        11        34     9      180.000000        0.065874         4
        13        12        16        15     9        0.000000        0.131710         1
        13        12        16        15     9      180.000000       15.566772         2
        13        12        16        15     9        0.000000       -7.866552         3
        13        12        16        15     9      180.000000        0.257373         4
        13        14        15        16     9        0.000000       -0.255849         1
        13        14        15        16     9      180.000000       31.025341         2
        13        14        15        16     9        0.000000       -4.653101         3
        13        14        15        16     9      180.000000        0.341646         4
        14        13        12        16     9        0.000000        0.086044         1
        14        13        12        16     9      180.000000       25.283693         2
        14        13        12        16     9        0.000000       -9.272059         3
        14        13        12        16     9      180.000000        0.296509         4
        15        14        13        35     9        0.000000        0.292780         1
        15        14        13        35     9      180.000000       15.681650         2
        15        14        13        35     9        0.000000       -0.422047         3
        15        14        13        35     9      180.000000       -0.479005         4
        16         8         7        33     9        0.000000        2.941475         1
        16         8         7        33     9      180.000000        7.228743         2
        16         8         7        33     9        0.000000       -0.167486         3
        16         8         7        33     9      180.000000        0.477374         4
        16        12        11        34     9        0.000000        0.590660         1
        16        12        11        34     9      180.000000        4.595215         2
        16        12        11        34     9        0.000000        0.398248         3
        16        12        11        34     9      180.000000        0.099105         4
        16        12        13        35     9        0.000000        1.026521         1
        16        12        13        35     9      180.000000        6.099844         2
        16        12        13        35     9        0.000000        0.349087         3
        16        12        13        35     9      180.000000        0.232410         4
        16        15        14        36     9        0.000000        2.009586         1
        16        15        14        36     9      180.000000       22.682232         2
        16        15        14        36     9        0.000000        0.566971         3
        16        15        14        36     9      180.000000       -0.265561         4
        17        10        11        34     9        0.000000       -0.096732         1
        17        10        11        34     9      180.000000       14.902793         2
        17        10        11        34     9        0.000000        0.326008         3
        17        10        11        34     9      180.000000       -0.006970         4
        17        18        19        20     9        0.000000       -0.107889         1
        17        18        19        20     9      180.000000       21.232215         2
        17        18        19        20     9        0.000000       -1.587275         3
        17        18        19        20     9      180.000000       -0.422021         4
        17        18        19        38     9        0.000000       -0.009248         1
        17        18        19        38     9      180.000000       15.753535         2
        17        18        19        38     9        0.000000       -0.469098         3
        17        18        19        38     9      180.000000        0.063646         4
        17        25        24        20     9        0.000000       -0.066774         1
        17        25        24        20     9      180.000000       16.902019         2
        17        25        24        20     9        0.000000       -1.560631         3
        17        25        24        20     9      180.000000       -0.377307         4
        17        25        24        23     9        0.000000        0.254192         1
        17        25        24        23     9      180.000000       14.622403         2
        17        25        24        23     9        0.000000       -0.237802         3
        17        25        24        23     9      180.000000       -0.298818         4
        18        17        25        24     9        0.000000       -0.244727         1
        18        17        25        24     9      180.000000       20.621677         2
        18        17        25        24     9        0.000000       -1.717587         3
        18        17        25        24     9      180.000000       -0.461429         4
        18        17        25        41     9        0.000000       -0.015047         1
        18        17        25        41     9      180.000000       14.201647         2
        18        17        25        41     9        0.000000       -0.489871         3
        18        17        25        41     9      180.000000        0.066589         4
        18        19        20        21     9        0.000000        0.139640         1
        18        19        20        21     9      180.000000       11.636698         2
        18        19        20        21     9        0.000000       -0.542128         3
        18        19        20        21     9      180.000000       -0.119475         4
        18        19        20        24     9        0.000000        0.040250         1
        18        19        20        24     9      180.000000       19.441381         2
        18        19        20        24     9        0.000000       -2.386377         3
        18        19        20        24     9      180.000000       -0.429819         4
        19        18        17        25     9        0.000000       -0.107119         1
        19        18        17        25     9      180.000000       16.592383         2
        19        18        17        25     9        0.000000       -1.318220         3
        19        18        17        25     9      180.000000       -0.279142         4
        19        20        21        22     9        0.000000       -0.220760         1
        19        20        21        22     9      180.000000        4.549868         2
        19        20        21        22     9        0.000000       -0.722273         3
        19        20        21        22     9      180.000000        0.079155         4
        19        20        21        39     9        0.000000       -0.517556         1
        19        20        21        39     9      180.000000        4.883030         2
        19        20        21        39     9        0.000000        0.082458         3
        19        20        21        39     9      180.000000        0.099245         4
        19        20        24        23     9        0.000000        0.408955         1
        19        20        24        23     9      180.000000        9.908660         2
        19        20        24        23     9        0.000000       -1.829778         3
        19        20        24        23     9      180.000000        0.066646         4
        19        20        24        25     9        0.000000       -0.240999         1
        19        20        24        25     9      180.000000        9.774335         2
        19        20        24        25     9        0.000000       -1.540979         3
        19        20        24        25     9      180.000000        0.061509         4
        20        19        18        37     9        0.000000        0.116069         1
        20        19        18        37     9      180.000000       16.925254         2
        20        19        18        37     9        0.000000       -0.405095         3
        20        19        18        37     9      180.000000       -0.044939         4
        20        21        22        23     9        0.000000       -0.284270         1
        20        21        22        23     9      180.000000       41.018080         2
        20        21        22        23     9        0.000000       -4.737092         3
        20        21        22        23     9      180.000000       -0.187157         4
        20        24        23        22     9        0.000000        0.553012         1
        20        24        23        22     9      180.000000       22.995906         2
        20        24        23        22     9        0.000000       -4.944660         3
        20        24        23        22     9      180.000000       -0.958832         4
        20        24        23        40     9        0.000000        0.214201         1
        20        24        23        40     9      180.000000        1.495356         2
        20        24        23        40     9        0.000000        0.443300         3
        20        24        23        40     9      180.000000        0.005189         4
        20        24        25        41     9        0.000000        0.144083         1
        20        24        25        41     9      180.000000       11.714342         2
        20        24        25        41     9        0.000000       -0.120434         3
        20        24        25        41     9      180.000000        0.033214         4
        21        20        19        38     9        0.000000        0.021693         1
        21        20        19        38     9      180.000000        9.433860         2
        21        20        19        38     9        0.000000        0.021702         3
        21        20        19        38     9      180.000000        0.039741         4
        21        20        24        23     9        0.000000        0.361317         1
        21        20        24        23     9      180.000000       16.000806         2
        21        20        24        23     9        0.000000       -5.553572         3
        21        20        24        23     9      180.000000       -0.093661         4
        21        20        24        25     9        0.000000       -0.036103         1
        21        20        24        25     9      180.000000        9.290578         2
        21        20        24        25     9        0.000000       -1.652287         3
        21        20        24        25     9      180.000000        0.165067         4
        21        22        23        24     9        0.000000       -0.046164         1
        21        22        23        24     9      180.000000       18.138354         2
        21        22        23        24     9        0.000000       -2.785128         3
        21        22        23        24     9      180.000000       -0.764410         4
        21        22        23        40     9        0.000000        1.177741         1
        21        22        23        40     9      180.000000        3.861927         2
        21        22        23        40     9        0.000000        0.442983         3
        21        22        23        40     9      180.000000        0.067653         4
        22        21        20        24     9        0.000000       -0.126812         1
        22        21        20        24     9      180.000000       30.398344         2
        22        21        20        24     9        0.000000       -9.789498         3
        22        21        20        24     9      180.000000       -0.317035         4
        22        23        24        25     9        0.000000        1.093301         1
        22        23        24        25     9      180.000000        4.724150         2
        22        23        24        25     9        0.000000        0.395240         3
        22        23        24        25     9      180.000000       -0.001503         4
        23        22        21        39     9        0.000000        1.701933         1
        23        22        21        39     9      180.000000       28.876374         2
        23        22        21        39     9        0.000000        0.495705         3
        23        22        21        39     9      180.000000       -0.175253         4
        23        24        25        41     9        0.000000       -0.014433         1
        23        24        25        41     9      180.000000       10.806740         2
        23        24        25        41     9        0.000000       -0.063952         3
        23        24        25        41     9      180.000000        0.069026         4
        24        20        19        38     9        0.000000        0.207944         1
        24        20        19        38     9      180.000000       14.058516         2
        24        20        19        38     9        0.000000       -0.421088         3
        24        20        19        38     9      180.000000       -0.172162         4
        24        20        21        39     9        0.000000        0.975082         1
        24        20        21        39     9      180.000000       13.204561         2
        24        20        21        39     9        0.000000        0.283179         3
        24        20        21        39     9      180.000000       -0.304877         4
        25        17        18        37     9        0.000000       -0.083817         1
        25        17        18        37     9      180.000000       12.802174         2
        25        17        18        37     9        0.000000       -0.655207         3
        25        17        18        37     9      180.000000        0.081735         4
        25        24        23        40     9        0.000000       -0.487769         1
        25        24        23        40     9      180.000000        1.252037         2
        25        24        23        40     9        0.000000       -0.071214         3
        25        24        23        40     9      180.000000       -0.079567         4
        26         6         5        32     9        0.000000        0.072969         1
        26         6         5        32     9      180.000000       12.610158         2
        26         6         5        32     9        0.000000       -0.516612         3
        26         6         5        32     9      180.000000        0.163994         4
        26         6         7        33     9        0.000000        0.191429         1
        26         6         7        33     9      180.000000        3.081771         2
        26         6         7        33     9        0.000000        0.132958         3
        26         6         7        33     9      180.000000        0.844940         4
        27         3         4        31     9        0.000000        0.157365         1
        27         3         4        31     9      180.000000       12.560851         2
        27         3         4        31     9        0.000000       -0.501509         3
        27         3         4        31     9      180.000000        0.194383         4
        31         4         5        32     9        0.000000       -0.167481         1
        31         4         5        32     9      180.000000       12.210580         2
        31         4         5        32     9        0.000000       -0.688832         3
        31         4         5        32     9      180.000000        0.301636         4
        35        13        14        36     9        0.000000       -0.357707         1
        35        13        14        36     9      180.000000        9.061504         2
        35        13        14        36     9        0.000000       -0.277917         3
        35        13        14        36     9      180.000000        0.193706         4
        37        18        19        38     9        0.000000       -0.091146         1
        37        18        19        38     9      180.000000       12.794649         2
        37        18        19        38     9        0.000000       -0.693019         3
        37        18        19        38     9      180.000000        0.301122         4
        42        26        27        43     9        0.000000       -0.167481         1
        42        26        27        43     9      180.000000       12.210581         2
        42        26        27        43     9        0.000000       -0.688832         3
        42        26        27        43     9      180.000000        0.301636         4

[ pairs ]
;       ai        aj funct
         1         4     1
         1        27     1
         2         5     1
         2        26     1
         2        31     1
         2        43     1
         3         6     1
         3        28     1
         3        29     1
         3        30     1
         3        32     1
         3        42     1
         4         7     1
         4        26     1
         4        43     1
         5         8     1
         5        27     1
         5        33     1
         5        42     1
         6         9     1
         6        16     1
         6        31     1
         6        43     1
         7        10     1
         7        12     1
         7        15     1
         7        27     1
         7        32     1
         7        42     1
         8        11     1
         8        13     1
         8        14     1
         8        17     1
         8        26     1
         9        12     1
         9        15     1
         9        18     1
         9        25     1
         9        33     1
         9        34     1
        10        13     1
        10        16     1
        10        19     1
        10        24     1
        10        37     1
        10        41     1
        11        14     1
        11        15     1
        11        18     1
        11        25     1
        11        35     1
        12        17     1
        12        36     1
        13        34     1
        15        35     1
        16        33     1
        16        34     1
        16        35     1
        16        36     1
        17        20     1
        17        23     1
        17        34     1
        17        38     1
        18        21     1
        18        24     1
        18        41     1
        19        22     1
        19        23     1
        19        25     1
        19        39     1
        20        37     1
        20        40     1
        20        41     1
        21        25     1
        21        38     1
        21        40     1
        22        25     1
        23        39     1
        23        41     1
        24        38     1
        24        39     1
        25        37     1
        25        40     1
        26        32     1
        26        33     1
        27        31     1
        31        32     1
        35        36     1
        37        38     1
        42        43     1
