; ITP file created by ByteFF-ML, 2026-02-21 07:49:47.147449

[ atomtypes ]
;name           bonded.type        at.num        mass        charge   ptype           sigma         epsilon
 c0bf                                   6      0.0000       0.00000       A     3.39799e-01     4.50095e-01
 o1bf                                   8      0.0000       0.00000       A     3.15802e-01     3.03422e-01
 c2bf                                   6      0.0000       0.00000       A     3.31494e-01     4.13273e-01
 c3bf                                   6      0.0000       0.00000       A     3.31460e-01     4.13344e-01
 c4bf                                   6      0.0000       0.00000       A     3.31371e-01     4.12570e-01
 c5bf                                   6      0.0000       0.00000       A     3.31310e-01     4.12073e-01
 n6bf                                   7      0.0000       0.00000       A     3.27838e-01     6.48901e-01
 c7bf                                   6      0.0000       0.00000       A     3.31293e-01     4.14462e-01
 n8bf                                   7      0.0000       0.00000       A     3.38671e-01     3.94073e-01
 c9bf                                   6      0.0000       0.00000       A     3.31512e-01     4.11272e-01
 c10bf                                  6      0.0000       0.00000       A     3.31499e-01     4.12954e-01
 n11bf                                  7      0.0000       0.00000       A     3.20544e-01     8.50304e-01
 c12bf                                  6      0.0000       0.00000       A     3.31513e-01     4.11963e-01
 c13bf                                  6      0.0000       0.00000       A     3.31488e-01     4.12482e-01
 n14bf                                  7      0.0000       0.00000       A     3.38571e-01     3.94678e-01
 c15bf                                  6      0.0000       0.00000       A     3.31524e-01     4.13157e-01
 c16bf                                  6      0.0000       0.00000       A     3.31412e-01     4.13050e-01
 c17bf                                  6      0.0000       0.00000       A     3.31477e-01     4.13506e-01
 c18bf                                  6      0.0000       0.00000       A     3.31489e-01     4.12720e-01
 c19bf                                  6      0.0000       0.00000       A     3.31565e-01     4.13114e-01
 c20bf                                  6      0.0000       0.00000       A     3.31384e-01     4.13382e-01
 c21bf                                  6      0.0000       0.00000       A     3.31421e-01     4.12910e-01
 n22bf                                  7      0.0000       0.00000       A     3.38413e-01     3.94987e-01
 n23bf                                  7      0.0000       0.00000       A     3.20564e-01     8.53149e-01
 c24bf                                  6      0.0000       0.00000       A     3.39827e-01     4.50277e-01
 c25bf                                  6      0.0000       0.00000       A     3.31397e-01     4.14009e-01
 c26bf                                  6      0.0000       0.00000       A     3.31426e-01     4.12512e-01
 c27bf                                  6      0.0000       0.00000       A     3.31334e-01     4.12096e-01
 o28bf                                  8      0.0000       0.00000       A     3.15839e-01     3.04251e-01
 c29bf                                  6      0.0000       0.00000       A     3.39799e-01     4.50095e-01
 h30bf                                  1      0.0000       0.00000       A     2.42080e-01     8.75859e-02
 h31bf                                  1      0.0000       0.00000       A     2.42080e-01     8.75859e-02
 h32bf                                  1      0.0000       0.00000       A     2.42080e-01     8.75859e-02
 h33bf                                  1      0.0000       0.00000       A     2.62545e-01     6.69663e-02
 h34bf                                  1      0.0000       0.00000       A     2.62478e-01     6.76031e-02
 h35bf                                  1      0.0000       0.00000       A     1.10437e-01     4.36637e-02
 h36bf                                  1      0.0000       0.00000       A     2.53936e-01     6.71690e-02
 h37bf                                  1      0.0000       0.00000       A     2.54157e-01     6.73717e-02
 h38bf                                  1      0.0000       0.00000       A     2.53844e-01     6.71387e-02
 h39bf                                  1      0.0000       0.00000       A     2.62533e-01     6.76079e-02
 h40bf                                  1      0.0000       0.00000       A     2.62500e-01     6.69471e-02
 h41bf                                  1      0.0000       0.00000       A     2.53922e-01     6.68561e-02
 h42bf                                  1      0.0000       0.00000       A     2.41917e-01     8.73385e-02
 h43bf                                  1      0.0000       0.00000       A     2.41917e-01     8.73385e-02
 h44bf                                  1      0.0000       0.00000       A     2.41917e-01     8.73385e-02
 h45bf                                  1      0.0000       0.00000       A     2.62343e-01     6.73062e-02
 h46bf                                  1      0.0000       0.00000       A     2.62385e-01     6.71291e-02
 h47bf                                  1      0.0000       0.00000       A     2.42080e-01     8.75859e-02
 h48bf                                  1      0.0000       0.00000       A     2.42080e-01     8.75859e-02
 h49bf                                  1      0.0000       0.00000       A     2.42080e-01     8.75859e-02

[ moleculetype ]
;name             nrexcl
 CHEMBL3265023         3

[ atoms ]
;       nr            type      resi   res      atom      cgnr      charge          mass ; qtot
         1            c0bf         1   UNL        c0         1     0.14145       12.0110 ; qtot    0.141
         2            o1bf         1   UNL        o1         2    -0.33647       15.9990 ; qtot   -0.195
         3            c2bf         1   UNL        c2         3     0.08002       12.0110 ; qtot   -0.115
         4            c3bf         1   UNL        c3         4    -0.13937       12.0110 ; qtot   -0.254
         5            c4bf         1   UNL        c4         5    -0.13475       12.0110 ; qtot   -0.389
         6            c5bf         1   UNL        c5         6     0.30239       12.0110 ; qtot   -0.087
         7            n6bf         1   UNL        n6         7    -0.91203       14.0070 ; qtot   -0.999
         8            c7bf         1   UNL        c7         8     0.67837       12.0110 ; qtot   -0.320
         9            n8bf         1   UNL        n8         9    -0.75870       14.0070 ; qtot   -1.079
        10            c9bf         1   UNL        c9        10     0.39503       12.0110 ; qtot   -0.684
        11           c10bf         1   UNL       c10        11    -0.18419       12.0110 ; qtot   -0.868
        12           n11bf         1   UNL       n11        12     0.16185       14.0070 ; qtot   -0.706
        13           c12bf         1   UNL       c12        13    -0.26112       12.0110 ; qtot   -0.968
        14           c13bf         1   UNL       c13        14    -0.04248       12.0110 ; qtot   -1.010
        15           n14bf         1   UNL       n14        15    -0.27126       14.0070 ; qtot   -1.281
        16           c15bf         1   UNL       c15        16    -0.16948       12.0110 ; qtot   -1.451
        17           c16bf         1   UNL       c16        17    -0.16477       12.0110 ; qtot   -1.616
        18           c17bf         1   UNL       c17        18    -0.04816       12.0110 ; qtot   -1.664
        19           c18bf         1   UNL       c18        19    -0.14412       12.0110 ; qtot   -1.808
        20           c19bf         1   UNL       c19        20    -0.01599       12.0110 ; qtot   -1.824
        21           c20bf         1   UNL       c20        21    -0.24321       12.0110 ; qtot   -2.067
        22           c21bf         1   UNL       c21        22     0.36498       12.0110 ; qtot   -1.702
        23           n22bf         1   UNL       n22        23    -0.51383       14.0070 ; qtot   -2.216
        24           n23bf         1   UNL       n23        24     0.05470       14.0070 ; qtot   -2.161
        25           c24bf         1   UNL       c24        25     0.07853       12.0110 ; qtot   -2.083
        26           c25bf         1   UNL       c25        26    -0.00243       12.0110 ; qtot   -2.085
        27           c26bf         1   UNL       c26        27    -0.18949       12.0110 ; qtot   -2.275
        28           c27bf         1   UNL       c27        28     0.11411       12.0110 ; qtot   -2.160
        29           o28bf         1   UNL       o28        29    -0.33842       15.9990 ; qtot   -2.499
        30           c29bf         1   UNL       c29        30     0.14175       12.0110 ; qtot   -2.357
        31           h30bf         1   UNL       h30        31     0.04404        1.0080 ; qtot   -2.313
        32           h31bf         1   UNL       h31        32     0.04404        1.0080 ; qtot   -2.269
        33           h32bf         1   UNL       h32        33     0.04404        1.0080 ; qtot   -2.225
        34           h33bf         1   UNL       h33        34     0.12393        1.0080 ; qtot   -2.101
        35           h34bf         1   UNL       h34        35     0.13132        1.0080 ; qtot   -1.970
        36           h35bf         1   UNL       h35        36     0.50588        1.0080 ; qtot   -1.464
        37           h36bf         1   UNL       h36        37     0.15334        1.0080 ; qtot   -1.311
        38           h37bf         1   UNL       h37        38     0.22767        1.0080 ; qtot   -1.083
        39           h38bf         1   UNL       h38        39     0.22246        1.0080 ; qtot   -0.860
        40           h39bf         1   UNL       h39        40     0.12340        1.0080 ; qtot   -0.737
        41           h40bf         1   UNL       h40        41     0.12445        1.0080 ; qtot   -0.613
        42           h41bf         1   UNL       h41        42     0.04911        1.0080 ; qtot   -0.563
        43           h42bf         1   UNL       h42        43     0.05599        1.0080 ; qtot   -0.507
        44           h43bf         1   UNL       h43        44     0.05599        1.0080 ; qtot   -0.451
        45           h44bf         1   UNL       h44        45     0.05599        1.0080 ; qtot   -0.395
        46           h45bf         1   UNL       h45        46     0.13122        1.0080 ; qtot   -0.264
        47           h46bf         1   UNL       h46        47     0.13212        1.0080 ; qtot   -0.132
        48           h47bf         1   UNL       h47        48     0.04404        1.0080 ; qtot   -0.088
        49           h48bf         1   UNL       h48        49     0.04404        1.0080 ; qtot   -0.044
        50           h49bf         1   UNL       h49        50     0.04402        1.0080 ; qtot   -0.000

[ bonds ]
;       ai        aj funct               r               k
         1         2     1        0.142750   205228.507056
         1        31     1        0.109386   299034.366748
         1        32     1        0.109386   299034.366748
         1        33     1        0.109386   299034.366748
         2         3     1        0.137015   270782.100830
         3         4     1        0.139488   304008.331689
         3        28     1        0.141529   250914.434033
         4         5     1        0.140005   315466.551758
         4        34     1        0.108446   322299.133057
         5         6     1        0.140061   293503.054395
         5        35     1        0.108414   324178.051416
         6         7     1        0.141092   252182.734570
         6        27     1        0.140674   282765.542627
         7         8     1        0.136729   311607.817920
         7        36     1        0.101302   413497.768799
         8         9     1        0.132061   353646.930762
         8        16     1        0.143870   235848.075781
         9        10     1        0.137728   242909.341895
        10        11     1        0.137604   344548.237451
        10        17     1        0.148270   208345.451709
        11        12     1        0.137846   276179.598730
        11        37     1        0.108178   332012.657812
        12        13     1        0.137750   263209.071045
        12        16     1        0.138998   204565.857373
        13        14     1        0.138746   337814.101709
        13        38     1        0.107915   345078.311230
        14        15     1        0.136744   275913.399902
        14        39     1        0.108260   332273.212939
        15        16     1        0.133378   321390.292871
        17        18     1        0.142369   256209.272754
        17        26     1        0.139609   303514.086475
        18        19     1        0.138614   348311.615723
        18        40     1        0.108479   321417.643115
        19        20     1        0.140717   298113.447510
        19        41     1        0.108543   320842.828320
        20        21     1        0.142125   249220.480957
        20        24     1        0.136834   279917.286670
        21        22     1        0.143104   251554.777051
        21        26     1        0.140379   308263.861133
        22        23     1        0.132582   380540.928906
        22        42     1        0.108262   331512.385840
        23        24     1        0.136411   226978.246045
        24        25     1        0.144916   228881.271436
        25        43     1        0.109267   303150.591260
        25        44     1        0.109267   303150.591260
        25        45     1        0.109267   303150.591260
        26        46     1        0.108539   321251.575293
        27        28     1        0.139409   309212.462598
        27        47     1        0.108244   326136.952002
        28        29     1        0.136800   272579.862256
        29        30     1        0.142754   205101.357788
        30        48     1        0.109386   299034.341211
        30        49     1        0.109386   299034.341211
        30        50     1        0.109386   299034.341211

[ angles ]
;       ai        aj        ak funct           theta             cth
         1         2         3     1      117.082443      547.136590
         2         1        31     1      109.406631      448.806110
         2         1        32     1      109.406631      448.806110
         2         1        33     1      109.406631      448.806110
         2         3         4     1      124.061974      526.185244
         2         3        28     1      116.730186      403.093057
         3         4         5     1      121.105545      730.301061
         3         4        34     1      119.820435      430.270000
         3        28        27     1      119.959702      641.355245
         3        28        29     1      116.770729      382.344602
         4         3        28     1      118.961632      615.309053
         4         5         6     1      119.989258      692.295585
         4         5        35     1      119.981018      402.478985
         5         4        34     1      119.168861      430.731806
         5         6         7     1      121.161964      571.797075
         5         6        27     1      119.274185      562.540766
         6         5        35     1      119.993568      438.163871
         6         7         8     1      130.908600      390.906748
         6         7        36     1      115.466995      445.927919
         6        27        28     1      120.440468      771.725955
         6        27        47     1      119.557449      428.763885
         7         6        27     1      119.328491      531.273672
         7         8         9     1      121.347000      603.746488
         7         8        16     1      116.105576      347.689596
         8         7        36     1      112.198647      485.186500
         8         9        10     1      119.805153      661.757097
         8        16        12     1      117.476013      691.884693
         8        16        15     1      131.168365      328.267219
         9         8        16     1      121.163086      641.590825
         9        10        11     1      121.924477      392.157013
         9        10        17     1      116.353210      506.271853
        10        11        12     1      118.196617      872.300859
        10        11        37     1      124.885536      345.298492
        10        17        18     1      120.075195      592.295457
        10        17        26     1      120.471680      485.695135
        11        10        17     1      121.546158      449.631629
        11        12        13     1      132.324738      451.412524
        11        12        16     1      121.398743      769.110508
        12        11        37     1      117.429405      489.573775
        12        13        14     1      105.222717      375.667031
        12        13        38     1      122.391075      461.871917
        12        16        15     1      111.412987      167.360000
        13        12        16     1      106.439148      167.360000
        13        14        15     1      111.710022      296.607652
        13        14        39     1      126.932030      353.254706
        14        13        38     1      132.665771      296.979153
        14        15        16     1      105.148094      501.387338
        15        14        39     1      121.224686      373.698758
        17        18        19     1      122.317894      619.083566
        17        18        40     1      118.795303      432.056640
        17        26        21     1      118.955833      683.505712
        17        26        46     1      120.339539      415.936212
        18        17        26     1      119.762650      573.896672
        18        19        20     1      117.189293      754.240185
        18        19        41     1      120.911781      439.357891
        19        18        40     1      119.112671      412.777143
        19        20        21     1      121.632484      598.056757
        19        20        24     1      131.921951      458.448253
        20        19        41     1      121.988876      436.490807
        20        21        22     1      104.215332      390.677329
        20        21        26     1      119.808739      749.805602
        20        24        23     1      111.604980      450.028316
        20        24        25     1      127.822105      471.483925
        21        20        24     1      106.478722      167.360000
        21        22        23     1      111.195206      366.042988
        21        22        42     1      129.115570      355.850490
        21        26        46     1      120.926437      420.948667
        22        21        26     1      136.127045      440.965292
        22        23        24     1      106.563004      507.877243
        23        22        42     1      119.586075      397.480160
        23        24        25     1      120.299301      539.922357
        24        25        43     1      109.812828      469.144215
        24        25        44     1      109.812828      469.144215
        24        25        45     1      109.812828      469.144215
        27        28        29     1      123.114540      463.233875
        28        27        47     1      120.054489      415.811750
        28        29        30     1      117.278854      548.766496
        29        30        48     1      109.407082      448.359562
        29        30        49     1      109.407082      448.359562
        29        30        50     1      109.407082      448.359562
        31         1        32     1      109.654236      343.283135
        31         1        33     1      109.654236      343.283135
        32         1        33     1      109.654236      343.283135
        43        25        44     1      109.288673      350.199574
        43        25        45     1      109.288673      350.199574
        44        25        45     1      109.288673      350.199574
        48        30        49     1      109.654236      343.283167
        48        30        50     1      109.654236      343.283167
        49        30        50     1      109.654236      343.283167

[ dihedrals ] ; propers for gromacs 4.5 or higher, use funct 9
;       ai        aj        ak        al funct           phase               k        pn
         1         2         3         4     9        0.000000       -0.020471         1
         1         2         3         4     9      180.000000        4.264586         2
         1         2         3         4     9        0.000000       -0.661221         3
         1         2         3         4     9      180.000000        0.423658         4
         1         2         3        28     9        0.000000        0.687110         1
         1         2         3        28     9      180.000000        3.031873         2
         1         2         3        28     9        0.000000        1.138396         3
         1         2         3        28     9      180.000000        0.057396         4
         2         3         4         5     9        0.000000        0.412383         1
         2         3         4         5     9      180.000000       18.405153         2
         2         3         4         5     9        0.000000        0.286762         3
         2         3         4         5     9      180.000000       -0.248269         4
         2         3         4        34     9        0.000000        0.002515         1
         2         3         4        34     9      180.000000       13.550908         2
         2         3         4        34     9        0.000000       -0.035816         3
         2         3         4        34     9      180.000000        0.307724         4
         2         3        28        27     9        0.000000        0.190228         1
         2         3        28        27     9      180.000000       12.913656         2
         2         3        28        27     9        0.000000       -0.036672         3
         2         3        28        27     9      180.000000        0.087435         4
         2         3        28        29     9        0.000000       -0.231151         1
         2         3        28        29     9      180.000000       16.200532         2
         2         3        28        29     9        0.000000       -0.225092         3
         2         3        28        29     9      180.000000       -0.129585         4
         3         2         1        31     9        0.000000       -0.002785         1
         3         2         1        31     9      180.000000       -0.013204         2
         3         2         1        31     9        0.000000        0.475747         3
         3         2         1        31     9      180.000000       -0.002909         4
         3         2         1        32     9        0.000000       -0.002785         1
         3         2         1        32     9      180.000000       -0.013204         2
         3         2         1        32     9        0.000000        0.475747         3
         3         2         1        32     9      180.000000       -0.002909         4
         3         2         1        33     9        0.000000       -0.002785         1
         3         2         1        33     9      180.000000       -0.013204         2
         3         2         1        33     9        0.000000        0.475747         3
         3         2         1        33     9      180.000000       -0.002909         4
         3         4         5         6     9        0.000000       -0.173495         1
         3         4         5         6     9      180.000000       17.663552         2
         3         4         5         6     9        0.000000       -1.660356         3
         3         4         5         6     9      180.000000       -0.412935         4
         3         4         5        35     9        0.000000        0.149237         1
         3         4         5        35     9      180.000000       14.141559         2
         3         4         5        35     9        0.000000       -0.494779         3
         3         4         5        35     9      180.000000        0.094379         4
         3        28        27         6     9        0.000000       -0.132619         1
         3        28        27         6     9      180.000000       16.584041         2
         3        28        27         6     9        0.000000       -1.316973         3
         3        28        27         6     9      180.000000       -0.328534         4
         3        28        27        47     9        0.000000        0.166400         1
         3        28        27        47     9      180.000000       12.784533         2
         3        28        27        47     9        0.000000       -0.336161         3
         3        28        27        47     9      180.000000        0.291888         4
         3        28        29        30     9        0.000000        0.802291         1
         3        28        29        30     9      180.000000        3.527079         2
         3        28        29        30     9        0.000000        1.195050         3
         3        28        29        30     9      180.000000        0.043134         4
         4         3        28        27     9        0.000000        0.246300         1
         4         3        28        27     9      180.000000       12.038167         2
         4         3        28        27     9        0.000000       -0.447743         3
         4         3        28        27     9      180.000000       -0.093295         4
         4         3        28        29     9        0.000000        0.312921         1
         4         3        28        29     9      180.000000       12.963699         2
         4         3        28        29     9        0.000000       -0.020336         3
         4         3        28        29     9      180.000000        0.087697         4
         4         5         6         7     9        0.000000        0.132129         1
         4         5         6         7     9      180.000000       17.832522         2
         4         5         6         7     9        0.000000        0.097463         3
         4         5         6         7     9      180.000000       -0.336845         4
         4         5         6        27     9        0.000000       -0.023969         1
         4         5         6        27     9      180.000000       17.298060         2
         4         5         6        27     9        0.000000       -1.297561         3
         4         5         6        27     9      180.000000       -0.244555         4
         5         4         3        28     9        0.000000        0.101367         1
         5         4         3        28     9      180.000000       16.812105         2
         5         4         3        28     9        0.000000       -1.160185         3
         5         4         3        28     9      180.000000       -0.311315         4
         5         6         7         8     9        0.000000        0.443064         1
         5         6         7         8     9      180.000000        3.120267         2
         5         6         7         8     9        0.000000       -0.198859         3
         5         6         7         8     9      180.000000        0.465134         4
         5         6         7        36     9        0.000000       -0.086586         1
         5         6         7        36     9      180.000000        3.309236         2
         5         6         7        36     9        0.000000        0.058468         3
         5         6         7        36     9      180.000000        0.892657         4
         5         6        27        28     9        0.000000        0.041058         1
         5         6        27        28     9      180.000000       15.861907         2
         5         6        27        28     9        0.000000       -1.469751         3
         5         6        27        28     9      180.000000       -0.131811         4
         5         6        27        47     9        0.000000        0.034995         1
         5         6        27        47     9      180.000000       12.257033         2
         5         6        27        47     9        0.000000       -0.533827         3
         5         6        27        47     9      180.000000        0.241321         4
         6         5         4        34     9        0.000000        0.111932         1
         6         5         4        34     9      180.000000       13.581334         2
         6         5         4        34     9        0.000000       -0.541303         3
         6         5         4        34     9      180.000000        0.103444         4
         6         7         8         9     9        0.000000       -0.174988         1
         6         7         8         9     9      180.000000        7.082817         2
         6         7         8         9     9        0.000000        0.006154         3
         6         7         8         9     9      180.000000       -0.539313         4
         6         7         8        16     9        0.000000        2.326493         1
         6         7         8        16     9      180.000000        5.951173         2
         6         7         8        16     9        0.000000        0.374079         3
         6         7         8        16     9      180.000000       -0.366443         4
         6        27        28        29     9        0.000000        0.361152         1
         6        27        28        29     9      180.000000       18.377753         2
         6        27        28        29     9        0.000000        0.246867         3
         6        27        28        29     9      180.000000       -0.381467         4
         7         6         5        35     9        0.000000       -0.024104         1
         7         6         5        35     9      180.000000       14.277814         2
         7         6         5        35     9        0.000000       -0.040262         3
         7         6         5        35     9      180.000000        0.129898         4
         7         6        27        28     9        0.000000       -0.012406         1
         7         6        27        28     9      180.000000       16.138685         2
         7         6        27        28     9        0.000000       -0.036311         3
         7         6        27        28     9      180.000000       -0.361374         4
         7         6        27        47     9        0.000000       -0.145209         1
         7         6        27        47     9      180.000000       13.428408         2
         7         6        27        47     9        0.000000       -0.139710         3
         7         6        27        47     9      180.000000        0.230595         4
         7         8         9        10     9        0.000000        1.956787         1
         7         8         9        10     9      180.000000       24.452800         2
         7         8         9        10     9        0.000000        0.672699         3
         7         8         9        10     9      180.000000       -0.997835         4
         7         8        16        12     9        0.000000        0.532707         1
         7         8        16        12     9      180.000000       12.023478         2
         7         8        16        12     9        0.000000        0.177021         3
         7         8        16        12     9      180.000000       -0.593144         4
         7         8        16        15     9        0.000000       -0.356301         1
         7         8        16        15     9      180.000000       10.853867         2
         7         8        16        15     9        0.000000       -0.107328         3
         7         8        16        15     9      180.000000       -0.464327         4
         8         7         6        27     9        0.000000       -0.444928         1
         8         7         6        27     9      180.000000        3.391439         2
         8         7         6        27     9        0.000000       -0.254058         3
         8         7         6        27     9      180.000000        0.430933         4
         8         9        10        11     9        0.000000        0.993460         1
         8         9        10        11     9      180.000000       13.511696         2
         8         9        10        11     9        0.000000       -0.223654         3
         8         9        10        11     9      180.000000       -0.053907         4
         8         9        10        17     9        0.000000        1.470558         1
         8         9        10        17     9      180.000000       18.267476         2
         8         9        10        17     9        0.000000        0.624722         3
         8         9        10        17     9      180.000000       -1.043265         4
         8        16        12        11     9        0.000000        0.337947         1
         8        16        12        11     9      180.000000        5.781634         2
         8        16        12        11     9        0.000000       -0.134535         3
         8        16        12        11     9      180.000000        0.122361         4
         8        16        12        13     9        0.000000       -0.529939         1
         8        16        12        13     9      180.000000        7.254573         2
         8        16        12        13     9        0.000000       -2.285934         3
         8        16        12        13     9      180.000000        0.374903         4
         8        16        15        14     9        0.000000        1.546001         1
         8        16        15        14     9      180.000000       16.470755         2
         8        16        15        14     9        0.000000       -0.373495         3
         8        16        15        14     9      180.000000        0.010417         4
         9         8         7        36     9        0.000000       11.460094         1
         9         8         7        36     9      180.000000        6.771968         2
         9         8         7        36     9        0.000000       -0.389214         3
         9         8         7        36     9      180.000000        0.126291         4
         9         8        16        12     9        0.000000       -0.070283         1
         9         8        16        12     9      180.000000        9.274434         2
         9         8        16        12     9        0.000000       -0.539211         3
         9         8        16        12     9      180.000000       -0.339003         4
         9         8        16        15     9        0.000000       -1.871942         1
         9         8        16        15     9      180.000000        6.551413         2
         9         8        16        15     9        0.000000       -0.111201         3
         9         8        16        15     9      180.000000       -0.440309         4
         9        10        11        12     9        0.000000       -0.612634         1
         9        10        11        12     9      180.000000       29.654565         2
         9        10        11        12     9        0.000000       -1.033565         3
         9        10        11        12     9      180.000000       -1.732734         4
         9        10        11        37     9        0.000000        0.279697         1
         9        10        11        37     9      180.000000       17.645061         2
         9        10        11        37     9        0.000000        0.218784         3
         9        10        11        37     9      180.000000       -0.534016         4
         9        10        17        18     9        0.000000       -0.581432         1
         9        10        17        18     9      180.000000        4.213768         2
         9        10        17        18     9        0.000000        0.135889         3
         9        10        17        18     9      180.000000        0.019703         4
         9        10        17        26     9        0.000000        0.119576         1
         9        10        17        26     9      180.000000        3.964425         2
         9        10        17        26     9        0.000000       -0.001369         3
         9        10        17        26     9      180.000000        0.020140         4
        10         9         8        16     9        0.000000        0.851968         1
        10         9         8        16     9      180.000000       22.135475         2
        10         9         8        16     9        0.000000        0.538498         3
        10         9         8        16     9      180.000000       -0.571366         4
        10        11        12        13     9        0.000000        0.453913         1
        10        11        12        13     9      180.000000        4.925924         2
        10        11        12        13     9        0.000000        0.248408         3
        10        11        12        13     9      180.000000        0.108047         4
        10        11        12        16     9        0.000000       -0.681543         1
        10        11        12        16     9      180.000000        9.270096         2
        10        11        12        16     9        0.000000       -1.041684         3
        10        11        12        16     9      180.000000       -0.058728         4
        10        17        18        19     9        0.000000        0.184614         1
        10        17        18        19     9      180.000000       14.342548         2
        10        17        18        19     9        0.000000       -0.200857         3
        10        17        18        19     9      180.000000       -0.173451         4
        10        17        18        40     9        0.000000       -0.082968         1
        10        17        18        40     9      180.000000       12.062405         2
        10        17        18        40     9        0.000000       -0.155322         3
        10        17        18        40     9      180.000000        0.162754         4
        10        17        26        21     9        0.000000        0.254612         1
        10        17        26        21     9      180.000000       18.475235         2
        10        17        26        21     9        0.000000       -0.013034         3
        10        17        26        21     9      180.000000       -0.679489         4
        10        17        26        46     9        0.000000       -0.003452         1
        10        17        26        46     9      180.000000       12.954260         2
        10        17        26        46     9        0.000000       -0.102072         3
        10        17        26        46     9      180.000000        0.128185         4
        11        10        17        18     9        0.000000       -0.244399         1
        11        10        17        18     9      180.000000        3.621026         2
        11        10        17        18     9        0.000000        0.006138         3
        11        10        17        18     9      180.000000       -0.132768         4
        11        10        17        26     9        0.000000       -0.425566         1
        11        10        17        26     9      180.000000        3.403128         2
        11        10        17        26     9        0.000000        0.322435         3
        11        10        17        26     9      180.000000       -0.250488         4
        11        12        13        14     9        0.000000        0.967452         1
        11        12        13        14     9      180.000000        5.219958         2
        11        12        13        14     9        0.000000        0.738494         3
        11        12        13        14     9      180.000000       -0.038282         4
        11        12        13        38     9        0.000000        0.151014         1
        11        12        13        38     9      180.000000        3.680098         2
        11        12        13        38     9        0.000000        0.373012         3
        11        12        13        38     9      180.000000        0.067587         4
        11        12        16        15     9        0.000000        0.545807         1
        11        12        16        15     9      180.000000        7.748301         2
        11        12        16        15     9        0.000000       -0.729831         3
        11        12        16        15     9      180.000000        0.136710         4
        12        11        10        17     9        0.000000        0.187869         1
        12        11        10        17     9      180.000000       26.684446         2
        12        11        10        17     9        0.000000        0.379037         3
        12        11        10        17     9      180.000000       -1.887373         4
        12        13        14        15     9        0.000000       -0.258793         1
        12        13        14        15     9      180.000000       36.323027         2
        12        13        14        15     9        0.000000       -7.442937         3
        12        13        14        15     9      180.000000       -0.839992         4
        12        13        14        39     9        0.000000        0.279818         1
        12        13        14        39     9      180.000000       18.770131         2
        12        13        14        39     9        0.000000       -0.507968         3
        12        13        14        39     9      180.000000       -0.564047         4
        12        16        15        14     9        0.000000       -0.172777         1
        12        16        15        14     9      180.000000       37.627789         2
        12        16        15        14     9        0.000000       -7.120096         3
        12        16        15        14     9      180.000000        0.116816         4
        13        12        11        37     9        0.000000       -0.200404         1
        13        12        11        37     9      180.000000        3.566462         2
        13        12        11        37     9        0.000000        0.306552         3
        13        12        11        37     9      180.000000        0.065875         4
        13        12        16        15     9        0.000000        0.131710         1
        13        12        16        15     9      180.000000       15.566772         2
        13        12        16        15     9        0.000000       -7.866552         3
        13        12        16        15     9      180.000000        0.257373         4
        13        14        15        16     9        0.000000       -0.255849         1
        13        14        15        16     9      180.000000       31.025341         2
        13        14        15        16     9        0.000000       -4.653101         3
        13        14        15        16     9      180.000000        0.341646         4
        14        13        12        16     9        0.000000        0.086044         1
        14        13        12        16     9      180.000000       25.283693         2
        14        13        12        16     9        0.000000       -9.272059         3
        14        13        12        16     9      180.000000        0.296509         4
        15        14        13        38     9        0.000000        0.292780         1
        15        14        13        38     9      180.000000       15.681647         2
        15        14        13        38     9        0.000000       -0.422048         3
        15        14        13        38     9      180.000000       -0.479005         4
        16         8         7        36     9        0.000000        3.047131         1
        16         8         7        36     9      180.000000        7.216451         2
        16         8         7        36     9        0.000000       -0.156869         3
        16         8         7        36     9      180.000000        0.486791         4
        16        12        11        37     9        0.000000        0.590661         1
        16        12        11        37     9      180.000000        4.595214         2
        16        12        11        37     9        0.000000        0.398248         3
        16        12        11        37     9      180.000000        0.099104         4
        16        12        13        38     9        0.000000        1.026521         1
        16        12        13        38     9      180.000000        6.099846         2
        16        12        13        38     9        0.000000        0.349087         3
        16        12        13        38     9      180.000000        0.232409         4
        16        15        14        39     9        0.000000        2.009586         1
        16        15        14        39     9      180.000000       22.682232         2
        16        15        14        39     9        0.000000        0.566971         3
        16        15        14        39     9      180.000000       -0.265561         4
        17        10        11        37     9        0.000000       -0.085737         1
        17        10        11        37     9      180.000000       14.963563         2
        17        10        11        37     9        0.000000        0.238984         3
        17        10        11        37     9      180.000000       -0.022416         4
        17        18        19        20     9        0.000000       -0.220015         1
        17        18        19        20     9      180.000000       22.548940         2
        17        18        19        20     9        0.000000       -1.676737         3
        17        18        19        20     9      180.000000       -0.632195         4
        17        18        19        41     9        0.000000        0.002606         1
        17        18        19        41     9      180.000000       15.184702         2
        17        18        19        41     9        0.000000       -0.414881         3
        17        18        19        41     9      180.000000        0.089906         4
        17        26        21        20     9        0.000000       -0.213326         1
        17        26        21        20     9      180.000000       19.331217         2
        17        26        21        20     9        0.000000       -2.153378         3
        17        26        21        20     9      180.000000       -0.475110         4
        17        26        21        22     9        0.000000       -0.044765         1
        17        26        21        22     9      180.000000       12.383047         2
        17        26        21        22     9        0.000000       -0.677583         3
        17        26        21        22     9      180.000000       -0.182934         4
        18        17        26        21     9        0.000000       -0.145270         1
        18        17        26        21     9      180.000000       20.682900         2
        18        17        26        21     9        0.000000       -1.589524         3
        18        17        26        21     9      180.000000       -0.490506         4
        18        17        26        46     9        0.000000        0.021944         1
        18        17        26        46     9      180.000000       14.335641         2
        18        17        26        46     9        0.000000       -0.535267         3
        18        17        26        46     9      180.000000        0.045632         4
        18        19        20        21     9        0.000000       -0.055078         1
        18        19        20        21     9      180.000000       16.957109         2
        18        19        20        21     9        0.000000       -1.840275         3
        18        19        20        21     9      180.000000       -0.305153         4
        18        19        20        24     9        0.000000        0.385911         1
        18        19        20        24     9      180.000000       12.741052         2
        18        19        20        24     9        0.000000       -0.074144         3
        18        19        20        24     9      180.000000       -0.176573         4
        19        18        17        26     9        0.000000       -0.056333         1
        19        18        17        26     9      180.000000       16.607159         2
        19        18        17        26     9        0.000000       -1.325281         3
        19        18        17        26     9      180.000000       -0.271892         4
        19        20        21        22     9        0.000000       -0.068225         1
        19        20        21        22     9      180.000000        9.915840         2
        19        20        21        22     9        0.000000       -1.921003         3
        19        20        21        22     9      180.000000        0.119378         4
        19        20        21        26     9        0.000000       -0.238934         1
        19        20        21        26     9      180.000000       10.196234         2
        19        20        21        26     9        0.000000       -1.297724         3
        19        20        21        26     9      180.000000       -0.016438         4
        19        20        24        23     9        0.000000        1.189130         1
        19        20        24        23     9      180.000000        5.151392         2
        19        20        24        23     9        0.000000        0.569302         3
        19        20        24        23     9      180.000000       -0.058524         4
        19        20        24        25     9        0.000000       -0.127345         1
        19        20        24        25     9      180.000000        2.588759         2
        19        20        24        25     9        0.000000        0.093886         3
        19        20        24        25     9      180.000000       -0.021336         4
        20        19        18        40     9        0.000000        0.127953         1
        20        19        18        40     9      180.000000       17.544916         2
        20        19        18        40     9        0.000000       -0.487251         3
        20        19        18        40     9      180.000000       -0.095571         4
        20        21        22        23     9        0.000000       -0.132765         1
        20        21        22        23     9      180.000000       29.818617         2
        20        21        22        23     9        0.000000       -9.714671         3
        20        21        22        23     9      180.000000       -0.315347         4
        20        21        22        42     9        0.000000        0.919392         1
        20        21        22        42     9      180.000000       12.653194         2
        20        21        22        42     9        0.000000        0.454527         3
        20        21        22        42     9      180.000000       -0.381628         4
        20        21        26        46     9        0.000000        0.211620         1
        20        21        26        46     9      180.000000       13.552563         2
        20        21        26        46     9        0.000000       -0.330560         3
        20        21        26        46     9      180.000000       -0.083958         4
        20        24        23        22     9        0.000000       -0.472478         1
        20        24        23        22     9      180.000000       22.415559         2
        20        24        23        22     9        0.000000       -3.398472         3
        20        24        23        22     9      180.000000       -0.425070         4
        20        24        25        43     9        0.000000        0.007919         1
        20        24        25        43     9      180.000000        0.009877         2
        20        24        25        43     9        0.000000        0.512879         3
        20        24        25        43     9      180.000000       -0.006540         4
        20        24        25        44     9        0.000000        0.007919         1
        20        24        25        44     9      180.000000        0.009877         2
        20        24        25        44     9        0.000000        0.512879         3
        20        24        25        44     9      180.000000       -0.006540         4
        20        24        25        45     9        0.000000        0.007919         1
        20        24        25        45     9      180.000000        0.009877         2
        20        24        25        45     9        0.000000        0.512879         3
        20        24        25        45     9      180.000000       -0.006540         4
        21        20        19        41     9        0.000000        0.137333         1
        21        20        19        41     9      180.000000       11.400151         2
        21        20        19        41     9        0.000000       -0.151018         3
        21        20        19        41     9      180.000000       -0.065791         4
        21        20        24        23     9        0.000000       -0.131809         1
        21        20        24        23     9      180.000000       25.569398         2
        21        20        24        23     9        0.000000       -6.161950         3
        21        20        24        23     9      180.000000       -0.423942         4
        21        20        24        25     9        0.000000        0.187689         1
        21        20        24        25     9      180.000000        3.581879         2
        21        20        24        25     9        0.000000        0.791885         3
        21        20        24        25     9      180.000000        0.076522         4
        21        22        23        24     9        0.000000       -0.341852         1
        21        22        23        24     9      180.000000       41.256796         2
        21        22        23        24     9        0.000000       -5.328863         3
        21        22        23        24     9      180.000000       -0.199443         4
        22        21        20        24     9        0.000000        0.196223         1
        22        21        20        24     9      180.000000       16.963222         2
        22        21        20        24     9        0.000000       -6.517880         3
        22        21        20        24     9      180.000000       -0.152646         4
        22        21        26        46     9        0.000000       -0.005508         1
        22        21        26        46     9      180.000000        8.964485         2
        22        21        26        46     9        0.000000       -0.098925         3
        22        21        26        46     9      180.000000        0.113644         4
        22        23        24        25     9        0.000000        1.022143         1
        22        23        24        25     9      180.000000        7.111391         2
        22        23        24        25     9        0.000000        0.646890         3
        22        23        24        25     9      180.000000        0.047691         4
        23        22        21        26     9        0.000000        0.075553         1
        23        22        21        26     9      180.000000        4.116900         2
        23        22        21        26     9        0.000000       -0.529050         3
        23        22        21        26     9      180.000000        0.036180         4
        23        24        25        43     9        0.000000       -0.006792         1
        23        24        25        43     9      180.000000       -0.008435         2
        23        24        25        43     9        0.000000        0.359852         3
        23        24        25        43     9      180.000000        0.009143         4
        23        24        25        44     9        0.000000       -0.006792         1
        23        24        25        44     9      180.000000       -0.008435         2
        23        24        25        44     9        0.000000        0.359852         3
        23        24        25        44     9      180.000000        0.009143         4
        23        24        25        45     9        0.000000       -0.006792         1
        23        24        25        45     9      180.000000       -0.008435         2
        23        24        25        45     9        0.000000        0.359852         3
        23        24        25        45     9      180.000000        0.009143         4
        24        20        19        41     9        0.000000       -0.160399         1
        24        20        19        41     9      180.000000        9.279963         2
        24        20        19        41     9        0.000000       -0.052228         3
        24        20        19        41     9      180.000000        0.107349         4
        24        20        21        26     9        0.000000        0.325877         1
        24        20        21        26     9      180.000000        9.536133         2
        24        20        21        26     9        0.000000       -2.239316         3
        24        20        21        26     9      180.000000        0.032260         4
        24        23        22        42     9        0.000000        1.570626         1
        24        23        22        42     9      180.000000       27.866918         2
        24        23        22        42     9        0.000000        0.420718         3
        24        23        22        42     9      180.000000       -0.118063         4
        26        17        18        40     9        0.000000       -0.128950         1
        26        17        18        40     9      180.000000       12.925027         2
        26        17        18        40     9        0.000000       -0.730006         3
        26        17        18        40     9      180.000000        0.108849         4
        26        21        22        42     9        0.000000       -0.594241         1
        26        21        22        42     9      180.000000        4.508184         2
        26        21        22        42     9        0.000000       -0.028897         3
        26        21        22        42     9      180.000000        0.102678         4
        27         6         5        35     9        0.000000        0.074273         1
        27         6         5        35     9      180.000000       12.990241         2
        27         6         5        35     9        0.000000       -0.520768         3
        27         6         5        35     9      180.000000        0.132469         4
        27         6         7        36     9        0.000000        1.575093         1
        27         6         7        36     9      180.000000        3.198189         2
        27         6         7        36     9        0.000000        0.467524         3
        27         6         7        36     9      180.000000        0.863764         4
        27        28        29        30     9        0.000000        0.123069         1
        27        28        29        30     9      180.000000        4.737590         2
        27        28        29        30     9        0.000000       -0.815850         3
        27        28        29        30     9      180.000000        0.427563         4
        28         3         4        34     9        0.000000        0.222424         1
        28         3         4        34     9      180.000000       12.890975         2
        28         3         4        34     9        0.000000       -0.414499         3
        28         3         4        34     9      180.000000        0.189834         4
        28        29        30        48     9        0.000000       -0.006341         1
        28        29        30        48     9      180.000000       -0.005041         2
        28        29        30        48     9        0.000000        0.433370         3
        28        29        30        48     9      180.000000       -0.009039         4
        28        29        30        49     9        0.000000       -0.006341         1
        28        29        30        49     9      180.000000       -0.005041         2
        28        29        30        49     9        0.000000        0.433370         3
        28        29        30        49     9      180.000000       -0.009039         4
        28        29        30        50     9        0.000000       -0.006341         1
        28        29        30        50     9      180.000000       -0.005041         2
        28        29        30        50     9        0.000000        0.433370         3
        28        29        30        50     9      180.000000       -0.009039         4
        29        28        27        47     9        0.000000        0.102563         1
        29        28        27        47     9      180.000000       13.836841         2
        29        28        27        47     9        0.000000       -0.050823         3
        29        28        27        47     9      180.000000        0.307531         4
        34         4         5        35     9        0.000000       -0.192420         1
        34         4         5        35     9      180.000000       11.734676         2
        34         4         5        35     9        0.000000       -0.700233         3
        34         4         5        35     9      180.000000        0.222006         4
        38        13        14        39     9        0.000000       -0.357707         1
        38        13        14        39     9      180.000000        9.061504         2
        38        13        14        39     9        0.000000       -0.277918         3
        38        13        14        39     9      180.000000        0.193706         4
        40        18        19        41     9        0.000000       -0.109363         1
        40        18        19        41     9      180.000000       12.571050         2
        40        18        19        41     9        0.000000       -0.681507         3
        40        18        19        41     9      180.000000        0.334519         4

[ pairs ]
;       ai        aj funct
         1         4     1
         1        28     1
         2         5     1
         2        27     1
         2        29     1
         2        34     1
         3         6     1
         3        30     1
         3        31     1
         3        32     1
         3        33     1
         3        35     1
         3        47     1
         4         7     1
         4        27     1
         4        29     1
         5         8     1
         5        28     1
         5        36     1
         5        47     1
         6         9     1
         6        16     1
         6        29     1
         6        34     1
         7        10     1
         7        12     1
         7        15     1
         7        28     1
         7        35     1
         7        47     1
         8        11     1
         8        13     1
         8        14     1
         8        17     1
         8        27     1
         9        12     1
         9        15     1
         9        18     1
         9        26     1
         9        36     1
         9        37     1
        10        13     1
        10        16     1
        10        19     1
        10        21     1
        10        40     1
        10        46     1
        11        14     1
        11        15     1
        11        18     1
        11        26     1
        11        38     1
        12        17     1
        12        39     1
        13        37     1
        15        38     1
        16        36     1
        16        37     1
        16        38     1
        16        39     1
        17        20     1
        17        22     1
        17        37     1
        17        41     1
        18        21     1
        18        24     1
        18        46     1
        19        22     1
        19        23     1
        19        25     1
        19        26     1
        20        40     1
        20        42     1
        20        43     1
        20        44     1
        20        45     1
        20        46     1
        21        25     1
        21        41     1
        22        25     1
        22        46     1
        23        26     1
        23        43     1
        23        44     1
        23        45     1
        24        26     1
        24        41     1
        24        42     1
        26        40     1
        26        42     1
        27        30     1
        27        35     1
        27        36     1
        28        34     1
        28        48     1
        28        49     1
        28        50     1
        29        47     1
        34        35     1
        38        39     1
        40        41     1
