; ITP file created by ByteFF-ML, 2026-02-21 07:48:23.041875

[ atomtypes ]
;name           bonded.type        at.num        mass        charge   ptype           sigma         epsilon
 c0bf                                   6      0.0000       0.00000       A     3.39799e-01     4.50095e-01
 o1bf                                   8      0.0000       0.00000       A     3.15802e-01     3.03422e-01
 c2bf                                   6      0.0000       0.00000       A     3.31494e-01     4.13273e-01
 c3bf                                   6      0.0000       0.00000       A     3.31460e-01     4.13344e-01
 c4bf                                   6      0.0000       0.00000       A     3.31371e-01     4.12570e-01
 c5bf                                   6      0.0000       0.00000       A     3.31310e-01     4.12073e-01
 n6bf                                   7      0.0000       0.00000       A     3.27838e-01     6.48901e-01
 c7bf                                   6      0.0000       0.00000       A     3.31293e-01     4.14462e-01
 n8bf                                   7      0.0000       0.00000       A     3.38681e-01     3.94196e-01
 c9bf                                   6      0.0000       0.00000       A     3.31466e-01     4.10308e-01
 c10bf                                  6      0.0000       0.00000       A     3.31502e-01     4.12996e-01
 n11bf                                  7      0.0000       0.00000       A     3.20544e-01     8.50304e-01
 c12bf                                  6      0.0000       0.00000       A     3.31513e-01     4.11963e-01
 c13bf                                  6      0.0000       0.00000       A     3.31488e-01     4.12482e-01
 n14bf                                  7      0.0000       0.00000       A     3.38571e-01     3.94678e-01
 c15bf                                  6      0.0000       0.00000       A     3.31524e-01     4.13157e-01
 c16bf                                  6      0.0000       0.00000       A     3.31336e-01     4.12241e-01
 c17bf                                  6      0.0000       0.00000       A     3.31461e-01     4.12624e-01
 c18bf                                  6      0.0000       0.00000       A     3.31502e-01     4.13133e-01
 c19bf                                  6      0.0000       0.00000       A     3.31582e-01     4.11735e-01
 c20bf                                  6      0.0000       0.00000       A     3.39813e-01     4.50898e-01
 c21bf                                  6      0.0000       0.00000       A     3.31463e-01     4.13007e-01
 c22bf                                  6      0.0000       0.00000       A     3.31601e-01     4.14212e-01
 c23bf                                  6      0.0000       0.00000       A     3.31498e-01     4.10863e-01
 o24bf                                  8      0.0000       0.00000       A     3.04803e-01     6.10115e-01
 n25bf                                  7      0.0000       0.00000       A     3.35886e-01     3.54024e-01
 c26bf                                  6      0.0000       0.00000       A     3.31426e-01     4.12512e-01
 c27bf                                  6      0.0000       0.00000       A     3.31334e-01     4.12096e-01
 o28bf                                  8      0.0000       0.00000       A     3.15839e-01     3.04251e-01
 c29bf                                  6      0.0000       0.00000       A     3.39799e-01     4.50095e-01
 h30bf                                  1      0.0000       0.00000       A     2.42080e-01     8.75859e-02
 h31bf                                  1      0.0000       0.00000       A     2.42080e-01     8.75859e-02
 h32bf                                  1      0.0000       0.00000       A     2.42080e-01     8.75859e-02
 h33bf                                  1      0.0000       0.00000       A     2.62545e-01     6.69663e-02
 h34bf                                  1      0.0000       0.00000       A     2.62478e-01     6.76031e-02
 h35bf                                  1      0.0000       0.00000       A     1.10437e-01     4.36637e-02
 h36bf                                  1      0.0000       0.00000       A     2.53936e-01     6.71690e-02
 h37bf                                  1      0.0000       0.00000       A     2.54157e-01     6.73717e-02
 h38bf                                  1      0.0000       0.00000       A     2.53844e-01     6.71387e-02
 h39bf                                  1      0.0000       0.00000       A     2.62480e-01     6.74052e-02
 h40bf                                  1      0.0000       0.00000       A     2.62540e-01     6.74052e-02
 h41bf                                  1      0.0000       0.00000       A     2.60031e-01     8.73273e-02
 h42bf                                  1      0.0000       0.00000       A     2.60031e-01     8.73273e-02
 h43bf                                  1      0.0000       0.00000       A     2.60031e-01     8.73273e-02
 h44bf                                  1      0.0000       0.00000       A     2.62589e-01     6.75217e-02
 h45bf                                  1      0.0000       0.00000       A     1.10424e-01     4.11499e-02
 h46bf                                  1      0.0000       0.00000       A     1.10424e-01     4.11499e-02
 h47bf                                  1      0.0000       0.00000       A     2.62385e-01     6.71291e-02
 h48bf                                  1      0.0000       0.00000       A     2.42080e-01     8.75859e-02
 h49bf                                  1      0.0000       0.00000       A     2.42080e-01     8.75859e-02
 h50bf                                  1      0.0000       0.00000       A     2.42080e-01     8.75859e-02

[ moleculetype ]
;name             nrexcl
 CHEMBL3265009         3

[ atoms ]
;       nr            type      resi   res      atom      cgnr      charge          mass ; qtot
         1            c0bf         1   UNL        c0         1     0.14145       12.0110 ; qtot    0.141
         2            o1bf         1   UNL        o1         2    -0.33647       15.9990 ; qtot   -0.195
         3            c2bf         1   UNL        c2         3     0.08002       12.0110 ; qtot   -0.115
         4            c3bf         1   UNL        c3         4    -0.13937       12.0110 ; qtot   -0.254
         5            c4bf         1   UNL        c4         5    -0.13475       12.0110 ; qtot   -0.389
         6            c5bf         1   UNL        c5         6     0.30239       12.0110 ; qtot   -0.087
         7            n6bf         1   UNL        n6         7    -0.91203       14.0070 ; qtot   -0.999
         8            c7bf         1   UNL        c7         8     0.67905       12.0110 ; qtot   -0.320
         9            n8bf         1   UNL        n8         9    -0.75823       14.0070 ; qtot   -1.078
        10            c9bf         1   UNL        c9        10     0.38886       12.0110 ; qtot   -0.689
        11           c10bf         1   UNL       c10        11    -0.18080       12.0110 ; qtot   -0.870
        12           n11bf         1   UNL       n11        12     0.16114       14.0070 ; qtot   -0.709
        13           c12bf         1   UNL       c12        13    -0.26112       12.0110 ; qtot   -0.970
        14           c13bf         1   UNL       c13        14    -0.04248       12.0110 ; qtot   -1.012
        15           n14bf         1   UNL       n14        15    -0.27126       14.0070 ; qtot   -1.284
        16           c15bf         1   UNL       c15        16    -0.16948       12.0110 ; qtot   -1.453
        17           c16bf         1   UNL       c16        17    -0.13688       12.0110 ; qtot   -1.590
        18           c17bf         1   UNL       c17        18    -0.06583       12.0110 ; qtot   -1.656
        19           c18bf         1   UNL       c18        19    -0.12986       12.0110 ; qtot   -1.786
        20           c19bf         1   UNL       c19        20    -0.01955       12.0110 ; qtot   -1.805
        21           c20bf         1   UNL       c20        21    -0.05452       12.0110 ; qtot   -1.860
        22           c21bf         1   UNL       c21        22    -0.15946       12.0110 ; qtot   -2.019
        23           c22bf         1   UNL       c22        23    -0.03402       12.0110 ; qtot   -2.053
        24           c23bf         1   UNL       c23        24     0.60266       12.0110 ; qtot   -1.451
        25           o24bf         1   UNL       o24        25    -0.59205       15.9990 ; qtot   -2.043
        26           n25bf         1   UNL       n25        26    -0.59466       14.0070 ; qtot   -2.637
        27           c26bf         1   UNL       c26        27    -0.18949       12.0110 ; qtot   -2.827
        28           c27bf         1   UNL       c27        28     0.11411       12.0110 ; qtot   -2.713
        29           o28bf         1   UNL       o28        29    -0.33842       15.9990 ; qtot   -3.051
        30           c29bf         1   UNL       c29        30     0.14175       12.0110 ; qtot   -2.909
        31           h30bf         1   UNL       h30        31     0.04404        1.0080 ; qtot   -2.865
        32           h31bf         1   UNL       h31        32     0.04404        1.0080 ; qtot   -2.821
        33           h32bf         1   UNL       h32        33     0.04404        1.0080 ; qtot   -2.777
        34           h33bf         1   UNL       h33        34     0.12393        1.0080 ; qtot   -2.653
        35           h34bf         1   UNL       h34        35     0.13132        1.0080 ; qtot   -2.522
        36           h35bf         1   UNL       h35        36     0.50588        1.0080 ; qtot   -2.016
        37           h36bf         1   UNL       h36        37     0.15431        1.0080 ; qtot   -1.862
        38           h37bf         1   UNL       h37        38     0.22767        1.0080 ; qtot   -1.634
        39           h38bf         1   UNL       h38        39     0.22246        1.0080 ; qtot   -1.412
        40           h39bf         1   UNL       h39        40     0.12409        1.0080 ; qtot   -1.288
        41           h40bf         1   UNL       h40        41     0.11811        1.0080 ; qtot   -1.169
        42           h41bf         1   UNL       h41        42     0.05067        1.0080 ; qtot   -1.119
        43           h42bf         1   UNL       h42        43     0.05067        1.0080 ; qtot   -1.068
        44           h43bf         1   UNL       h43        44     0.05067        1.0080 ; qtot   -1.017
        45           h44bf         1   UNL       h44        45     0.13447        1.0080 ; qtot   -0.883
        46           h45bf         1   UNL       h45        46     0.30935        1.0080 ; qtot   -0.574
        47           h46bf         1   UNL       h46        47     0.30935        1.0080 ; qtot   -0.264
        48           h47bf         1   UNL       h47        48     0.13212        1.0080 ; qtot   -0.132
        49           h48bf         1   UNL       h48        49     0.04404        1.0080 ; qtot   -0.088
        50           h49bf         1   UNL       h49        50     0.04404        1.0080 ; qtot   -0.044
        51           h50bf         1   UNL       h50        51     0.04403        1.0080 ; qtot   -0.000

[ bonds ]
;       ai        aj funct               r               k
         1         2     1        0.142750   205228.507056
         1        31     1        0.109386   299034.366748
         1        32     1        0.109386   299034.366748
         1        33     1        0.109386   299034.366748
         2         3     1        0.137015   270782.100830
         3         4     1        0.139488   304008.331689
         3        28     1        0.141529   250914.434033
         4         5     1        0.140005   315466.551758
         4        34     1        0.108446   322299.133057
         5         6     1        0.140061   293503.054395
         5        35     1        0.108414   324178.051416
         6         7     1        0.141092   252182.734570
         6        27     1        0.140674   282765.542627
         7         8     1        0.136729   311607.817920
         7        36     1        0.101302   413497.768799
         8         9     1        0.132079   353344.852295
         8        16     1        0.143870   235848.075781
         9        10     1        0.137702   243451.392578
        10        11     1        0.137534   346710.055908
        10        17     1        0.148272   209445.398853
        11        12     1        0.137841   276178.679395
        11        37     1        0.108180   332005.354199
        12        13     1        0.137750   263209.071045
        12        16     1        0.138998   204565.857373
        13        14     1        0.138746   337814.101709
        13        38     1        0.107915   345078.311230
        14        15     1        0.136744   275913.399902
        14        39     1        0.108260   332273.212939
        15        16     1        0.133378   321390.292871
        17        18     1        0.140346   291226.165723
        17        23     1        0.140157   291197.257715
        18        19     1        0.139425   322906.865186
        18        40     1        0.108531   320442.993799
        19        20     1        0.140337   289899.768262
        19        41     1        0.108688   315689.771631
        20        21     1        0.151197   200648.005127
        20        22     1        0.141240   263714.910107
        21        42     1        0.109339   302051.295312
        21        43     1        0.109339   302051.295312
        21        44     1        0.109339   302051.295312
        22        23     1        0.140162   294692.419727
        22        24     1        0.150430   175047.819092
        23        45     1        0.108474   321995.930957
        24        25     1        0.123068   607884.381152
        24        26     1        0.137984   289299.212061
        26        46     1        0.101229   424544.075293
        26        47     1        0.101229   424544.075293
        27        28     1        0.139409   309212.462598
        27        48     1        0.108244   326136.952002
        28        29     1        0.136800   272579.862256
        29        30     1        0.142754   205101.357788
        30        49     1        0.109386   299034.341211
        30        50     1        0.109386   299034.341211
        30        51     1        0.109386   299034.341211

[ angles ]
;       ai        aj        ak funct           theta             cth
         1         2         3     1      117.082443      547.136590
         2         1        31     1      109.406631      448.806110
         2         1        32     1      109.406631      448.806110
         2         1        33     1      109.406631      448.806110
         2         3         4     1      124.061974      526.185244
         2         3        28     1      116.730186      403.093057
         3         4         5     1      121.105545      730.301061
         3         4        34     1      119.820435      430.270000
         3        28        27     1      119.959702      641.355245
         3        28        29     1      116.770729      382.344602
         4         3        28     1      118.961632      615.309053
         4         5         6     1      119.989258      692.295585
         4         5        35     1      119.981018      402.478985
         5         4        34     1      119.168861      430.731806
         5         6         7     1      121.161964      571.797075
         5         6        27     1      119.274185      562.540766
         6         5        35     1      119.993568      438.163871
         6         7         8     1      130.908600      390.906748
         6         7        36     1      115.466995      445.927919
         6        27        28     1      120.440468      771.725955
         6        27        48     1      119.557449      428.763885
         7         6        27     1      119.328491      531.273672
         7         8         9     1      121.356186      603.895561
         7         8        16     1      116.105576      347.689596
         8         7        36     1      112.198647      485.186500
         8         9        10     1      119.723656      660.395075
         8        16        12     1      117.476013      691.884693
         8        16        15     1      131.168365      328.267219
         9         8        16     1      121.162231      641.675161
         9        10        11     1      122.073318      386.369698
         9        10        17     1      116.211044      497.541545
        10        11        12     1      118.140015      872.310500
        10        11        37     1      124.923790      345.661438
        10        17        18     1      121.231224      539.302508
        10        17        23     1      120.864578      476.054430
        11        10        17     1      121.406372      450.929266
        11        12        13     1      132.322876      451.336998
        11        12        16     1      121.408890      768.949816
        12        11        37     1      117.425148      489.799204
        12        13        14     1      105.222717      375.667031
        12        13        38     1      122.391075      461.871917
        12        16        15     1      111.412987      167.360000
        13        12        16     1      106.439148      167.360000
        13        14        15     1      111.710022      296.607652
        13        14        39     1      126.932030      353.254674
        14        13        38     1      132.665771      296.979153
        14        15        16     1      105.148094      501.387338
        15        14        39     1      121.224686      373.698758
        17        18        19     1      120.456604      694.335106
        17        18        40     1      119.750267      425.632141
        17        23        22     1      121.563759      656.923241
        17        23        45     1      119.291519      418.744432
        18        17        23     1      118.130371      631.455912
        18        19        20     1      122.054955      707.780905
        18        19        41     1      119.157738      444.783984
        19        18        40     1      119.779312      420.704884
        19        20        21     1      119.258446      503.572229
        19        20        22     1      117.515648      688.875783
        20        19        41     1      118.935745      405.807236
        20        21        42     1      111.178246      483.972083
        20        21        43     1      111.178246      483.972083
        20        21        44     1      111.178246      483.972083
        20        22        23     1      120.161865      702.619728
        20        22        24     1      121.933083      588.332481
        21        20        22     1      123.217125      468.362908
        22        23        45     1      118.910645      400.166504
        22        24        25     1      122.891563      579.078790
        22        24        26     1      115.442551      528.012615
        23        22        24     1      117.526505      550.483676
        24        26        46     1      117.721680      444.389435
        24        26        47     1      117.721680      444.389435
        25        24        26     1      121.245811      689.438749
        27        28        29     1      123.114540      463.233875
        28        27        48     1      120.054489      415.811750
        28        29        30     1      117.278854      548.766496
        29        30        49     1      109.407082      448.359562
        29        30        50     1      109.407082      448.359562
        29        30        51     1      109.407082      448.359562
        31         1        32     1      109.654236      343.283135
        31         1        33     1      109.654236      343.283135
        32         1        33     1      109.654236      343.283135
        42        21        43     1      107.759216      355.989156
        42        21        44     1      107.759216      355.989156
        43        21        44     1      107.759216      355.989156
        46        26        47     1      117.222290      318.388412
        49        30        50     1      109.654236      343.283167
        49        30        51     1      109.654236      343.283167
        50        30        51     1      109.654236      343.283167

[ dihedrals ] ; propers for gromacs 4.5 or higher, use funct 9
;       ai        aj        ak        al funct           phase               k        pn
         1         2         3         4     9        0.000000       -0.020471         1
         1         2         3         4     9      180.000000        4.264586         2
         1         2         3         4     9        0.000000       -0.661221         3
         1         2         3         4     9      180.000000        0.423658         4
         1         2         3        28     9        0.000000        0.687110         1
         1         2         3        28     9      180.000000        3.031873         2
         1         2         3        28     9        0.000000        1.138396         3
         1         2         3        28     9      180.000000        0.057396         4
         2         3         4         5     9        0.000000        0.412383         1
         2         3         4         5     9      180.000000       18.405153         2
         2         3         4         5     9        0.000000        0.286762         3
         2         3         4         5     9      180.000000       -0.248269         4
         2         3         4        34     9        0.000000        0.002515         1
         2         3         4        34     9      180.000000       13.550908         2
         2         3         4        34     9        0.000000       -0.035816         3
         2         3         4        34     9      180.000000        0.307724         4
         2         3        28        27     9        0.000000        0.190228         1
         2         3        28        27     9      180.000000       12.913656         2
         2         3        28        27     9        0.000000       -0.036672         3
         2         3        28        27     9      180.000000        0.087435         4
         2         3        28        29     9        0.000000       -0.231151         1
         2         3        28        29     9      180.000000       16.200532         2
         2         3        28        29     9        0.000000       -0.225092         3
         2         3        28        29     9      180.000000       -0.129585         4
         3         2         1        31     9        0.000000       -0.002785         1
         3         2         1        31     9      180.000000       -0.013204         2
         3         2         1        31     9        0.000000        0.475747         3
         3         2         1        31     9      180.000000       -0.002909         4
         3         2         1        32     9        0.000000       -0.002785         1
         3         2         1        32     9      180.000000       -0.013204         2
         3         2         1        32     9        0.000000        0.475747         3
         3         2         1        32     9      180.000000       -0.002909         4
         3         2         1        33     9        0.000000       -0.002785         1
         3         2         1        33     9      180.000000       -0.013204         2
         3         2         1        33     9        0.000000        0.475747         3
         3         2         1        33     9      180.000000       -0.002909         4
         3         4         5         6     9        0.000000       -0.173495         1
         3         4         5         6     9      180.000000       17.663552         2
         3         4         5         6     9        0.000000       -1.660356         3
         3         4         5         6     9      180.000000       -0.412935         4
         3         4         5        35     9        0.000000        0.149237         1
         3         4         5        35     9      180.000000       14.141559         2
         3         4         5        35     9        0.000000       -0.494779         3
         3         4         5        35     9      180.000000        0.094379         4
         3        28        27         6     9        0.000000       -0.132619         1
         3        28        27         6     9      180.000000       16.584041         2
         3        28        27         6     9        0.000000       -1.316973         3
         3        28        27         6     9      180.000000       -0.328534         4
         3        28        27        48     9        0.000000        0.166400         1
         3        28        27        48     9      180.000000       12.784533         2
         3        28        27        48     9        0.000000       -0.336161         3
         3        28        27        48     9      180.000000        0.291888         4
         3        28        29        30     9        0.000000        0.802291         1
         3        28        29        30     9      180.000000        3.527079         2
         3        28        29        30     9        0.000000        1.195050         3
         3        28        29        30     9      180.000000        0.043134         4
         4         3        28        27     9        0.000000        0.246300         1
         4         3        28        27     9      180.000000       12.038167         2
         4         3        28        27     9        0.000000       -0.447743         3
         4         3        28        27     9      180.000000       -0.093295         4
         4         3        28        29     9        0.000000        0.312921         1
         4         3        28        29     9      180.000000       12.963699         2
         4         3        28        29     9        0.000000       -0.020336         3
         4         3        28        29     9      180.000000        0.087697         4
         4         5         6         7     9        0.000000        0.132129         1
         4         5         6         7     9      180.000000       17.832522         2
         4         5         6         7     9        0.000000        0.097463         3
         4         5         6         7     9      180.000000       -0.336845         4
         4         5         6        27     9        0.000000       -0.023969         1
         4         5         6        27     9      180.000000       17.298060         2
         4         5         6        27     9        0.000000       -1.297561         3
         4         5         6        27     9      180.000000       -0.244555         4
         5         4         3        28     9        0.000000        0.101367         1
         5         4         3        28     9      180.000000       16.812105         2
         5         4         3        28     9        0.000000       -1.160185         3
         5         4         3        28     9      180.000000       -0.311315         4
         5         6         7         8     9        0.000000        0.443064         1
         5         6         7         8     9      180.000000        3.120267         2
         5         6         7         8     9        0.000000       -0.198859         3
         5         6         7         8     9      180.000000        0.465134         4
         5         6         7        36     9        0.000000       -0.086586         1
         5         6         7        36     9      180.000000        3.309236         2
         5         6         7        36     9        0.000000        0.058468         3
         5         6         7        36     9      180.000000        0.892657         4
         5         6        27        28     9        0.000000        0.041058         1
         5         6        27        28     9      180.000000       15.861907         2
         5         6        27        28     9        0.000000       -1.469751         3
         5         6        27        28     9      180.000000       -0.131811         4
         5         6        27        48     9        0.000000        0.034995         1
         5         6        27        48     9      180.000000       12.257033         2
         5         6        27        48     9        0.000000       -0.533827         3
         5         6        27        48     9      180.000000        0.241321         4
         6         5         4        34     9        0.000000        0.111932         1
         6         5         4        34     9      180.000000       13.581334         2
         6         5         4        34     9        0.000000       -0.541303         3
         6         5         4        34     9      180.000000        0.103444         4
         6         7         8         9     9        0.000000       -0.142316         1
         6         7         8         9     9      180.000000        7.089439         2
         6         7         8         9     9        0.000000        0.006697         3
         6         7         8         9     9      180.000000       -0.538883         4
         6         7         8        16     9        0.000000        2.326493         1
         6         7         8        16     9      180.000000        5.951173         2
         6         7         8        16     9        0.000000        0.374079         3
         6         7         8        16     9      180.000000       -0.366443         4
         6        27        28        29     9        0.000000        0.361152         1
         6        27        28        29     9      180.000000       18.377753         2
         6        27        28        29     9        0.000000        0.246867         3
         6        27        28        29     9      180.000000       -0.381467         4
         7         6         5        35     9        0.000000       -0.024104         1
         7         6         5        35     9      180.000000       14.277814         2
         7         6         5        35     9        0.000000       -0.040262         3
         7         6         5        35     9      180.000000        0.129898         4
         7         6        27        28     9        0.000000       -0.012406         1
         7         6        27        28     9      180.000000       16.138685         2
         7         6        27        28     9        0.000000       -0.036311         3
         7         6        27        28     9      180.000000       -0.361374         4
         7         6        27        48     9        0.000000       -0.145209         1
         7         6        27        48     9      180.000000       13.428408         2
         7         6        27        48     9        0.000000       -0.139710         3
         7         6        27        48     9      180.000000        0.230595         4
         7         8         9        10     9        0.000000        1.964182         1
         7         8         9        10     9      180.000000       24.409540         2
         7         8         9        10     9        0.000000        0.721435         3
         7         8         9        10     9      180.000000       -0.981985         4
         7         8        16        12     9        0.000000        0.532707         1
         7         8        16        12     9      180.000000       12.023478         2
         7         8        16        12     9        0.000000        0.177021         3
         7         8        16        12     9      180.000000       -0.593144         4
         7         8        16        15     9        0.000000       -0.356301         1
         7         8        16        15     9      180.000000       10.853867         2
         7         8        16        15     9        0.000000       -0.107328         3
         7         8        16        15     9      180.000000       -0.464327         4
         8         7         6        27     9        0.000000       -0.444928         1
         8         7         6        27     9      180.000000        3.391439         2
         8         7         6        27     9        0.000000       -0.254058         3
         8         7         6        27     9      180.000000        0.430933         4
         8         9        10        11     9        0.000000        0.932419         1
         8         9        10        11     9      180.000000       13.725350         2
         8         9        10        11     9        0.000000       -0.291373         3
         8         9        10        11     9      180.000000       -0.023212         4
         8         9        10        17     9        0.000000        1.428365         1
         8         9        10        17     9      180.000000       18.082201         2
         8         9        10        17     9        0.000000        0.671721         3
         8         9        10        17     9      180.000000       -1.018032         4
         8        16        12        11     9        0.000000        0.337956         1
         8        16        12        11     9      180.000000        5.783879         2
         8        16        12        11     9        0.000000       -0.143386         3
         8        16        12        11     9      180.000000        0.124531         4
         8        16        12        13     9        0.000000       -0.529939         1
         8        16        12        13     9      180.000000        7.254573         2
         8        16        12        13     9        0.000000       -2.285934         3
         8        16        12        13     9      180.000000        0.374903         4
         8        16        15        14     9        0.000000        1.546001         1
         8        16        15        14     9      180.000000       16.470755         2
         8        16        15        14     9        0.000000       -0.373495         3
         8        16        15        14     9      180.000000        0.010417         4
         9         8         7        36     9        0.000000       11.455044         1
         9         8         7        36     9      180.000000        6.774556         2
         9         8         7        36     9        0.000000       -0.382910         3
         9         8         7        36     9      180.000000        0.129606         4
         9         8        16        12     9        0.000000       -0.061703         1
         9         8        16        12     9      180.000000        9.290064         2
         9         8        16        12     9        0.000000       -0.534588         3
         9         8        16        12     9      180.000000       -0.340850         4
         9         8        16        15     9        0.000000       -1.860286         1
         9         8        16        15     9      180.000000        6.551764         2
         9         8        16        15     9        0.000000       -0.109909         3
         9         8        16        15     9      180.000000       -0.440551         4
         9        10        11        12     9        0.000000       -0.644093         1
         9        10        11        12     9      180.000000       29.876525         2
         9        10        11        12     9        0.000000       -1.098483         3
         9        10        11        12     9      180.000000       -1.727717         4
         9        10        11        37     9        0.000000        0.308596         1
         9        10        11        37     9      180.000000       17.753438         2
         9        10        11        37     9        0.000000        0.220188         3
         9        10        11        37     9      180.000000       -0.557954         4
         9        10        17        18     9        0.000000       -0.296901         1
         9        10        17        18     9      180.000000        4.106793         2
         9        10        17        18     9        0.000000       -0.013500         3
         9        10        17        18     9      180.000000        0.060390         4
         9        10        17        23     9        0.000000       -0.212931         1
         9        10        17        23     9      180.000000        4.144790         2
         9        10        17        23     9        0.000000       -0.075887         3
         9        10        17        23     9      180.000000        0.059890         4
        10         9         8        16     9        0.000000        0.950280         1
        10         9         8        16     9      180.000000       22.114476         2
        10         9         8        16     9        0.000000        0.588585         3
        10         9         8        16     9      180.000000       -0.565663         4
        10        11        12        13     9        0.000000        0.471966         1
        10        11        12        13     9      180.000000        4.973018         2
        10        11        12        13     9        0.000000        0.246173         3
        10        11        12        13     9      180.000000        0.108343         4
        10        11        12        16     9        0.000000       -0.637452         1
        10        11        12        16     9      180.000000        9.281699         2
        10        11        12        16     9        0.000000       -1.036307         3
        10        11        12        16     9      180.000000       -0.051108         4
        10        17        18        19     9        0.000000        0.122076         1
        10        17        18        19     9      180.000000       15.552203         2
        10        17        18        19     9        0.000000       -0.205219         3
        10        17        18        19     9      180.000000       -0.220773         4
        10        17        18        40     9        0.000000       -0.103549         1
        10        17        18        40     9      180.000000       12.445364         2
        10        17        18        40     9        0.000000       -0.208612         3
        10        17        18        40     9      180.000000        0.192747         4
        10        17        23        22     9        0.000000        0.110802         1
        10        17        23        22     9      180.000000       15.723224         2
        10        17        23        22     9        0.000000       -0.205419         3
        10        17        23        22     9      180.000000       -0.347209         4
        10        17        23        45     9        0.000000       -0.159024         1
        10        17        23        45     9      180.000000       12.337894         2
        10        17        23        45     9        0.000000       -0.190753         3
        10        17        23        45     9      180.000000        0.234490         4
        11        10        17        18     9        0.000000       -0.296286         1
        11        10        17        18     9      180.000000        3.348683         2
        11        10        17        18     9        0.000000        0.214109         3
        11        10        17        18     9      180.000000       -0.193050         4
        11        10        17        23     9        0.000000       -0.435477         1
        11        10        17        23     9      180.000000        3.423035         2
        11        10        17        23     9        0.000000        0.215760         3
        11        10        17        23     9      180.000000       -0.186780         4
        11        12        13        14     9        0.000000        0.965502         1
        11        12        13        14     9      180.000000        5.223294         2
        11        12        13        14     9        0.000000        0.739375         3
        11        12        13        14     9      180.000000       -0.040295         4
        11        12        13        38     9        0.000000        0.156545         1
        11        12        13        38     9      180.000000        3.679925         2
        11        12        13        38     9        0.000000        0.374385         3
        11        12        13        38     9      180.000000        0.064056         4
        11        12        16        15     9        0.000000        0.555178         1
        11        12        16        15     9      180.000000        7.752461         2
        11        12        16        15     9        0.000000       -0.729377         3
        11        12        16        15     9      180.000000        0.134979         4
        12        11        10        17     9        0.000000        0.164261         1
        12        11        10        17     9      180.000000       26.713943         2
        12        11        10        17     9        0.000000        0.409458         3
        12        11        10        17     9      180.000000       -1.831120         4
        12        13        14        15     9        0.000000       -0.258793         1
        12        13        14        15     9      180.000000       36.323027         2
        12        13        14        15     9        0.000000       -7.442937         3
        12        13        14        15     9      180.000000       -0.839992         4
        12        13        14        39     9        0.000000        0.279819         1
        12        13        14        39     9      180.000000       18.770133         2
        12        13        14        39     9        0.000000       -0.507968         3
        12        13        14        39     9      180.000000       -0.564047         4
        12        16        15        14     9        0.000000       -0.172777         1
        12        16        15        14     9      180.000000       37.627789         2
        12        16        15        14     9        0.000000       -7.120096         3
        12        16        15        14     9      180.000000        0.116816         4
        13        12        11        37     9        0.000000       -0.211391         1
        13        12        11        37     9      180.000000        3.543757         2
        13        12        11        37     9        0.000000        0.304368         3
        13        12        11        37     9      180.000000        0.067334         4
        13        12        16        15     9        0.000000        0.131710         1
        13        12        16        15     9      180.000000       15.566772         2
        13        12        16        15     9        0.000000       -7.866552         3
        13        12        16        15     9      180.000000        0.257373         4
        13        14        15        16     9        0.000000       -0.255849         1
        13        14        15        16     9      180.000000       31.025341         2
        13        14        15        16     9        0.000000       -4.653101         3
        13        14        15        16     9      180.000000        0.341646         4
        14        13        12        16     9        0.000000        0.086044         1
        14        13        12        16     9      180.000000       25.283693         2
        14        13        12        16     9        0.000000       -9.272059         3
        14        13        12        16     9      180.000000        0.296509         4
        15        14        13        38     9        0.000000        0.292780         1
        15        14        13        38     9      180.000000       15.681647         2
        15        14        13        38     9        0.000000       -0.422048         3
        15        14        13        38     9      180.000000       -0.479005         4
        16         8         7        36     9        0.000000        3.047131         1
        16         8         7        36     9      180.000000        7.216451         2
        16         8         7        36     9        0.000000       -0.156869         3
        16         8         7        36     9      180.000000        0.486791         4
        16        12        11        37     9        0.000000        0.560809         1
        16        12        11        37     9      180.000000        4.562283         2
        16        12        11        37     9        0.000000        0.396933         3
        16        12        11        37     9      180.000000        0.102239         4
        16        12        13        38     9        0.000000        1.026521         1
        16        12        13        38     9      180.000000        6.099846         2
        16        12        13        38     9        0.000000        0.349087         3
        16        12        13        38     9      180.000000        0.232409         4
        16        15        14        39     9        0.000000        2.009587         1
        16        15        14        39     9      180.000000       22.682230         2
        16        15        14        39     9        0.000000        0.566970         3
        16        15        14        39     9      180.000000       -0.265560         4
        17        10        11        37     9        0.000000       -0.044875         1
        17        10        11        37     9      180.000000       15.039520         2
        17        10        11        37     9        0.000000        0.308689         3
        17        10        11        37     9      180.000000       -0.037524         4
        17        18        19        20     9        0.000000       -0.059289         1
        17        18        19        20     9      180.000000       18.632242         2
        17        18        19        20     9        0.000000       -1.594218         3
        17        18        19        20     9      180.000000       -0.490496         4
        17        18        19        41     9        0.000000       -0.106592         1
        17        18        19        41     9      180.000000       14.918184         2
        17        18        19        41     9        0.000000       -0.534101         3
        17        18        19        41     9      180.000000        0.055096         4
        17        23        22        20     9        0.000000       -0.137258         1
        17        23        22        20     9      180.000000       18.392052         2
        17        23        22        20     9        0.000000       -1.489812         3
        17        23        22        20     9      180.000000       -0.412970         4
        17        23        22        24     9        0.000000        0.181039         1
        17        23        22        24     9      180.000000       14.778267         2
        17        23        22        24     9        0.000000       -0.160954         3
        17        23        22        24     9      180.000000       -0.327712         4
        18        17        23        22     9        0.000000       -0.142486         1
        18        17        23        22     9      180.000000       18.077253         2
        18        17        23        22     9        0.000000       -1.488450         3
        18        17        23        22     9      180.000000       -0.327603         4
        18        17        23        45     9        0.000000       -0.092704         1
        18        17        23        45     9      180.000000       13.983858         2
        18        17        23        45     9        0.000000       -0.579305         3
        18        17        23        45     9      180.000000        0.087376         4
        18        19        20        21     9        0.000000        0.083836         1
        18        19        20        21     9      180.000000       16.680856         2
        18        19        20        21     9        0.000000       -0.220483         3
        18        19        20        21     9      180.000000       -0.227507         4
        18        19        20        22     9        0.000000        0.166997         1
        18        19        20        22     9      180.000000       18.878803         2
        18        19        20        22     9        0.000000       -1.185252         3
        18        19        20        22     9      180.000000       -0.445753         4
        19        18        17        23     9        0.000000       -0.120050         1
        19        18        17        23     9      180.000000       18.050423         2
        19        18        17        23     9        0.000000       -1.402597         3
        19        18        17        23     9      180.000000       -0.334000         4
        19        20        21        42     9        0.000000       -0.026293         1
        19        20        21        42     9      180.000000        0.030267         2
        19        20        21        42     9        0.000000        0.019658         3
        19        20        21        42     9      180.000000        0.009911         4
        19        20        21        43     9        0.000000       -0.026293         1
        19        20        21        43     9      180.000000        0.030267         2
        19        20        21        43     9        0.000000        0.019658         3
        19        20        21        43     9      180.000000        0.009911         4
        19        20        21        44     9        0.000000       -0.026293         1
        19        20        21        44     9      180.000000        0.030267         2
        19        20        21        44     9        0.000000        0.019658         3
        19        20        21        44     9      180.000000        0.009911         4
        19        20        22        23     9        0.000000       -0.049811         1
        19        20        22        23     9      180.000000       18.448477         2
        19        20        22        23     9        0.000000       -0.983780         3
        19        20        22        23     9      180.000000       -0.550953         4
        19        20        22        24     9        0.000000        0.321781         1
        19        20        22        24     9      180.000000       14.300360         2
        19        20        22        24     9        0.000000        0.025185         3
        19        20        22        24     9      180.000000       -0.402825         4
        20        19        18        40     9        0.000000        0.007819         1
        20        19        18        40     9      180.000000       14.631905         2
        20        19        18        40     9        0.000000       -0.617171         3
        20        19        18        40     9      180.000000        0.100171         4
        20        22        23        45     9        0.000000       -0.009088         1
        20        22        23        45     9      180.000000       14.445281         2
        20        22        23        45     9        0.000000       -0.637453         3
        20        22        23        45     9      180.000000        0.070052         4
        20        22        24        25     9        0.000000       -1.990086         1
        20        22        24        25     9      180.000000        2.715509         2
        20        22        24        25     9        0.000000       -0.327201         3
        20        22        24        25     9      180.000000        0.056987         4
        20        22        24        26     9        0.000000        0.179419         1
        20        22        24        26     9      180.000000        2.101071         2
        20        22        24        26     9        0.000000       -0.328484         3
        20        22        24        26     9      180.000000       -0.088489         4
        21        20        19        41     9        0.000000       -0.170142         1
        21        20        19        41     9      180.000000       13.245332         2
        21        20        19        41     9        0.000000       -0.412808         3
        21        20        19        41     9      180.000000        0.287965         4
        21        20        22        23     9        0.000000        0.004236         1
        21        20        22        23     9      180.000000       15.112265         2
        21        20        22        23     9        0.000000       -0.041696         3
        21        20        22        23     9      180.000000       -0.355918         4
        21        20        22        24     9        0.000000        0.085446         1
        21        20        22        24     9      180.000000       13.697601         2
        21        20        22        24     9        0.000000        0.134349         3
        21        20        22        24     9      180.000000       -0.485358         4
        22        20        19        41     9        0.000000       -0.038739         1
        22        20        19        41     9      180.000000       14.604444         2
        22        20        19        41     9        0.000000       -0.319749         3
        22        20        19        41     9      180.000000        0.076172         4
        22        20        21        42     9        0.000000       -0.030463         1
        22        20        21        42     9      180.000000       -0.002329         2
        22        20        21        42     9        0.000000        0.073322         3
        22        20        21        42     9      180.000000        0.020688         4
        22        20        21        43     9        0.000000       -0.030463         1
        22        20        21        43     9      180.000000       -0.002329         2
        22        20        21        43     9        0.000000        0.073322         3
        22        20        21        43     9      180.000000        0.020688         4
        22        20        21        44     9        0.000000       -0.030463         1
        22        20        21        44     9      180.000000       -0.002329         2
        22        20        21        44     9        0.000000        0.073322         3
        22        20        21        44     9      180.000000        0.020688         4
        22        24        26        46     9        0.000000       -0.851073         1
        22        24        26        46     9      180.000000        9.113989         2
        22        24        26        46     9        0.000000        0.703479         3
        22        24        26        46     9      180.000000       -1.376588         4
        22        24        26        47     9        0.000000       -0.851073         1
        22        24        26        47     9      180.000000        9.113989         2
        22        24        26        47     9        0.000000        0.703479         3
        22        24        26        47     9      180.000000       -1.376588         4
        23        17        18        40     9        0.000000       -0.141954         1
        23        17        18        40     9      180.000000       13.861214         2
        23        17        18        40     9        0.000000       -0.678134         3
        23        17        18        40     9      180.000000        0.081203         4
        23        22        24        25     9        0.000000        1.162909         1
        23        22        24        25     9      180.000000        2.906444         2
        23        22        24        25     9        0.000000        0.204518         3
        23        22        24        25     9      180.000000       -0.007825         4
        23        22        24        26     9        0.000000        0.777711         1
        23        22        24        26     9      180.000000        2.377624         2
        23        22        24        26     9        0.000000        0.702241         3
        23        22        24        26     9      180.000000       -0.346763         4
        24        22        23        45     9        0.000000       -0.008434         1
        24        22        23        45     9      180.000000       12.797308         2
        24        22        23        45     9        0.000000       -0.295270         3
        24        22        23        45     9      180.000000        0.199114         4
        25        24        26        46     9        0.000000        1.302099         1
        25        24        26        46     9      180.000000       11.241824         2
        25        24        26        46     9        0.000000       -0.069868         3
        25        24        26        46     9      180.000000       -0.826834         4
        25        24        26        47     9        0.000000        1.302099         1
        25        24        26        47     9      180.000000       11.241824         2
        25        24        26        47     9        0.000000       -0.069868         3
        25        24        26        47     9      180.000000       -0.826834         4
        27         6         5        35     9        0.000000        0.074273         1
        27         6         5        35     9      180.000000       12.990241         2
        27         6         5        35     9        0.000000       -0.520768         3
        27         6         5        35     9      180.000000        0.132469         4
        27         6         7        36     9        0.000000        1.575093         1
        27         6         7        36     9      180.000000        3.198189         2
        27         6         7        36     9        0.000000        0.467524         3
        27         6         7        36     9      180.000000        0.863764         4
        27        28        29        30     9        0.000000        0.123069         1
        27        28        29        30     9      180.000000        4.737590         2
        27        28        29        30     9        0.000000       -0.815850         3
        27        28        29        30     9      180.000000        0.427563         4
        28         3         4        34     9        0.000000        0.222424         1
        28         3         4        34     9      180.000000       12.890975         2
        28         3         4        34     9        0.000000       -0.414499         3
        28         3         4        34     9      180.000000        0.189834         4
        28        29        30        49     9        0.000000       -0.006341         1
        28        29        30        49     9      180.000000       -0.005041         2
        28        29        30        49     9        0.000000        0.433370         3
        28        29        30        49     9      180.000000       -0.009039         4
        28        29        30        50     9        0.000000       -0.006341         1
        28        29        30        50     9      180.000000       -0.005041         2
        28        29        30        50     9        0.000000        0.433370         3
        28        29        30        50     9      180.000000       -0.009039         4
        28        29        30        51     9        0.000000       -0.006341         1
        28        29        30        51     9      180.000000       -0.005041         2
        28        29        30        51     9        0.000000        0.433370         3
        28        29        30        51     9      180.000000       -0.009039         4
        29        28        27        48     9        0.000000        0.102563         1
        29        28        27        48     9      180.000000       13.836839         2
        29        28        27        48     9        0.000000       -0.050823         3
        29        28        27        48     9      180.000000        0.307531         4
        34         4         5        35     9        0.000000       -0.192420         1
        34         4         5        35     9      180.000000       11.734676         2
        34         4         5        35     9        0.000000       -0.700233         3
        34         4         5        35     9      180.000000        0.222006         4
        38        13        14        39     9        0.000000       -0.357707         1
        38        13        14        39     9      180.000000        9.061502         2
        38        13        14        39     9        0.000000       -0.277918         3
        38        13        14        39     9      180.000000        0.193706         4
        40        18        19        41     9        0.000000       -0.185856         1
        40        18        19        41     9      180.000000       12.046714         2
        40        18        19        41     9        0.000000       -0.741503         3
        40        18        19        41     9      180.000000        0.360935         4

[ dihedrals ] ; impropers
;       ai        aj        ak        al funct           phase               k        pn
        24        22        25        26     4      180.000000       13.426234         2
        24        25        26        22     4      180.000000       13.426234         2
        24        26        22        25     4      180.000000       13.426234         2

[ pairs ]
;       ai        aj funct
         1         4     1
         1        28     1
         2         5     1
         2        27     1
         2        29     1
         2        34     1
         3         6     1
         3        30     1
         3        31     1
         3        32     1
         3        33     1
         3        35     1
         3        48     1
         4         7     1
         4        27     1
         4        29     1
         5         8     1
         5        28     1
         5        36     1
         5        48     1
         6         9     1
         6        16     1
         6        29     1
         6        34     1
         7        10     1
         7        12     1
         7        15     1
         7        28     1
         7        35     1
         7        48     1
         8        11     1
         8        13     1
         8        14     1
         8        17     1
         8        27     1
         9        12     1
         9        15     1
         9        18     1
         9        23     1
         9        36     1
         9        37     1
        10        13     1
        10        16     1
        10        19     1
        10        22     1
        10        40     1
        10        45     1
        11        14     1
        11        15     1
        11        18     1
        11        23     1
        11        38     1
        12        17     1
        12        39     1
        13        37     1
        15        38     1
        16        36     1
        16        37     1
        16        38     1
        16        39     1
        17        20     1
        17        24     1
        17        37     1
        17        41     1
        18        21     1
        18        22     1
        18        45     1
        19        23     1
        19        24     1
        19        42     1
        19        43     1
        19        44     1
        20        25     1
        20        26     1
        20        40     1
        20        45     1
        21        23     1
        21        24     1
        21        41     1
        22        41     1
        22        42     1
        22        43     1
        22        44     1
        22        46     1
        22        47     1
        23        25     1
        23        26     1
        23        40     1
        24        45     1
        25        46     1
        25        47     1
        27        30     1
        27        35     1
        27        36     1
        28        34     1
        28        49     1
        28        50     1
        28        51     1
        29        48     1
        34        35     1
        38        39     1
        40        41     1
