; ITP file created by ByteFF-ML, 2026-02-21 07:48:42.650571

[ atomtypes ]
;name           bonded.type        at.num        mass        charge   ptype           sigma         epsilon
 c0bf                                   6      0.0000       0.00000       A     3.39799e-01     4.50095e-01
 o1bf                                   8      0.0000       0.00000       A     3.15802e-01     3.03422e-01
 c2bf                                   6      0.0000       0.00000       A     3.31494e-01     4.13273e-01
 c3bf                                   6      0.0000       0.00000       A     3.31460e-01     4.13344e-01
 c4bf                                   6      0.0000       0.00000       A     3.31371e-01     4.12570e-01
 c5bf                                   6      0.0000       0.00000       A     3.31310e-01     4.12073e-01
 n6bf                                   7      0.0000       0.00000       A     3.27838e-01     6.48901e-01
 c7bf                                   6      0.0000       0.00000       A     3.31293e-01     4.14462e-01
 n8bf                                   7      0.0000       0.00000       A     3.38681e-01     3.94194e-01
 c9bf                                   6      0.0000       0.00000       A     3.31466e-01     4.10308e-01
 c10bf                                  6      0.0000       0.00000       A     3.31502e-01     4.12996e-01
 n11bf                                  7      0.0000       0.00000       A     3.20544e-01     8.50304e-01
 c12bf                                  6      0.0000       0.00000       A     3.31513e-01     4.11963e-01
 c13bf                                  6      0.0000       0.00000       A     3.31488e-01     4.12482e-01
 n14bf                                  7      0.0000       0.00000       A     3.38571e-01     3.94678e-01
 c15bf                                  6      0.0000       0.00000       A     3.31524e-01     4.13157e-01
 c16bf                                  6      0.0000       0.00000       A     3.31327e-01     4.12479e-01
 c17bf                                  6      0.0000       0.00000       A     3.31449e-01     4.12293e-01
 c18bf                                  6      0.0000       0.00000       A     3.31529e-01     4.13917e-01
 c19bf                                  6      0.0000       0.00000       A     3.31488e-01     4.13084e-01
 c20bf                                  6      0.0000       0.00000       A     3.31409e-01     4.13987e-01
 c21bf                                  6      0.0000       0.00000       A     3.31544e-01     4.15012e-01
 c22bf                                  6      0.0000       0.00000       A     3.31400e-01     4.13420e-01
 o23bf                                  8      0.0000       0.00000       A     3.04652e-01     6.12749e-01
 n24bf                                  7      0.0000       0.00000       A     3.27071e-01     4.89574e-01
 c25bf                                  6      0.0000       0.00000       A     3.31412e-01     4.13182e-01
 c26bf                                  6      0.0000       0.00000       A     3.31506e-01     4.12105e-01
 c27bf                                  6      0.0000       0.00000       A     3.31479e-01     4.13317e-01
 c28bf                                  6      0.0000       0.00000       A     3.31385e-01     4.14260e-01
 c29bf                                  6      0.0000       0.00000       A     3.31479e-01     4.13317e-01
 c30bf                                  6      0.0000       0.00000       A     3.31506e-01     4.12105e-01
 c31bf                                  6      0.0000       0.00000       A     3.31489e-01     4.12306e-01
 n32bf                                  7      0.0000       0.00000       A     3.38536e-01     3.92323e-01
 c33bf                                  6      0.0000       0.00000       A     3.31491e-01     4.12172e-01
 c34bf                                  6      0.0000       0.00000       A     3.31437e-01     4.12375e-01
 n35bf                                  7      0.0000       0.00000       A     3.20372e-01     8.50367e-01
 c36bf                                  6      0.0000       0.00000       A     3.31426e-01     4.12512e-01
 c37bf                                  6      0.0000       0.00000       A     3.31334e-01     4.12096e-01
 o38bf                                  8      0.0000       0.00000       A     3.15839e-01     3.04251e-01
 c39bf                                  6      0.0000       0.00000       A     3.39799e-01     4.50095e-01
 h40bf                                  1      0.0000       0.00000       A     2.42080e-01     8.75859e-02
 h41bf                                  1      0.0000       0.00000       A     2.42080e-01     8.75859e-02
 h42bf                                  1      0.0000       0.00000       A     2.42080e-01     8.75859e-02
 h43bf                                  1      0.0000       0.00000       A     2.62545e-01     6.69663e-02
 h44bf                                  1      0.0000       0.00000       A     2.62478e-01     6.76031e-02
 h45bf                                  1      0.0000       0.00000       A     1.10437e-01     4.36637e-02
 h46bf                                  1      0.0000       0.00000       A     2.53936e-01     6.71690e-02
 h47bf                                  1      0.0000       0.00000       A     2.54157e-01     6.73717e-02
 h48bf                                  1      0.0000       0.00000       A     2.53844e-01     6.71387e-02
 h49bf                                  1      0.0000       0.00000       A     2.62488e-01     6.75042e-02
 h50bf                                  1      0.0000       0.00000       A     2.62513e-01     6.76542e-02
 h51bf                                  1      0.0000       0.00000       A     2.62499e-01     6.70748e-02
 h52bf                                  1      0.0000       0.00000       A     2.62516e-01     6.75728e-02
 h53bf                                  1      0.0000       0.00000       A     1.10552e-01     4.15186e-02
 h54bf                                  1      0.0000       0.00000       A     2.62607e-01     6.75951e-02
 h55bf                                  1      0.0000       0.00000       A     2.62631e-01     6.78154e-02
 h56bf                                  1      0.0000       0.00000       A     2.62631e-01     6.78154e-02
 h57bf                                  1      0.0000       0.00000       A     2.62607e-01     6.75951e-02
 h58bf                                  1      0.0000       0.00000       A     2.53931e-01     6.72057e-02
 h59bf                                  1      0.0000       0.00000       A     2.53896e-01     6.78553e-02
 h60bf                                  1      0.0000       0.00000       A     1.10979e-01     4.01683e-02
 h61bf                                  1      0.0000       0.00000       A     2.62385e-01     6.71291e-02
 h62bf                                  1      0.0000       0.00000       A     2.42080e-01     8.75859e-02
 h63bf                                  1      0.0000       0.00000       A     2.42080e-01     8.75859e-02
 h64bf                                  1      0.0000       0.00000       A     2.42080e-01     8.75859e-02

[ moleculetype ]
;name             nrexcl
 CHEMBL3265002         3

[ atoms ]
;       nr            type      resi   res      atom      cgnr      charge          mass ; qtot
         1            c0bf         1   UNL        c0         1     0.14145       12.0110 ; qtot    0.141
         2            o1bf         1   UNL        o1         2    -0.33647       15.9990 ; qtot   -0.195
         3            c2bf         1   UNL        c2         3     0.08002       12.0110 ; qtot   -0.115
         4            c3bf         1   UNL        c3         4    -0.13937       12.0110 ; qtot   -0.254
         5            c4bf         1   UNL        c4         5    -0.13475       12.0110 ; qtot   -0.389
         6            c5bf         1   UNL        c5         6     0.30239       12.0110 ; qtot   -0.087
         7            n6bf         1   UNL        n6         7    -0.91203       14.0070 ; qtot   -0.999
         8            c7bf         1   UNL        c7         8     0.67905       12.0110 ; qtot   -0.320
         9            n8bf         1   UNL        n8         9    -0.75823       14.0070 ; qtot   -1.078
        10            c9bf         1   UNL        c9        10     0.38739       12.0110 ; qtot   -0.691
        11           c10bf         1   UNL       c10        11    -0.18080       12.0110 ; qtot   -0.871
        12           n11bf         1   UNL       n11        12     0.16114       14.0070 ; qtot   -0.710
        13           c12bf         1   UNL       c12        13    -0.26112       12.0110 ; qtot   -0.971
        14           c13bf         1   UNL       c13        14    -0.04248       12.0110 ; qtot   -1.014
        15           n14bf         1   UNL       n14        15    -0.27126       14.0070 ; qtot   -1.285
        16           c15bf         1   UNL       c15        16    -0.16948       12.0110 ; qtot   -1.455
        17           c16bf         1   UNL       c16        17    -0.13091       12.0110 ; qtot   -1.585
        18           c17bf         1   UNL       c17        18    -0.06706       12.0110 ; qtot   -1.653
        19           c18bf         1   UNL       c18        19    -0.12433       12.0110 ; qtot   -1.777
        20           c19bf         1   UNL       c19        20    -0.05966       12.0110 ; qtot   -1.837
        21           c20bf         1   UNL       c20        21    -0.15749       12.0110 ; qtot   -1.994
        22           c21bf         1   UNL       c21        22    -0.02993       12.0110 ; qtot   -2.024
        23           c22bf         1   UNL       c22        23     0.62255       12.0110 ; qtot   -1.401
        24           o23bf         1   UNL       o23        24    -0.57926       15.9990 ; qtot   -1.981
        25           n24bf         1   UNL       n24        25    -0.15220       14.0070 ; qtot   -2.133
        26           c25bf         1   UNL       c25        26     0.00213       12.0110 ; qtot   -2.131
        27           c26bf         1   UNL       c26        27    -0.15716       12.0110 ; qtot   -2.288
        28           c27bf         1   UNL       c27        28    -0.05863       12.0110 ; qtot   -2.347
        29           c28bf         1   UNL       c28        29    -0.15914       12.0110 ; qtot   -2.506
        30           c29bf         1   UNL       c29        30    -0.05863       12.0110 ; qtot   -2.564
        31           c30bf         1   UNL       c30        31    -0.15716       12.0110 ; qtot   -2.721
        32           c31bf         1   UNL       c31        32     0.46467       12.0110 ; qtot   -2.257
        33           n32bf         1   UNL       n32        33    -0.67491       14.0070 ; qtot   -2.932
        34           c33bf         1   UNL       c33        34     0.22872       12.0110 ; qtot   -2.703
        35           c34bf         1   UNL       c34        35    -0.21308       12.0110 ; qtot   -2.916
        36           n35bf         1   UNL       n35        36    -0.31359       14.0070 ; qtot   -3.230
        37           c36bf         1   UNL       c36        37    -0.18949       12.0110 ; qtot   -3.419
        38           c37bf         1   UNL       c37        38     0.11411       12.0110 ; qtot   -3.305
        39           o38bf         1   UNL       o38        39    -0.33842       15.9990 ; qtot   -3.643
        40           c39bf         1   UNL       c39        40     0.14175       12.0110 ; qtot   -3.502
        41           h40bf         1   UNL       h40        41     0.04404        1.0080 ; qtot   -3.458
        42           h41bf         1   UNL       h41        42     0.04404        1.0080 ; qtot   -3.414
        43           h42bf         1   UNL       h42        43     0.04404        1.0080 ; qtot   -3.370
        44           h43bf         1   UNL       h43        44     0.12393        1.0080 ; qtot   -3.246
        45           h44bf         1   UNL       h44        45     0.13132        1.0080 ; qtot   -3.114
        46           h45bf         1   UNL       h45        46     0.50588        1.0080 ; qtot   -2.608
        47           h46bf         1   UNL       h46        47     0.15431        1.0080 ; qtot   -2.454
        48           h47bf         1   UNL       h47        48     0.22767        1.0080 ; qtot   -2.226
        49           h48bf         1   UNL       h48        49     0.22246        1.0080 ; qtot   -2.004
        50           h49bf         1   UNL       h49        50     0.12393        1.0080 ; qtot   -1.880
        51           h50bf         1   UNL       h50        51     0.12077        1.0080 ; qtot   -1.759
        52           h51bf         1   UNL       h51        52     0.12793        1.0080 ; qtot   -1.631
        53           h52bf         1   UNL       h52        53     0.13666        1.0080 ; qtot   -1.495
        54           h53bf         1   UNL       h53        54     0.15521        1.0080 ; qtot   -1.339
        55           h54bf         1   UNL       h54        55     0.13574        1.0080 ; qtot   -1.204
        56           h55bf         1   UNL       h55        56     0.12821        1.0080 ; qtot   -1.076
        57           h56bf         1   UNL       h56        57     0.12821        1.0080 ; qtot   -0.947
        58           h57bf         1   UNL       h57        58     0.13574        1.0080 ; qtot   -0.812
        59           h58bf         1   UNL       h58        59     0.03904        1.0080 ; qtot   -0.773
        60           h59bf         1   UNL       h59        60     0.15802        1.0080 ; qtot   -0.615
        61           h60bf         1   UNL       h60        61     0.35033        1.0080 ; qtot   -0.264
        62           h61bf         1   UNL       h61        62     0.13212        1.0080 ; qtot   -0.132
        63           h62bf         1   UNL       h62        63     0.04404        1.0080 ; qtot   -0.088
        64           h63bf         1   UNL       h63        64     0.04404        1.0080 ; qtot   -0.044
        65           h64bf         1   UNL       h64        65     0.04399        1.0080 ; qtot   -0.000

[ bonds ]
;       ai        aj funct               r               k
         1         2     1        0.142750   205228.532593
         1        41     1        0.109386   299034.341211
         1        42     1        0.109386   299034.341211
         1        43     1        0.109386   299034.341211
         2         3     1        0.137015   270782.126367
         3         4     1        0.139488   304008.306152
         3        38     1        0.141529   250914.434033
         4         5     1        0.140005   315466.577295
         4        44     1        0.108446   322299.133057
         5         6     1        0.140061   293503.054395
         5        45     1        0.108414   324178.051416
         6         7     1        0.141092   252182.734570
         6        37     1        0.140674   282765.542627
         7         8     1        0.136729   311607.766846
         7        46     1        0.101302   413497.819873
         8         9     1        0.132079   353344.852295
         8        16     1        0.143870   235848.075781
         9        10     1        0.137702   243451.443652
        10        11     1        0.137534   346710.106982
        10        17     1        0.148326   208877.210938
        11        12     1        0.137841   276178.679395
        11        47     1        0.108180   332005.354199
        12        13     1        0.137750   263209.071045
        12        16     1        0.138998   204565.831836
        13        14     1        0.138746   337814.101709
        13        48     1        0.107915   345078.260156
        14        15     1        0.136744   275913.399902
        14        49     1        0.108260   332273.212939
        15        16     1        0.133378   321390.292871
        17        18     1        0.140513   288215.978955
        17        22     1        0.140241   290040.222363
        18        19     1        0.139594   317089.639355
        18        50     1        0.108514   321359.086523
        19        20     1        0.139620   314663.869336
        19        51     1        0.108609   320221.791357
        20        21     1        0.140351   292927.524561
        20        52     1        0.108519   322051.499707
        21        22     1        0.140060   296553.998389
        21        23     1        0.150346   173180.954248
        22        53     1        0.108450   322961.540137
        23        24     1        0.123099   599049.818164
        23        25     1        0.137774   260679.799121
        25        26     1        0.140868   246791.288965
        25        54     1        0.101060   420963.925781
        26        27     1        0.140672   281013.543701
        26        31     1        0.140672   281013.543701
        27        28     1        0.139090   334502.832422
        27        55     1        0.108407   324893.473535
        28        29     1        0.140535   288132.549219
        28        56     1        0.108516   321515.118262
        29        30     1        0.140535   288132.549219
        29        32     1        0.146360   230851.229590
        30        31     1        0.139090   334502.832422
        30        57     1        0.108516   321515.118262
        31        58     1        0.108407   324893.447998
        32        33     1        0.132808   339706.605811
        32        36     1        0.137617   267079.705176
        33        34     1        0.137426   261047.431348
        34        35     1        0.138038   357195.516406
        34        59     1        0.108193   334670.023877
        35        36     1        0.138024   289188.917285
        35        60     1        0.107996   342672.511230
        36        61     1        0.101025   431523.520508
        37        38     1        0.139409   309212.462598
        37        62     1        0.108244   326136.952002
        38        39     1        0.136800   272579.836719
        39        40     1        0.142754   205101.332251
        40        63     1        0.109386   299034.341211
        40        64     1        0.109386   299034.341211
        40        65     1        0.109386   299034.341211

[ angles ]
;       ai        aj        ak funct           theta             cth
         1         2         3     1      117.082443      547.136590
         2         1        41     1      109.406631      448.806110
         2         1        42     1      109.406631      448.806110
         2         1        43     1      109.406631      448.806110
         2         3         4     1      124.061974      526.185244
         2         3        38     1      116.730186      403.093057
         3         4         5     1      121.105545      730.301061
         3         4        44     1      119.820435      430.270000
         3        38        37     1      119.959702      641.355181
         3        38        39     1      116.770729      382.344538
         4         3        38     1      118.961632      615.309053
         4         5         6     1      119.989258      692.295585
         4         5        45     1      119.981018      402.478953
         5         4        44     1      119.168861      430.731806
         5         6         7     1      121.161964      571.797075
         5         6        37     1      119.274185      562.540766
         6         5        45     1      119.993568      438.163871
         6         7         8     1      130.908600      390.906748
         6         7        46     1      115.466995      445.927919
         6        37        38     1      120.440453      771.725955
         6        37        62     1      119.557449      428.763885
         7         6        37     1      119.328491      531.273608
         7         8         9     1      121.356186      603.895561
         7         8        16     1      116.105576      347.689596
         8         7        46     1      112.198647      485.186500
         8         9        10     1      119.723656      660.395075
         8        16        12     1      117.476013      691.884629
         8        16        15     1      131.168365      328.267219
         9         8        16     1      121.162231      641.675097
         9        10        11     1      122.073318      386.369761
         9        10        17     1      116.210670      496.142431
        10        11        12     1      118.140015      872.310564
        10        11        47     1      124.923782      345.661438
        10        17        18     1      120.875320      534.916477
        10        17        22     1      120.648254      468.353587
        11        10        17     1      121.389755      451.340573
        11        12        13     1      132.322876      451.336998
        11        12        16     1      121.408890      768.949752
        12        11        47     1      117.425148      489.799204
        12        13        14     1      105.222733      375.667031
        12        13        48     1      122.391075      461.871917
        12        16        15     1      111.412987      167.360000
        13        12        16     1      106.439148      167.360000
        13        14        15     1      111.710037      296.607652
        13        14        49     1      126.932030      353.254706
        14        13        48     1      132.665771      296.979121
        14        15        16     1      105.148094      501.387338
        15        14        49     1      121.224686      373.698727
        17        18        19     1      120.426010      693.452544
        17        18        50     1      119.651489      426.259013
        17        22        21     1      120.851807      667.680876
        17        22        53     1      119.534767      416.613105
        18        17        22     1      118.808350      642.855997
        18        19        20     1      120.318016      731.884744
        18        19        51     1      119.819260      444.895006
        19        18        50     1      119.993385      420.392246
        19        20        21     1      119.889915      674.343253
        19        20        52     1      120.301353      417.496146
        20        19        51     1      119.938904      443.962487
        20        21        22     1      119.431374      670.343631
        20        21        23     1      120.498398      547.227886
        21        20        52     1      119.833374      412.181810
        21        22        53     1      119.418259      406.895181
        21        23        24     1      121.422562      648.057651
        21        23        25     1      114.767807      460.182861
        22        21        23     1      119.579239      508.084987
        23        25        26     1      129.315948      478.706810
        23        25        54     1      116.096329      428.413164
        24        23        25     1      123.664795      582.724595
        25        26        27     1      120.334946      612.030024
        25        26        31     1      120.334946      612.030024
        26        25        54     1      114.645950      456.341824
        26        27        28     1      120.017776      735.815352
        26        27        55     1      119.792435      453.454215
        26        31        30     1      120.017776      735.815352
        26        31        58     1      119.792435      453.454215
        27        26        31     1      119.082657      439.178429
        27        28        29     1      121.285629      671.993647
        27        28        56     1      119.137901      419.629803
        28        27        55     1      120.071327      405.420413
        28        29        30     1      117.955078      536.412984
        28        29        32     1      120.972183      560.538210
        29        28        56     1      119.626541      434.824192
        29        30        31     1      121.285629      671.993647
        29        30        57     1      119.626541      434.824192
        29        32        33     1      125.546913      435.768363
        29        32        36     1      124.449547      511.354759
        30        29        32     1      120.972183      560.538210
        30        31        58     1      120.071327      405.420413
        31        30        57     1      119.137901      419.629803
        32        33        34     1      106.279953      431.238463
        32        36        35     1      107.990822      167.360000
        32        36        61     1      126.482910      324.979827
        33        32        36     1      110.222939      167.360000
        33        34        35     1      110.548119      251.583254
        33        34        59     1      121.457657      364.440279
        34        35        36     1      105.197891      197.648464
        34        35        60     1      132.634338      308.946672
        35        34        59     1      128.141708      363.421700
        35        36        61     1      125.653030      402.856743
        36        35        60     1      122.364456      458.592505
        37        38        39     1      123.114540      463.233907
        38        37        62     1      120.054489      415.811750
        38        39        40     1      117.278854      548.766496
        39        40        63     1      109.407082      448.359626
        39        40        64     1      109.407082      448.359626
        39        40        65     1      109.407082      448.359626
        41         1        42     1      109.654236      343.283167
        41         1        43     1      109.654236      343.283167
        42         1        43     1      109.654236      343.283167
        63        40        64     1      109.654236      343.283167
        63        40        65     1      109.654236      343.283167
        64        40        65     1      109.654236      343.283167

[ dihedrals ] ; propers for gromacs 4.5 or higher, use funct 9
;       ai        aj        ak        al funct           phase               k        pn
         1         2         3         4     9        0.000000       -0.020471         1
         1         2         3         4     9      180.000000        4.264586         2
         1         2         3         4     9        0.000000       -0.661221         3
         1         2         3         4     9      180.000000        0.423659         4
         1         2         3        38     9        0.000000        0.687109         1
         1         2         3        38     9      180.000000        3.031873         2
         1         2         3        38     9        0.000000        1.138396         3
         1         2         3        38     9      180.000000        0.057396         4
         2         3         4         5     9        0.000000        0.412383         1
         2         3         4         5     9      180.000000       18.405157         2
         2         3         4         5     9        0.000000        0.286762         3
         2         3         4         5     9      180.000000       -0.248270         4
         2         3         4        44     9        0.000000        0.002516         1
         2         3         4        44     9      180.000000       13.550906         2
         2         3         4        44     9        0.000000       -0.035816         3
         2         3         4        44     9      180.000000        0.307723         4
         2         3        38        37     9        0.000000        0.190228         1
         2         3        38        37     9      180.000000       12.913658         2
         2         3        38        37     9        0.000000       -0.036672         3
         2         3        38        37     9      180.000000        0.087434         4
         2         3        38        39     9        0.000000       -0.231151         1
         2         3        38        39     9      180.000000       16.200532         2
         2         3        38        39     9        0.000000       -0.225092         3
         2         3        38        39     9      180.000000       -0.129586         4
         3         2         1        41     9        0.000000       -0.002785         1
         3         2         1        41     9      180.000000       -0.013204         2
         3         2         1        41     9        0.000000        0.475746         3
         3         2         1        41     9      180.000000       -0.002909         4
         3         2         1        42     9        0.000000       -0.002785         1
         3         2         1        42     9      180.000000       -0.013204         2
         3         2         1        42     9        0.000000        0.475746         3
         3         2         1        42     9      180.000000       -0.002909         4
         3         2         1        43     9        0.000000       -0.002785         1
         3         2         1        43     9      180.000000       -0.013204         2
         3         2         1        43     9        0.000000        0.475746         3
         3         2         1        43     9      180.000000       -0.002909         4
         3         4         5         6     9        0.000000       -0.173496         1
         3         4         5         6     9      180.000000       17.663552         2
         3         4         5         6     9        0.000000       -1.660356         3
         3         4         5         6     9      180.000000       -0.412935         4
         3         4         5        45     9        0.000000        0.149237         1
         3         4         5        45     9      180.000000       14.141559         2
         3         4         5        45     9        0.000000       -0.494779         3
         3         4         5        45     9      180.000000        0.094378         4
         3        38        37         6     9        0.000000       -0.132618         1
         3        38        37         6     9      180.000000       16.584041         2
         3        38        37         6     9        0.000000       -1.316973         3
         3        38        37         6     9      180.000000       -0.328534         4
         3        38        37        62     9        0.000000        0.166400         1
         3        38        37        62     9      180.000000       12.784531         2
         3        38        37        62     9        0.000000       -0.336160         3
         3        38        37        62     9      180.000000        0.291888         4
         3        38        39        40     9        0.000000        0.802290         1
         3        38        39        40     9      180.000000        3.527079         2
         3        38        39        40     9        0.000000        1.195050         3
         3        38        39        40     9      180.000000        0.043134         4
         4         3        38        37     9        0.000000        0.246300         1
         4         3        38        37     9      180.000000       12.038171         2
         4         3        38        37     9        0.000000       -0.447743         3
         4         3        38        37     9      180.000000       -0.093296         4
         4         3        38        39     9        0.000000        0.312921         1
         4         3        38        39     9      180.000000       12.963699         2
         4         3        38        39     9        0.000000       -0.020336         3
         4         3        38        39     9      180.000000        0.087698         4
         4         5         6         7     9        0.000000        0.132129         1
         4         5         6         7     9      180.000000       17.832522         2
         4         5         6         7     9        0.000000        0.097463         3
         4         5         6         7     9      180.000000       -0.336846         4
         4         5         6        37     9        0.000000       -0.023969         1
         4         5         6        37     9      180.000000       17.298060         2
         4         5         6        37     9        0.000000       -1.297560         3
         4         5         6        37     9      180.000000       -0.244555         4
         5         4         3        38     9        0.000000        0.101367         1
         5         4         3        38     9      180.000000       16.812105         2
         5         4         3        38     9        0.000000       -1.160184         3
         5         4         3        38     9      180.000000       -0.311314         4
         5         6         7         8     9        0.000000        0.443063         1
         5         6         7         8     9      180.000000        3.120267         2
         5         6         7         8     9        0.000000       -0.198859         3
         5         6         7         8     9      180.000000        0.465135         4
         5         6         7        46     9        0.000000       -0.086586         1
         5         6         7        46     9      180.000000        3.309235         2
         5         6         7        46     9        0.000000        0.058469         3
         5         6         7        46     9      180.000000        0.892657         4
         5         6        37        38     9        0.000000        0.041057         1
         5         6        37        38     9      180.000000       15.861907         2
         5         6        37        38     9        0.000000       -1.469751         3
         5         6        37        38     9      180.000000       -0.131810         4
         5         6        37        62     9        0.000000        0.034995         1
         5         6        37        62     9      180.000000       12.257033         2
         5         6        37        62     9        0.000000       -0.533826         3
         5         6        37        62     9      180.000000        0.241321         4
         6         5         4        44     9        0.000000        0.111932         1
         6         5         4        44     9      180.000000       13.581334         2
         6         5         4        44     9        0.000000       -0.541303         3
         6         5         4        44     9      180.000000        0.103443         4
         6         7         8         9     9        0.000000       -0.142316         1
         6         7         8         9     9      180.000000        7.089440         2
         6         7         8         9     9        0.000000        0.006698         3
         6         7         8         9     9      180.000000       -0.538883         4
         6         7         8        16     9        0.000000        2.326494         1
         6         7         8        16     9      180.000000        5.951173         2
         6         7         8        16     9        0.000000        0.374079         3
         6         7         8        16     9      180.000000       -0.366443         4
         6        37        38        39     9        0.000000        0.361152         1
         6        37        38        39     9      180.000000       18.377749         2
         6        37        38        39     9        0.000000        0.246867         3
         6        37        38        39     9      180.000000       -0.381466         4
         7         6         5        45     9        0.000000       -0.024104         1
         7         6         5        45     9      180.000000       14.277814         2
         7         6         5        45     9        0.000000       -0.040261         3
         7         6         5        45     9      180.000000        0.129898         4
         7         6        37        38     9        0.000000       -0.012406         1
         7         6        37        38     9      180.000000       16.138687         2
         7         6        37        38     9        0.000000       -0.036311         3
         7         6        37        38     9      180.000000       -0.361374         4
         7         6        37        62     9        0.000000       -0.145210         1
         7         6        37        62     9      180.000000       13.428407         2
         7         6        37        62     9        0.000000       -0.139711         3
         7         6        37        62     9      180.000000        0.230596         4
         7         8         9        10     9        0.000000        1.964183         1
         7         8         9        10     9      180.000000       24.409544         2
         7         8         9        10     9        0.000000        0.721435         3
         7         8         9        10     9      180.000000       -0.981985         4
         7         8        16        12     9        0.000000        0.532708         1
         7         8        16        12     9      180.000000       12.023478         2
         7         8        16        12     9        0.000000        0.177021         3
         7         8        16        12     9      180.000000       -0.593144         4
         7         8        16        15     9        0.000000       -0.356302         1
         7         8        16        15     9      180.000000       10.853868         2
         7         8        16        15     9        0.000000       -0.107328         3
         7         8        16        15     9      180.000000       -0.464327         4
         8         7         6        37     9        0.000000       -0.444928         1
         8         7         6        37     9      180.000000        3.391438         2
         8         7         6        37     9        0.000000       -0.254057         3
         8         7         6        37     9      180.000000        0.430933         4
         8         9        10        11     9        0.000000        0.932420         1
         8         9        10        11     9      180.000000       13.725350         2
         8         9        10        11     9        0.000000       -0.291373         3
         8         9        10        11     9      180.000000       -0.023212         4
         8         9        10        17     9        0.000000        1.452567         1
         8         9        10        17     9      180.000000       18.029774         2
         8         9        10        17     9        0.000000        0.698411         3
         8         9        10        17     9      180.000000       -1.025730         4
         8        16        12        11     9        0.000000        0.337955         1
         8        16        12        11     9      180.000000        5.783879         2
         8        16        12        11     9        0.000000       -0.143385         3
         8        16        12        11     9      180.000000        0.124531         4
         8        16        12        13     9        0.000000       -0.529937         1
         8        16        12        13     9      180.000000        7.254573         2
         8        16        12        13     9        0.000000       -2.285935         3
         8        16        12        13     9      180.000000        0.374903         4
         8        16        15        14     9        0.000000        1.546001         1
         8        16        15        14     9      180.000000       16.470752         2
         8        16        15        14     9        0.000000       -0.373495         3
         8        16        15        14     9      180.000000        0.010418         4
         9         8         7        46     9        0.000000       11.455043         1
         9         8         7        46     9      180.000000        6.774555         2
         9         8         7        46     9        0.000000       -0.382909         3
         9         8         7        46     9      180.000000        0.129606         4
         9         8        16        12     9        0.000000       -0.061702         1
         9         8        16        12     9      180.000000        9.290063         2
         9         8        16        12     9        0.000000       -0.534588         3
         9         8        16        12     9      180.000000       -0.340850         4
         9         8        16        15     9        0.000000       -1.860286         1
         9         8        16        15     9      180.000000        6.551763         2
         9         8        16        15     9        0.000000       -0.109909         3
         9         8        16        15     9      180.000000       -0.440551         4
         9        10        11        12     9        0.000000       -0.644093         1
         9        10        11        12     9      180.000000       29.876529         2
         9        10        11        12     9        0.000000       -1.098483         3
         9        10        11        12     9      180.000000       -1.727717         4
         9        10        11        47     9        0.000000        0.308596         1
         9        10        11        47     9      180.000000       17.753438         2
         9        10        11        47     9        0.000000        0.220188         3
         9        10        11        47     9      180.000000       -0.557954         4
         9        10        17        18     9        0.000000       -0.299336         1
         9        10        17        18     9      180.000000        4.054356         2
         9        10        17        18     9        0.000000        0.010569         3
         9        10        17        18     9      180.000000        0.039839         4
         9        10        17        22     9        0.000000       -0.072945         1
         9        10        17        22     9      180.000000        4.069630         2
         9        10        17        22     9        0.000000       -0.020634         3
         9        10        17        22     9      180.000000        0.038871         4
        10         9         8        16     9        0.000000        0.950280         1
        10         9         8        16     9      180.000000       22.114478         2
        10         9         8        16     9        0.000000        0.588585         3
        10         9         8        16     9      180.000000       -0.565664         4
        10        11        12        13     9        0.000000        0.471966         1
        10        11        12        13     9      180.000000        4.973018         2
        10        11        12        13     9        0.000000        0.246173         3
        10        11        12        13     9      180.000000        0.108343         4
        10        11        12        16     9        0.000000       -0.637452         1
        10        11        12        16     9      180.000000        9.281700         2
        10        11        12        16     9        0.000000       -1.036308         3
        10        11        12        16     9      180.000000       -0.051108         4
        10        17        18        19     9        0.000000        0.174885         1
        10        17        18        19     9      180.000000       15.784519         2
        10        17        18        19     9        0.000000       -0.112468         3
        10        17        18        19     9      180.000000       -0.242402         4
        10        17        18        50     9        0.000000       -0.128498         1
        10        17        18        50     9      180.000000       12.509088         2
        10        17        18        50     9        0.000000       -0.204270         3
        10        17        18        50     9      180.000000        0.175567         4
        10        17        22        21     9        0.000000        0.134785         1
        10        17        22        21     9      180.000000       15.865858         2
        10        17        22        21     9        0.000000       -0.049764         3
        10        17        22        21     9      180.000000       -0.342145         4
        10        17        22        53     9        0.000000       -0.158024         1
        10        17        22        53     9      180.000000       12.526605         2
        10        17        22        53     9        0.000000       -0.153023         3
        10        17        22        53     9      180.000000        0.220687         4
        11        10        17        18     9        0.000000       -0.221289         1
        11        10        17        18     9      180.000000        3.275720         2
        11        10        17        18     9        0.000000        0.192136         3
        11        10        17        18     9      180.000000       -0.197230         4
        11        10        17        22     9        0.000000       -0.368391         1
        11        10        17        22     9      180.000000        3.324207         2
        11        10        17        22     9        0.000000        0.205505         3
        11        10        17        22     9      180.000000       -0.197058         4
        11        12        13        14     9        0.000000        0.965502         1
        11        12        13        14     9      180.000000        5.223294         2
        11        12        13        14     9        0.000000        0.739375         3
        11        12        13        14     9      180.000000       -0.040295         4
        11        12        13        48     9        0.000000        0.156545         1
        11        12        13        48     9      180.000000        3.679926         2
        11        12        13        48     9        0.000000        0.374386         3
        11        12        13        48     9      180.000000        0.064056         4
        11        12        16        15     9        0.000000        0.555177         1
        11        12        16        15     9      180.000000        7.752461         2
        11        12        16        15     9        0.000000       -0.729377         3
        11        12        16        15     9      180.000000        0.134980         4
        12        11        10        17     9        0.000000        0.181145         1
        12        11        10        17     9      180.000000       26.715898         2
        12        11        10        17     9        0.000000        0.409266         3
        12        11        10        17     9      180.000000       -1.827917         4
        12        13        14        15     9        0.000000       -0.258795         1
        12        13        14        15     9      180.000000       36.323027         2
        12        13        14        15     9        0.000000       -7.442936         3
        12        13        14        15     9      180.000000       -0.839993         4
        12        13        14        49     9        0.000000        0.279818         1
        12        13        14        49     9      180.000000       18.770133         2
        12        13        14        49     9        0.000000       -0.507969         3
        12        13        14        49     9      180.000000       -0.564047         4
        12        16        15        14     9        0.000000       -0.172777         1
        12        16        15        14     9      180.000000       37.627789         2
        12        16        15        14     9        0.000000       -7.120095         3
        12        16        15        14     9      180.000000        0.116817         4
        13        12        11        47     9        0.000000       -0.211391         1
        13        12        11        47     9      180.000000        3.543757         2
        13        12        11        47     9        0.000000        0.304369         3
        13        12        11        47     9      180.000000        0.067334         4
        13        12        16        15     9        0.000000        0.131710         1
        13        12        16        15     9      180.000000       15.566770         2
        13        12        16        15     9        0.000000       -7.866552         3
        13        12        16        15     9      180.000000        0.257373         4
        13        14        15        16     9        0.000000       -0.255847         1
        13        14        15        16     9      180.000000       31.025341         2
        13        14        15        16     9        0.000000       -4.653100         3
        13        14        15        16     9      180.000000        0.341647         4
        14        13        12        16     9        0.000000        0.086044         1
        14        13        12        16     9      180.000000       25.283689         2
        14        13        12        16     9        0.000000       -9.272057         3
        14        13        12        16     9      180.000000        0.296509         4
        15        14        13        48     9        0.000000        0.292779         1
        15        14        13        48     9      180.000000       15.681650         2
        15        14        13        48     9        0.000000       -0.422047         3
        15        14        13        48     9      180.000000       -0.479005         4
        16         8         7        46     9        0.000000        3.047132         1
        16         8         7        46     9      180.000000        7.216452         2
        16         8         7        46     9        0.000000       -0.156868         3
        16         8         7        46     9      180.000000        0.486791         4
        16        12        11        47     9        0.000000        0.560809         1
        16        12        11        47     9      180.000000        4.562281         2
        16        12        11        47     9        0.000000        0.396933         3
        16        12        11        47     9      180.000000        0.102239         4
        16        12        13        48     9        0.000000        1.026521         1
        16        12        13        48     9      180.000000        6.099846         2
        16        12        13        48     9        0.000000        0.349087         3
        16        12        13        48     9      180.000000        0.232410         4
        16        15        14        49     9        0.000000        2.009586         1
        16        15        14        49     9      180.000000       22.682230         2
        16        15        14        49     9        0.000000        0.566970         3
        16        15        14        49     9      180.000000       -0.265560         4
        17        10        11        47     9        0.000000       -0.041887         1
        17        10        11        47     9      180.000000       15.049990         2
        17        10        11        47     9        0.000000        0.318744         3
        17        10        11        47     9      180.000000       -0.032420         4
        17        18        19        20     9        0.000000        0.015890         1
        17        18        19        20     9      180.000000       19.096888         2
        17        18        19        20     9        0.000000       -1.525264         3
        17        18        19        20     9      180.000000       -0.448507         4
        17        18        19        51     9        0.000000       -0.041599         1
        17        18        19        51     9      180.000000       14.961509         2
        17        18        19        51     9        0.000000       -0.548935         3
        17        18        19        51     9      180.000000        0.072533         4
        17        22        21        20     9        0.000000       -0.069077         1
        17        22        21        20     9      180.000000       18.808979         2
        17        22        21        20     9        0.000000       -1.402794         3
        17        22        21        20     9      180.000000       -0.509349         4
        17        22        21        23     9        0.000000       -0.026724         1
        17        22        21        23     9      180.000000       14.388547         2
        17        22        21        23     9        0.000000       -0.276132         3
        17        22        21        23     9      180.000000       -0.351163         4
        18        17        22        21     9        0.000000       -0.133747         1
        18        17        22        21     9      180.000000       18.182059         2
        18        17        22        21     9        0.000000       -1.400240         3
        18        17        22        21     9      180.000000       -0.377173         4
        18        17        22        53     9        0.000000       -0.135125         1
        18        17        22        53     9      180.000000       13.914620         2
        18        17        22        53     9        0.000000       -0.506433         3
        18        17        22        53     9      180.000000        0.103394         4
        18        19        20        21     9        0.000000        0.011110         1
        18        19        20        21     9      180.000000       18.845242         2
        18        19        20        21     9        0.000000       -1.552920         3
        18        19        20        21     9      180.000000       -0.491478         4
        18        19        20        52     9        0.000000       -0.031500         1
        18        19        20        52     9      180.000000       14.440509         2
        18        19        20        52     9        0.000000       -0.616964         3
        18        19        20        52     9      180.000000        0.134307         4
        19        18        17        22     9        0.000000       -0.112992         1
        19        18        17        22     9      180.000000       18.098906         2
        19        18        17        22     9        0.000000       -1.345767         3
        19        18        17        22     9      180.000000       -0.298964         4
        19        20        21        22     9        0.000000        0.045945         1
        19        20        21        22     9      180.000000       18.408731         2
        19        20        21        22     9        0.000000       -1.320228         3
        19        20        21        22     9      180.000000       -0.441812         4
        19        20        21        23     9        0.000000        0.145371         1
        19        20        21        23     9      180.000000       14.069126         2
        19        20        21        23     9        0.000000       -0.203521         3
        19        20        21        23     9      180.000000       -0.239924         4
        20        19        18        50     9        0.000000        0.051453         1
        20        19        18        50     9      180.000000       14.645315         2
        20        19        18        50     9        0.000000       -0.634928         3
        20        19        18        50     9      180.000000        0.161347         4
        20        21        22        53     9        0.000000        0.081051         1
        20        21        22        53     9      180.000000       13.940947         2
        20        21        22        53     9        0.000000       -0.518421         3
        20        21        22        53     9      180.000000        0.106029         4
        20        21        23        24     9        0.000000        0.135040         1
        20        21        23        24     9      180.000000        3.468454         2
        20        21        23        24     9        0.000000        0.090969         3
        20        21        23        24     9      180.000000        0.070507         4
        20        21        23        25     9        0.000000        0.067209         1
        20        21        23        25     9      180.000000        2.602227         2
        20        21        23        25     9        0.000000        0.041500         3
        20        21        23        25     9      180.000000       -0.174447         4
        21        20        19        51     9        0.000000       -0.016829         1
        21        20        19        51     9      180.000000       14.741155         2
        21        20        19        51     9        0.000000       -0.533206         3
        21        20        19        51     9      180.000000        0.098092         4
        21        23        25        26     9        0.000000        2.770252         1
        21        23        25        26     9      180.000000        7.624914         2
        21        23        25        26     9        0.000000        1.118684         3
        21        23        25        26     9      180.000000       -0.523386         4
        21        23        25        54     9        0.000000        1.494399         1
        21        23        25        54     9      180.000000        8.605948         2
        21        23        25        54     9        0.000000        0.130868         3
        21        23        25        54     9      180.000000        0.584497         4
        22        17        18        50     9        0.000000       -0.126499         1
        22        17        18        50     9      180.000000       13.833973         2
        22        17        18        50     9        0.000000       -0.628352         3
        22        17        18        50     9      180.000000        0.114537         4
        22        21        20        52     9        0.000000        0.015578         1
        22        21        20        52     9      180.000000       13.846682         2
        22        21        20        52     9        0.000000       -0.593205         3
        22        21        20        52     9      180.000000        0.076468         4
        22        21        23        24     9        0.000000        0.224623         1
        22        21        23        24     9      180.000000        3.542609         2
        22        21        23        24     9        0.000000        0.097870         3
        22        21        23        24     9      180.000000        0.070548         4
        22        21        23        25     9        0.000000        0.043927         1
        22        21        23        25     9      180.000000        2.572275         2
        22        21        23        25     9        0.000000       -0.000916         3
        22        21        23        25     9      180.000000       -0.196725         4
        23        21        20        52     9        0.000000        0.095868         1
        23        21        20        52     9      180.000000       12.517239         2
        23        21        20        52     9        0.000000       -0.345401         3
        23        21        20        52     9      180.000000        0.051389         4
        23        21        22        53     9        0.000000        0.100387         1
        23        21        22        53     9      180.000000       12.734848         2
        23        21        22        53     9        0.000000       -0.255006         3
        23        21        22        53     9      180.000000        0.053043         4
        23        25        26        27     9        0.000000       -0.049572         1
        23        25        26        27     9      180.000000        2.855645         2
        23        25        26        27     9        0.000000        0.007678         3
        23        25        26        27     9      180.000000        0.118367         4
        23        25        26        31     9        0.000000       -0.049572         1
        23        25        26        31     9      180.000000        2.855645         2
        23        25        26        31     9        0.000000        0.007678         3
        23        25        26        31     9      180.000000        0.118367         4
        24        23        25        26     9        0.000000       -3.599344         1
        24        23        25        26     9      180.000000        7.419563         2
        24        23        25        26     9        0.000000       -0.043737         3
        24        23        25        26     9      180.000000       -0.415359         4
        24        23        25        54     9        0.000000       -1.016182         1
        24        23        25        54     9      180.000000        9.014645         2
        24        23        25        54     9        0.000000        0.594482         3
        24        23        25        54     9      180.000000        0.310450         4
        25        26        27        28     9        0.000000        0.393212         1
        25        26        27        28     9      180.000000       16.886677         2
        25        26        27        28     9        0.000000        0.101634         3
        25        26        27        28     9      180.000000       -0.337698         4
        25        26        27        55     9        0.000000       -0.077764         1
        25        26        27        55     9      180.000000       13.601091         2
        25        26        27        55     9        0.000000       -0.130759         3
        25        26        27        55     9      180.000000        0.242534         4
        25        26        31        30     9        0.000000        0.393212         1
        25        26        31        30     9      180.000000       16.886677         2
        25        26        31        30     9        0.000000        0.101634         3
        25        26        31        30     9      180.000000       -0.337698         4
        25        26        31        58     9        0.000000       -0.077764         1
        25        26        31        58     9      180.000000       13.601091         2
        25        26        31        58     9        0.000000       -0.130759         3
        25        26        31        58     9      180.000000        0.242534         4
        26        27        28        29     9        0.000000       -0.092798         1
        26        27        28        29     9      180.000000       18.841491         2
        26        27        28        29     9        0.000000       -1.755924         3
        26        27        28        29     9      180.000000       -0.425136         4
        26        27        28        56     9        0.000000       -0.054926         1
        26        27        28        56     9      180.000000       15.288636         2
        26        27        28        56     9        0.000000       -0.614948         3
        26        27        28        56     9      180.000000        0.016174         4
        26        31        30        29     9        0.000000       -0.092798         1
        26        31        30        29     9      180.000000       18.841491         2
        26        31        30        29     9        0.000000       -1.755924         3
        26        31        30        29     9      180.000000       -0.425136         4
        26        31        30        57     9        0.000000       -0.054926         1
        26        31        30        57     9      180.000000       15.288636         2
        26        31        30        57     9        0.000000       -0.614948         3
        26        31        30        57     9      180.000000        0.016174         4
        27        26        25        54     9        0.000000        0.114086         1
        27        26        25        54     9      180.000000        2.674835         2
        27        26        25        54     9        0.000000        0.042144         3
        27        26        25        54     9      180.000000        0.099638         4
        27        26        31        30     9        0.000000        0.008354         1
        27        26        31        30     9      180.000000       16.019175         2
        27        26        31        30     9        0.000000       -0.968796         3
        27        26        31        30     9      180.000000       -0.177173         4
        27        26        31        58     9        0.000000        0.179129         1
        27        26        31        58     9      180.000000       12.887450         2
        27        26        31        58     9        0.000000       -0.468136         3
        27        26        31        58     9      180.000000        0.123589         4
        27        28        29        30     9        0.000000       -0.055269         1
        27        28        29        30     9      180.000000       17.542957         2
        27        28        29        30     9        0.000000       -1.394224         3
        27        28        29        30     9      180.000000       -0.342735         4
        27        28        29        32     9        0.000000        0.097478         1
        27        28        29        32     9      180.000000       15.421429         2
        27        28        29        32     9        0.000000       -0.413750         3
        27        28        29        32     9      180.000000       -0.240981         4
        28        27        26        31     9        0.000000        0.008354         1
        28        27        26        31     9      180.000000       16.019175         2
        28        27        26        31     9        0.000000       -0.968796         3
        28        27        26        31     9      180.000000       -0.177173         4
        28        29        30        31     9        0.000000       -0.055269         1
        28        29        30        31     9      180.000000       17.542957         2
        28        29        30        31     9        0.000000       -1.394224         3
        28        29        30        31     9      180.000000       -0.342735         4
        28        29        30        57     9        0.000000       -0.070250         1
        28        29        30        57     9      180.000000       13.734988         2
        28        29        30        57     9        0.000000       -0.626223         3
        28        29        30        57     9      180.000000        0.084764         4
        28        29        32        33     9        0.000000        0.232920         1
        28        29        32        33     9      180.000000        3.426700         2
        28        29        32        33     9        0.000000        0.097779         3
        28        29        32        33     9      180.000000       -0.066736         4
        28        29        32        36     9        0.000000       -0.267570         1
        28        29        32        36     9      180.000000        3.578451         2
        28        29        32        36     9        0.000000        0.082795         3
        28        29        32        36     9      180.000000       -0.227856         4
        29        28        27        55     9        0.000000       -0.062312         1
        29        28        27        55     9      180.000000       15.491350         2
        29        28        27        55     9        0.000000       -0.514855         3
        29        28        27        55     9      180.000000        0.054920         4
        29        30        31        58     9        0.000000       -0.062312         1
        29        30        31        58     9      180.000000       15.491350         2
        29        30        31        58     9        0.000000       -0.514855         3
        29        30        31        58     9      180.000000        0.054920         4
        29        32        33        34     9        0.000000        1.193305         1
        29        32        33        34     9      180.000000       28.126977         2
        29        32        33        34     9        0.000000        0.950080         3
        29        32        33        34     9      180.000000       -0.734353         4
        29        32        36        35     9        0.000000        0.875931         1
        29        32        36        35     9      180.000000       14.303035         2
        29        32        36        35     9        0.000000        0.589927         3
        29        32        36        35     9      180.000000       -0.860339         4
        29        32        36        61     9        0.000000       -0.929858         1
        29        32        36        61     9      180.000000        4.174930         2
        29        32        36        61     9        0.000000       -0.120739         3
        29        32        36        61     9      180.000000       -0.001584         4
        30        29        28        56     9        0.000000       -0.070250         1
        30        29        28        56     9      180.000000       13.734988         2
        30        29        28        56     9        0.000000       -0.626223         3
        30        29        28        56     9      180.000000        0.084764         4
        30        29        32        33     9        0.000000        0.232920         1
        30        29        32        33     9      180.000000        3.426700         2
        30        29        32        33     9        0.000000        0.097779         3
        30        29        32        33     9      180.000000       -0.066736         4
        30        29        32        36     9        0.000000       -0.267570         1
        30        29        32        36     9      180.000000        3.578451         2
        30        29        32        36     9        0.000000        0.082795         3
        30        29        32        36     9      180.000000       -0.227856         4
        31        26        25        54     9        0.000000        0.114086         1
        31        26        25        54     9      180.000000        2.674835         2
        31        26        25        54     9        0.000000        0.042144         3
        31        26        25        54     9      180.000000        0.099638         4
        31        26        27        55     9        0.000000        0.179129         1
        31        26        27        55     9      180.000000       12.887450         2
        31        26        27        55     9        0.000000       -0.468136         3
        31        26        27        55     9      180.000000        0.123589         4
        31        30        29        32     9        0.000000        0.097478         1
        31        30        29        32     9      180.000000       15.421429         2
        31        30        29        32     9        0.000000       -0.413750         3
        31        30        29        32     9      180.000000       -0.240981         4
        32        29        28        56     9        0.000000       -0.077206         1
        32        29        28        56     9      180.000000       12.697981         2
        32        29        28        56     9        0.000000       -0.244768         3
        32        29        28        56     9      180.000000        0.200001         4
        32        29        30        57     9        0.000000       -0.077206         1
        32        29        30        57     9      180.000000       12.697981         2
        32        29        30        57     9        0.000000       -0.244768         3
        32        29        30        57     9      180.000000        0.200001         4
        32        33        34        35     9        0.000000       -0.285907         1
        32        33        34        35     9      180.000000       31.535846         2
        32        33        34        35     9        0.000000       -5.093453         3
        32        33        34        35     9      180.000000        0.159427         4
        32        33        34        59     9        0.000000        1.125955         1
        32        33        34        59     9      180.000000       19.907895         2
        32        33        34        59     9        0.000000        0.446486         3
        32        33        34        59     9      180.000000       -0.325584         4
        32        36        35        34     9        0.000000        0.216036         1
        32        36        35        34     9      180.000000       22.530715         2
        32        36        35        34     9        0.000000       -5.993451         3
        32        36        35        34     9      180.000000       -0.293084         4
        32        36        35        60     9        0.000000       -0.003382         1
        32        36        35        60     9      180.000000        5.791406         2
        32        36        35        60     9        0.000000       -0.046797         3
        32        36        35        60     9      180.000000        0.011627         4
        33        32        36        35     9        0.000000       -0.017650         1
        33        32        36        35     9      180.000000       27.889881         2
        33        32        36        35     9        0.000000       -6.152921         3
        33        32        36        35     9      180.000000       -0.337853         4
        33        32        36        61     9        0.000000        1.062084         1
        33        32        36        61     9      180.000000        5.967549         2
        33        32        36        61     9        0.000000        0.141091         3
        33        32        36        61     9      180.000000        0.079040         4
        33        34        35        36     9        0.000000       -0.135654         1
        33        34        35        36     9      180.000000       36.741221         2
        33        34        35        36     9        0.000000       -7.532560         3
        33        34        35        36     9      180.000000       -0.368392         4
        33        34        35        60     9        0.000000        0.548271         1
        33        34        35        60     9      180.000000       16.051576         2
        33        34        35        60     9        0.000000       -0.283895         3
        33        34        35        60     9      180.000000       -0.462310         4
        34        33        32        36     9        0.000000       -0.220487         1
        34        33        32        36     9      180.000000       38.514789         2
        34        33        32        36     9        0.000000       -5.217221         3
        34        33        32        36     9      180.000000        0.282315         4
        34        35        36        61     9        0.000000       -0.169548         1
        34        35        36        61     9      180.000000        3.492137         2
        34        35        36        61     9        0.000000        0.309828         3
        34        35        36        61     9      180.000000        0.130931         4
        36        35        34        59     9        0.000000        0.237815         1
        36        35        34        59     9      180.000000       17.829216         2
        36        35        34        59     9        0.000000       -0.705775         3
        36        35        34        59     9      180.000000       -0.394784         4
        37         6         5        45     9        0.000000        0.074272         1
        37         6         5        45     9      180.000000       12.990241         2
        37         6         5        45     9        0.000000       -0.520768         3
        37         6         5        45     9      180.000000        0.132469         4
        37         6         7        46     9        0.000000        1.575092         1
        37         6         7        46     9      180.000000        3.198189         2
        37         6         7        46     9        0.000000        0.467524         3
        37         6         7        46     9      180.000000        0.863764         4
        37        38        39        40     9        0.000000        0.123070         1
        37        38        39        40     9      180.000000        4.737590         2
        37        38        39        40     9        0.000000       -0.815850         3
        37        38        39        40     9      180.000000        0.427562         4
        38         3         4        44     9        0.000000        0.222425         1
        38         3         4        44     9      180.000000       12.890974         2
        38         3         4        44     9        0.000000       -0.414498         3
        38         3         4        44     9      180.000000        0.189834         4
        38        39        40        63     9        0.000000       -0.006342         1
        38        39        40        63     9      180.000000       -0.005041         2
        38        39        40        63     9        0.000000        0.433370         3
        38        39        40        63     9      180.000000       -0.009039         4
        38        39        40        64     9        0.000000       -0.006342         1
        38        39        40        64     9      180.000000       -0.005041         2
        38        39        40        64     9        0.000000        0.433370         3
        38        39        40        64     9      180.000000       -0.009039         4
        38        39        40        65     9        0.000000       -0.006342         1
        38        39        40        65     9      180.000000       -0.005041         2
        38        39        40        65     9        0.000000        0.433370         3
        38        39        40        65     9      180.000000       -0.009039         4
        39        38        37        62     9        0.000000        0.102562         1
        39        38        37        62     9      180.000000       13.836841         2
        39        38        37        62     9        0.000000       -0.050822         3
        39        38        37        62     9      180.000000        0.307531         4
        44         4         5        45     9        0.000000       -0.192420         1
        44         4         5        45     9      180.000000       11.734675         2
        44         4         5        45     9        0.000000       -0.700234         3
        44         4         5        45     9      180.000000        0.222006         4
        48        13        14        49     9        0.000000       -0.357706         1
        48        13        14        49     9      180.000000        9.061505         2
        48        13        14        49     9        0.000000       -0.277917         3
        48        13        14        49     9      180.000000        0.193706         4
        50        18        19        51     9        0.000000       -0.213594         1
        50        18        19        51     9      180.000000       11.901331         2
        50        18        19        51     9        0.000000       -0.691874         3
        50        18        19        51     9      180.000000        0.345165         4
        51        19        20        52     9        0.000000       -0.179985         1
        51        19        20        52     9      180.000000       12.019638         2
        51        19        20        52     9        0.000000       -0.697514         3
        51        19        20        52     9      180.000000        0.332031         4
        55        27        28        56     9        0.000000       -0.156217         1
        55        27        28        56     9      180.000000       12.664783         2
        55        27        28        56     9        0.000000       -0.663323         3
        55        27        28        56     9      180.000000        0.349853         4
        57        30        31        58     9        0.000000       -0.156217         1
        57        30        31        58     9      180.000000       12.664783         2
        57        30        31        58     9        0.000000       -0.663323         3
        57        30        31        58     9      180.000000        0.349853         4
        59        34        35        60     9        0.000000       -0.476051         1
        59        34        35        60     9      180.000000        9.121590         2
        59        34        35        60     9        0.000000       -0.430052         3
        59        34        35        60     9      180.000000        0.276745         4
        60        35        36        61     9        0.000000       -1.990044         1
        60        35        36        61     9      180.000000        0.697109         2
        60        35        36        61     9        0.000000       -0.243077         3
        60        35        36        61     9      180.000000       -0.029982         4

[ dihedrals ] ; impropers
;       ai        aj        ak        al funct           phase               k        pn
        23        21        24        25     4      180.000000       27.510857         2
        23        24        25        21     4      180.000000       27.510857         2
        23        25        21        24     4      180.000000       27.510857         2

[ pairs ]
;       ai        aj funct
         1         4     1
         1        38     1
         2         5     1
         2        37     1
         2        39     1
         2        44     1
         3         6     1
         3        40     1
         3        41     1
         3        42     1
         3        43     1
         3        45     1
         3        62     1
         4         7     1
         4        37     1
         4        39     1
         5         8     1
         5        38     1
         5        46     1
         5        62     1
         6         9     1
         6        16     1
         6        39     1
         6        44     1
         7        10     1
         7        12     1
         7        15     1
         7        38     1
         7        45     1
         7        62     1
         8        11     1
         8        13     1
         8        14     1
         8        17     1
         8        37     1
         9        12     1
         9        15     1
         9        18     1
         9        22     1
         9        46     1
         9        47     1
        10        13     1
        10        16     1
        10        19     1
        10        21     1
        10        50     1
        10        53     1
        11        14     1
        11        15     1
        11        18     1
        11        22     1
        11        48     1
        12        17     1
        12        49     1
        13        47     1
        15        48     1
        16        46     1
        16        47     1
        16        48     1
        16        49     1
        17        20     1
        17        23     1
        17        47     1
        17        51     1
        18        21     1
        18        52     1
        18        53     1
        19        22     1
        19        23     1
        20        24     1
        20        25     1
        20        50     1
        20        53     1
        21        26     1
        21        51     1
        21        54     1
        22        24     1
        22        25     1
        22        50     1
        22        52     1
        23        27     1
        23        31     1
        23        52     1
        23        53     1
        24        26     1
        24        54     1
        25        28     1
        25        30     1
        25        55     1
        25        58     1
        26        29     1
        26        56     1
        26        57     1
        27        30     1
        27        32     1
        27        54     1
        27        58     1
        28        31     1
        28        33     1
        28        36     1
        28        57     1
        29        34     1
        29        35     1
        29        55     1
        29        58     1
        29        61     1
        30        33     1
        30        36     1
        30        56     1
        31        32     1
        31        54     1
        31        55     1
        32        56     1
        32        57     1
        32        59     1
        32        60     1
        33        60     1
        33        61     1
        34        61     1
        36        59     1
        37        40     1
        37        45     1
        37        46     1
        38        44     1
        38        63     1
        38        64     1
        38        65     1
        39        62     1
        44        45     1
        48        49     1
        50        51     1
        51        52     1
        55        56     1
        57        58     1
        59        60     1
        60        61     1
